    24
 Energy =       0.2618281777
c     1.6703672    2.6182922    0.2614132  0.00    0.0469968    0.0713105    0.0242217
c     0.3248649    2.9356558    0.1418766  0.00   -0.0066134    0.1045015    0.0280138
c    -0.5827484    1.9945952   -0.3219261  0.00   -0.0890325    0.0431762    0.0045906
c     2.1038063    1.3347474   -0.0833024  0.00    0.0670059   -0.0110514    0.0089469
c     1.2047783    0.3610782   -0.5608861  0.00    0.0151806   -0.1004084   -0.0314542
c    -0.1441045    0.7159142   -0.6796715  0.00   -0.0295360   -0.0548650   -0.0310997
o    -0.1504797    4.1703171    0.4675790  0.00   -0.0528475   -0.0244114   -0.0587776
h    -0.5871159    4.5498648   -0.3125495  0.00    0.0452405   -0.0386625    0.0472643
h    -0.8895274    0.0262790   -1.0546636  0.00   -0.0003083    0.0055094   -0.0057634
h     3.1621727    1.0964802    0.0165124  0.00    0.0029206    0.0000798   -0.0010073
h     2.3926004    3.3457758    0.6178375  0.00    0.0100515   -0.0069789   -0.0020733
h    -1.6336796    2.2563998   -0.4108671  0.00   -0.0015152    0.0003928   -0.0014210
c     1.7669373   -1.0073413   -0.8964724  0.00   -0.0137814   -0.0226582    0.0299659
c     0.8861134   -2.0194266   -1.6556448  0.00    0.0295268   -0.0148782   -0.0677654
h     2.1212937   -1.4658931    0.0371405  0.00   -0.0049849    0.0071104   -0.0144213
h     2.6645729   -0.8285312   -1.5058794  0.00   -0.0104286    0.0054497    0.0105197
c    -0.2550706   -2.4993401   -0.7313897  0.00   -0.0388593   -0.0468097    0.3662630
o    -0.1765299   -2.6781136    0.4736491  0.00   -0.0223355    0.0470213   -0.2868024
o    -1.3862936   -2.7453732   -1.4466837  0.00    0.0828447    0.0437733   -0.0819745
h    -1.1884311   -2.4274459   -2.3639942  0.00    0.6866267    0.4125720   -0.1754875
n     0.2410616   -1.4915667   -2.9017470  0.00   -0.6768255   -0.4204140    0.1869041
h     1.4642165   -2.9122299   -1.9206526  0.00   -0.0161805    0.0196797   -0.0109858
h     0.3515070   -0.4710381   -2.9076552  0.00    0.0009660   -0.0327882    0.0241920
h     0.7838113   -1.8074963   -3.7086830  0.00   -0.0241116    0.0133493    0.0381512
    24
 Energy =       0.1952409001
c     1.6189159    2.6251192    0.2535611  0.00    0.0300775    0.0449375    0.0153955
c     0.2872043    2.9318564    0.1132873  0.00   -0.0030643    0.0634841    0.0190649
c    -0.6029131    1.9770041   -0.3185629  0.00   -0.0567238    0.0272080    0.0033098
c     2.0654712    1.3573506   -0.0696931  0.00    0.0428393   -0.0074177    0.0055123
c     1.1878655    0.3829390   -0.5371518  0.00    0.0092101   -0.0639296   -0.0201890
c    -0.1569376    0.7082159   -0.6458857  0.00   -0.0189877   -0.0348634   -0.0204848
o    -0.1758478    4.2031319    0.3612852  0.00   -0.0346175   -0.0124559   -0.0337143
h    -0.5687341    4.5669511   -0.4713026  0.00    0.0286746   -0.0234449    0.0257729
h    -0.8909832   -0.0064854   -0.9984716  0.00   -0.0005501    0.0031181   -0.0039133
h     3.1265265    1.1345279    0.0315977  0.00    0.0019859   -0.0000441   -0.0006612
h     2.3246241    3.3766269    0.5930791  0.00    0.0066890   -0.0040436   -0.0012444
h    -1.6546644    2.2301801   -0.4164654  0.00   -0.0010501    0.0003924   -0.0008700
c     1.7776014   -0.9714193   -0.8953952  0.00   -0.0092512   -0.0143922    0.0190904
c     0.9043252   -2.0114954   -1.6320026  0.00    0.0166742   -0.0096127   -0.0444743
h     2.1710360   -1.4264606    0.0317696  0.00   -0.0027646    0.0041490   -0.0087476
h     2.6562776   -0.7736835   -1.5358585  0.00   -0.0061052    0.0037806    0.0062161
c    -0.2084741   -2.5405100   -0.7310700  0.00   -0.0247811   -0.0297896    0.2331236
o    -0.0859740   -2.7048332    0.5345268  0.00   -0.0119448    0.0320580   -0.1824111
o    -1.3512339   -2.8575537   -1.4192923  0.00    0.0498202    0.0203713   -0.0462378
h    -1.2156433   -2.4624531   -2.3417307  0.00    0.4827134    0.2970892   -0.1357337
n     0.2639245   -1.5036860   -2.8759706  0.00   -0.4739801   -0.2982294    0.1382845
h     1.5196051   -2.8929605   -1.8835341  0.00   -0.0098658    0.0121862   -0.0071546
h     0.3316531   -0.4712077   -2.9073511  0.00    0.0003397   -0.0190816    0.0155522
h     0.8204982   -1.8195507   -3.6860285  0.00   -0.0153375    0.0085303    0.0245138
    24
 Energy =       0.1621638946
c     1.5786024    2.6565131    0.2023897  0.00    0.0212510    0.0315702    0.0108815
c     0.2551198    2.9543561    0.0369948  0.00   -0.0024546    0.0447167    0.0134464
c    -0.6174294    1.9951104   -0.3990592  0.00   -0.0401304    0.0196540    0.0026493
c     2.0370811    1.3961032   -0.0970811  0.00    0.0301243   -0.0053887    0.0036949
c     1.1768237    0.4169277   -0.5611569  0.00    0.0064283   -0.0442024   -0.0143725
c    -0.1623547    0.7304267   -0.6992114  0.00   -0.0136426   -0.0242127   -0.0145274
o    -0.2118844    4.2309482    0.2748420  0.00   -0.0232425   -0.0107500   -0.0186817
h    -0.5380093    4.6252854   -0.5849890  0.00    0.0191996   -0.0146501    0.0132352
h    -0.8854056    0.0028861   -1.0494826  0.00   -0.0006001    0.0023130   -0.0027879
h     3.0966265    1.1797019    0.0301381  0.00    0.0017469   -0.0001918   -0.0004669
h     2.2685436    3.4186934    0.5500592  0.00    0.0048571   -0.0027392   -0.0008409
h    -1.6685896    2.2424081   -0.5150584  0.00   -0.0009050    0.0004156   -0.0005981
c     1.7798183   -0.9463328   -0.8680407  0.00   -0.0061582   -0.0096682    0.0135214
c     0.9133907   -2.0288476   -1.5516056  0.00    0.0122295   -0.0073222   -0.0272703
h     2.1744860   -1.3597784    0.0824939  0.00   -0.0016939    0.0025838   -0.0051266
h     2.6589975   -0.7732421   -1.5190514  0.00   -0.0040827    0.0027341    0.0040776
c    -0.2140077   -2.5192082   -0.6561978  0.00   -0.0180406   -0.0201798    0.1644330
o    -0.0709817   -2.7022645    0.6368405  0.00   -0.0073340    0.0217714   -0.1282434
o    -1.3736913   -2.8392181   -1.3250522  0.00    0.0297073    0.0101491   -0.0121253
h    -1.1932889   -2.5876936   -2.3068585  0.00    0.3643889    0.2248220   -0.1232808
n     0.3178030   -1.5961658   -2.8456282  0.00   -0.3579352   -0.2213743    0.1027914
h     1.5413286   -2.9278343   -1.7247810  0.00   -0.0054375    0.0059132   -0.0052314
h     0.3664766   -0.5607253   -2.9399077  0.00    0.0000980   -0.0101116    0.0104484
h     0.9146680   -1.9564456   -3.6172564  0.00   -0.0083737    0.0041480    0.0143743
    24
 Energy =       0.1271238439
c     1.5294633    2.6241377    0.2721376  0.00    0.0088094    0.0141110    0.0043907
c     0.2126540    2.9095423    0.1105702  0.00   -0.0003717    0.0174825    0.0021647
c    -0.6358378    1.9633015   -0.3711314  0.00   -0.0176619    0.0089327    0.0001940
c     2.0068935    1.3917589   -0.0661905  0.00    0.0133171   -0.0027939    0.0015709
c     1.1689379    0.4256655   -0.5651587  0.00    0.0017470   -0.0193822   -0.0056630
c    -0.1661127    0.7223925   -0.7036712  0.00   -0.0060104   -0.0114274   -0.0062125
o    -0.2700256    4.1703718    0.4335951  0.00   -0.0062449   -0.0182899    0.0293994
h    -0.4332346    4.7001114   -0.4353548  0.00    0.0042781    0.0102933   -0.0274861
h    -0.8751634   -0.0058056   -1.0811919  0.00   -0.0004549    0.0005102   -0.0014378
h     3.0673508    1.1854057    0.0644189  0.00    0.0008633   -0.0000896   -0.0001837
h     2.1971473    3.3846278    0.6663856  0.00    0.0026920   -0.0000675    0.0001365
h    -1.6892588    2.2017430   -0.4806410  0.00   -0.0003986    0.0005250   -0.0002416
c     1.7948553   -0.9169311   -0.9285782  0.00   -0.0032608   -0.0053259    0.0053854
c     0.9244980   -2.0056396   -1.6019231  0.00    0.0039203   -0.0033947   -0.0122900
h     2.2280100   -1.3474993    0.0022330  0.00   -0.0003135    0.0004718   -0.0014929
h     2.6504752   -0.7143034   -1.6083993  0.00   -0.0010392    0.0013548    0.0008863
c    -0.1961467   -2.5179262   -0.7198969  0.00   -0.0078582   -0.0093497    0.0712449
o    -0.0395328   -2.6890325    0.6163222  0.00   -0.0026405    0.0105158   -0.0555200
o    -1.3730939   -2.8596974   -1.3593398  0.00    0.0126433    0.0041448   -0.0049833
h    -1.2230439   -2.6204403   -2.3460435  0.00    0.2102475    0.1296313   -0.0721815
n     0.3517149   -1.5731743   -2.9013091  0.00   -0.2063350   -0.1279235    0.0635599
h     1.5655086   -2.9020342   -1.7639978  0.00   -0.0023025    0.0025263   -0.0023195
h     0.3939643   -0.5341263   -3.0070814  0.00    0.0000361   -0.0041925    0.0047573
h     0.9541002   -1.9408439   -3.6724141  0.00   -0.0036622    0.0017373    0.0063220
    24
 Energy =       0.1245671967
c     1.5059186    2.5968447    0.3558839  0.00    0.0090515    0.0145135    0.0049127
c     0.1944760    2.8880639    0.1657881  0.00   -0.0002162    0.0173399    0.0017131
c    -0.6410019    1.9556929   -0.3674744  0.00   -0.0178430    0.0081444   -0.0004615
c     1.9935019    1.3766413   -0.0110641  0.00    0.0133966   -0.0020585    0.0018782
c     1.1695097    0.4252923   -0.5610428  0.00    0.0010553   -0.0188061   -0.0057045
c    -0.1625822    0.7243564   -0.7222297  0.00   -0.0062164   -0.0117014   -0.0063226
o    -0.2933320    4.1412839    0.5141255  0.00   -0.0009329   -0.0241578    0.0427778
h    -0.5919877    4.6410618   -0.3463681  0.00   -0.0005542    0.0165919   -0.0401388
h    -0.8626878    0.0062585   -1.1360792  0.00   -0.0008469   -0.0001438   -0.0018889
h     3.0516132    1.1688332    0.1362260  0.00    0.0010527    0.0000879   -0.0000610
h     2.1627443    3.3462443    0.7898367  0.00    0.0031610    0.0006134    0.0005125
h    -1.6919781    2.1956165   -0.4966558  0.00   -0.0006277    0.0004561   -0.0003022
c     1.8120223   -0.8975983   -0.9697129  0.00   -0.0037650   -0.0059868    0.0048219
c     0.9471906   -1.9916922   -1.6404602  0.00    0.0039321   -0.0031354   -0.0118634
h     2.2759179   -1.3401319   -0.0585643  0.00   -0.0000610    0.0000047   -0.0008920
h     2.6471681   -0.6632192   -1.6658438  0.00   -0.0004056    0.0013945    0.0002539
c    -0.1703910   -2.5091787   -0.7580139  0.00   -0.0076282   -0.0089304    0.0685667
o    -0.0046810   -2.6963154    0.5761794  0.00   -0.0025074    0.0100957   -0.0533785
o    -1.3492039   -2.8505851   -1.3941815  0.00    0.0121976    0.0039881   -0.0047786
h    -1.1993919   -2.6175593   -2.3820338  0.00    0.2030485    0.1251830   -0.0697309
n     0.3773250   -1.5657931   -2.9431695  0.00   -0.2022167   -0.1258846    0.0642756
h     1.5926194   -2.8853475   -1.8006620  0.00   -0.0022091    0.0023953   -0.0021970
h     0.3565321   -0.5218471   -3.0243140  0.00   -0.0001716   -0.0001874    0.0048909
h     1.0248217   -1.8753179   -3.7068295  0.00   -0.0006934    0.0001839    0.0031167
    24
 Energy =       0.1112785386
c     1.4784666    2.5713632    0.4223671  0.00    0.0063430    0.0106567    0.0037541
c     0.1718967    2.8626503    0.2157111  0.00    0.0002034    0.0121556    0.0007999
c    -0.6475075    1.9410710   -0.3572855  0.00   -0.0125776    0.0052923   -0.0006571
c     1.9800144    1.3682607    0.0269496  0.00    0.0094725   -0.0011553    0.0013548
c     1.1725843    0.4302429   -0.5631095  0.00    0.0001336   -0.0130983   -0.0039865
c    -0.1570381    0.7246338   -0.7358078  0.00   -0.0044063   -0.0086014   -0.0043925
o    -0.3230015    4.1077751    0.5911628  0.00    0.0044072   -0.0226807    0.0425463
h    -0.7507408    4.5795051   -0.2302453  0.00   -0.0052413    0.0178808   -0.0399794
h    -0.8468246    0.0131845   -1.1772744  0.00   -0.0008637   -0.0005335   -0.0013821
h     3.0372617    1.1637834    0.1833487  0.00    0.0008463    0.0001560   -0.0001134
h     2.1220053    3.3130186    0.8881212  0.00    0.0025430    0.0009253    0.0005277
h    -1.6981492    2.1761552   -0.4958833  0.00   -0.0005213    0.0002936   -0.0000519
c     1.8311982   -0.8731161   -1.0103023  0.00   -0.0028998   -0.0047176    0.0029114
c     0.9697384   -1.9731759   -1.6774730  0.00    0.0024600   -0.0020421   -0.0080237
h     2.3206001   -1.3237691   -0.1157663  0.00    0.0001441   -0.0003345   -0.0002989
h     2.6484856   -0.6129424   -1.7192360  0.00    0.0000997    0.0010303   -0.0002966
c    -0.1466129   -2.4968123   -0.7962483  0.00   -0.0050912   -0.0061530    0.0465135
o     0.0236759   -2.6715630    0.5492952  0.00   -0.0016112    0.0070034   -0.0361643
o    -1.3295048   -2.8553077   -1.4185928  0.00    0.0081369    0.0025921   -0.0031113
h    -1.1946909   -2.6401407   -2.4099884  0.00    0.1478564    0.0911214   -0.0509130
n     0.4156958   -1.5528770   -2.9877957  0.00   -0.1484054   -0.0926246    0.0480202
h     1.6208934   -2.8651167   -1.8295650  0.00   -0.0014832    0.0015835   -0.0015206
h     0.3518160   -0.5089370   -3.0584313  0.00   -0.0004290    0.0015007    0.0036118
h     1.0938609   -1.8262819   -3.7406109  0.00    0.0008839   -0.0002508    0.0008516
    24
 Energy =       0.1041044073
c     1.4074524    2.5599888    0.4931601  0.00    0.0070952    0.0091032    0.0040709
c     0.1124225    2.8513657    0.2198654  0.00    0.0000943    0.0107571    0.0009233
c    -0.6701637    1.9389237   -0.4196978  0.00   -0.0117874    0.0031636   -0.0016564
c     1.9367491    1.3697632    0.0982823  0.00    0.0092605    0.0001456    0.0019593
c     1.1668584    0.4423136   -0.5557933  0.00    0.0006883   -0.0113133   -0.0032053
c    -0.1529823    0.7348546   -0.7984570  0.00   -0.0056565   -0.0073100   -0.0042319
o    -0.4046135    4.0886850    0.5973151  0.00    0.0063381   -0.0203212    0.0389619
h    -0.9094940    4.5298219   -0.1943002  0.00   -0.0069567    0.0169079   -0.0366987
h    -0.8130322    0.0300518   -1.2973335  0.00   -0.0023335   -0.0016422   -0.0021201
h     2.9865822    1.1675424    0.3066535  0.00    0.0021539    0.0002972    0.0003977
h     2.0212789    3.2946408    1.0100780  0.00    0.0033564    0.0017924    0.0012711
h    -1.7141342    2.1706953   -0.6128634  0.00   -0.0020349    0.0001790   -0.0004702
c     1.8567660   -0.8427722   -1.0086163  0.00   -0.0022783   -0.0043222    0.0021524
c     1.0145202   -1.9564232   -1.6790905  0.00    0.0020040   -0.0014774   -0.0064128
h     2.3537515   -1.2888870   -0.1158068  0.00    0.0001415   -0.0003501   -0.0002027
h     2.6697357   -0.5613738   -1.7144801  0.00    0.0002323    0.0009007   -0.0004416
c    -0.1031799   -2.4872659   -0.8018597  0.00   -0.0039385   -0.0048092    0.0371249
o     0.0676670   -2.6576769    0.5486697  0.00   -0.0012605    0.0055871   -0.0287514
o    -1.2833117   -2.8658556   -1.4198700  0.00    0.0063003    0.0019632   -0.0025088
h    -1.1583628   -2.6596361   -2.4125205  0.00    0.1204785    0.0741882   -0.0415413
n     0.4716553   -1.5457343   -2.9978321  0.00   -0.1276838   -0.0813161    0.0466359
h     1.6790579   -2.8416787   -1.8167181  0.00   -0.0010821    0.0009730   -0.0011234
h     0.5055310   -0.4988984   -3.1198281  0.00   -0.0000907    0.0108624    0.0020921
h     1.1033693   -1.9208408   -3.7556165  0.00    0.0069596   -0.0039588   -0.0062247
    24
 Energy =       0.0961058398
c     1.3484714    2.5519087    0.5368952  0.00    0.0055346    0.0068598    0.0034136
c     0.0607801    2.8363131    0.2290048  0.00    0.0002324    0.0081009    0.0007284
c    -0.6911082    1.9275254   -0.4506466  0.00   -0.0089119    0.0017784   -0.0016849
c     1.9026889    1.3762493    0.1367499  0.00    0.0071794    0.0004929    0.0016910
c     1.1639495    0.4542628   -0.5565894  0.00    0.0003541   -0.0084626   -0.0024191
c    -0.1496266    0.7375564   -0.8348959  0.00   -0.0046278   -0.0056055   -0.0033250
o    -0.4763254    4.0644644    0.6143245  0.00    0.0088195   -0.0174691    0.0343525
h    -1.0682471    4.4689976   -0.1322700  0.00   -0.0092281    0.0155464   -0.0324850
h    -0.7859240    0.0346949   -1.3660957  0.00   -0.0022105   -0.0016791   -0.0018762
h     2.9479313    1.1816066    0.3728197  0.00    0.0019868    0.0002950    0.0004435
h     1.9376780    3.2835835    1.0852535  0.00    0.0028873    0.0017976    0.0012834
h    -1.7312417    2.1499519   -0.6723186  0.00   -0.0019476    0.0000970   -0.0004398
c     1.8807042   -0.8133988   -1.0170869  0.00   -0.0015906   -0.0033896    0.0014583
c     1.0559098   -1.9406256   -1.6883667  0.00    0.0011851   -0.0010864   -0.0044911
h     2.3874440   -1.2544669   -0.1271098  0.00    0.0001353   -0.0003419   -0.0001085
h     2.6874842   -0.5129981   -1.7221522  0.00    0.0003225    0.0007023   -0.0004321
c    -0.0602856   -2.4811008   -0.8121636  0.00   -0.0026348   -0.0033190    0.0262440
o     0.1159396   -2.6441779    0.5437188  0.00   -0.0008368    0.0039766   -0.0202205
o    -1.2405507   -2.8811374   -1.4189726  0.00    0.0042051    0.0012110   -0.0016387
h    -1.1311568   -2.6909054   -2.4142685  0.00    0.0896189    0.0551349   -0.0310233
n     0.5266107   -1.5401612   -3.0157638  0.00   -0.0950050   -0.0604922    0.0347904
h     1.7334291   -2.8184617   -1.8139564  0.00   -0.0006583    0.0005424   -0.0008078
h     0.5801876   -0.4978613   -3.1566425  0.00   -0.0001103    0.0082521    0.0013868
h     1.1493808   -1.9402154   -3.7661272  0.00    0.0053005   -0.0029419   -0.0048399
    24
 Energy =       0.0895842496
c     1.2846575    2.5459006    0.5749172  0.00    0.0041813    0.0050745    0.0028611
c     0.0042763    2.8209459    0.2334652  0.00    0.0003430    0.0059736    0.0006639
c    -0.7139430    1.9153309   -0.4853523  0.00   -0.0065511    0.0006966   -0.0016787
c     1.8658910    1.3855041    0.1716040  0.00    0.0055186    0.0006895    0.0014807
c     1.1609843    0.4680715   -0.5594466  0.00    0.0001528   -0.0062364   -0.0018088
c    -0.1454546    0.7409090   -0.8744969  0.00   -0.0037623   -0.0042711   -0.0026552
o    -0.5561420    4.0379115    0.6264396  0.00    0.0107099   -0.0144100    0.0293411
h    -1.2270002    4.4017450   -0.0691786  0.00   -0.0110190    0.0138372   -0.0277989
h    -0.7552917    0.0399843   -1.4380886  0.00   -0.0020768   -0.0016992   -0.0017118
h     2.9057798    1.1996384    0.4360440  0.00    0.0018346    0.0002776    0.0004834
h     1.8470183    3.2748934    1.1537474  0.00    0.0024585    0.0017675    0.0012939
h    -1.7494681    2.1269906   -0.7362663  0.00   -0.0018694   -0.0000025   -0.0004365
c     1.9058633   -0.7820474   -1.0234573  0.00   -0.0009884   -0.0026097    0.0009319
c     1.0998669   -1.9242938   -1.6940320  0.00    0.0005570   -0.0007783   -0.0029738
h     2.4215278   -1.2154777   -0.1347453  0.00    0.0001379   -0.0003265   -0.0000368
h     2.7067337   -0.4638246   -1.7272854  0.00    0.0003605    0.0005392   -0.0003949
c    -0.0151121   -2.4728671   -0.8175613  0.00   -0.0015405   -0.0021652    0.0177563
o     0.1647159   -2.6208432    0.5436710  0.00   -0.0004759    0.0027501   -0.0134819
o    -1.1937612   -2.8993857   -1.4123787  0.00    0.0024723    0.0005831   -0.0009343
h    -1.1011236   -2.7292143   -2.4107395  0.00    0.0643822    0.0395770   -0.0225435
n     0.5847193   -1.5361302   -3.0307780  0.00   -0.0686240   -0.0436756    0.0254223
h     1.7905738   -2.7942261   -1.8057816  0.00   -0.0003207    0.0001913   -0.0005485
h     0.6644653   -0.4995926   -3.1942203  0.00   -0.0000944    0.0065344    0.0007709
h     1.1943464   -1.9683184   -3.7727397  0.00    0.0042139   -0.0023172   -0.0040020
    24
 Energy =       0.0838732522
c     1.2167453    2.5607425    0.5753213  0.00    0.0031308    0.0031579    0.0023420
c    -0.0509578    2.8273621    0.1848794  0.00   -0.0000475    0.0040250    0.0003805
c    -0.7292633    1.9213762   -0.5707737  0.00   -0.0045214   -0.0001045   -0.0016721
c     1.8247375    1.4088807    0.1903869  0.00    0.0041400    0.0005668    0.0012110
c     1.1590618    0.4908539   -0.5733058  0.00    0.0006025   -0.0041020   -0.0009814
c    -0.1333933    0.7569748   -0.9451291  0.00   -0.0035032   -0.0025517   -0.0020579
o    -0.6352227    4.0378338    0.5678932  0.00    0.0128562   -0.0110250    0.0239975
h    -1.3857533    4.3436730   -0.0681797  0.00   -0.0131045    0.0114865   -0.0227512
h    -0.7117949    0.0554710   -1.5397055  0.00   -0.0020865   -0.0012951   -0.0014237
h     2.8541284    1.2297892    0.4979301  0.00    0.0020716    0.0001120    0.0006075
h     1.7474886    3.2902014    1.1820179  0.00    0.0020376    0.0015239    0.0012196
h    -1.7551815    2.1238958   -0.8654491  0.00   -0.0021636   -0.0000290   -0.0005605
c     1.9296760   -0.7533925   -1.0107938  0.00   -0.0001400   -0.0012332    0.0005861
c     1.1398030   -1.9254754   -1.6514596  0.00   -0.0000312   -0.0007057   -0.0003737
h     2.4516884   -1.1590142   -0.1122776  0.00    0.0002823   -0.0003586    0.0003506
h     2.7259569   -0.4364139   -1.7198294  0.00    0.0002325    0.0003851   -0.0002291
c     0.0048748   -2.4403459   -0.7745007  0.00    0.0002728   -0.0009819    0.0062831
o     0.1433898   -2.4784173    0.6077649  0.00    0.0011999    0.0020871    0.0011126
o    -1.1490296   -2.9429482   -1.3666357  0.00   -0.0007867   -0.0007943    0.0000531
h    -1.0514388   -2.8450682   -2.3742554  0.00    0.0406838    0.0252850   -0.0184757
n     0.6669778   -1.5913225   -3.0197274  0.00   -0.0453228   -0.0273515    0.0147469
h     1.8351649   -2.7988660   -1.7079696  0.00    0.0006662   -0.0011679   -0.0002800
h     0.7559443   -0.5639149   -3.2264237  0.00   -0.0000824    0.0052987   -0.0000829
h     1.2905208   -2.0602713   -3.7264380  0.00    0.0036136   -0.0022279   -0.0040023
    24
 Energy =       0.0806369902
c     1.1431572    2.5522590    0.6139907  0.00    0.0019407    0.0025252    0.0018730
c    -0.1222149    2.7986651    0.2056241  0.00    0.0003838    0.0027445    0.0005980
c    -0.7631224    1.8945895   -0.5838333  0.00   -0.0031013   -0.0003853   -0.0013677
c     1.7845932    1.4226375    0.2179352  0.00    0.0030878    0.0004851    0.0010100
c     1.1558622    0.5071765   -0.5781025  0.00    0.0001784   -0.0030358   -0.0008849
c    -0.1325477    0.7537301   -0.9724923  0.00   -0.0022494   -0.0023220   -0.0017294
o    -0.7405348    3.9878764    0.6057069  0.00    0.0114725   -0.0075389    0.0183808
h    -1.5445064    4.2501498    0.0230503  0.00   -0.0121297    0.0093520   -0.0171861
h    -0.6805603    0.0532452   -1.5961039  0.00   -0.0016158   -0.0015241   -0.0014295
h     2.8107333    1.2594700    0.5429688  0.00    0.0015603    0.0001134    0.0004985
h     1.6442198    3.2800573    1.2469346  0.00    0.0015620    0.0015140    0.0011867
h    -1.7861845    2.0798490   -0.8972411  0.00   -0.0016734   -0.0001368   -0.0004792
c     1.9597294   -0.7115526   -1.0278781  0.00    0.0000725   -0.0011839    0.0001691
c     1.1933553   -1.8968563   -1.6743841  0.00   -0.0000410   -0.0002315   -0.0005858
h     2.4948922   -1.1120595   -0.1348703  0.00    0.0002521   -0.0003972    0.0002583
h     2.7462792   -0.3682106   -1.7357562  0.00    0.0004157    0.0003577   -0.0003967
c     0.0765634   -2.4419106   -0.7867877  0.00    0.0002821   -0.0003281    0.0032929
o     0.2467996   -2.5007916    0.5915520  0.00    0.0006337    0.0010970    0.0016014
o    -1.0845455   -2.9602112   -1.3519814  0.00   -0.0011049   -0.0009090    0.0008339
h    -1.0224695   -2.8670601   -2.3600496  0.00    0.0265576    0.0163424   -0.0124223
n     0.7119501   -1.5594320   -3.0388319  0.00   -0.0314532   -0.0182661    0.0116886
h     1.9093411   -2.7527412   -1.7389788  0.00    0.0006227   -0.0010537   -0.0001056
h     0.8515896   -0.5415847   -3.2665001  0.00    0.0001902    0.0057248   -0.0002215
h     1.2917435   -2.0756911   -3.7506314  0.00    0.0041567   -0.0029436   -0.0045824
    24
 Energy =       0.0786885943
c     1.0653528    2.5461309    0.6464464  0.00    0.0011398    0.0021448    0.0015558
c    -0.2004157    2.7664647    0.2259156  0.00    0.0006096    0.0018426    0.0006835
c    -0.8036578    1.8626239   -0.5925764  0.00   -0.0022694   -0.0003553   -0.0010714
c     1.7427739    1.4420459    0.2382810  0.00    0.0024440    0.0002659    0.0008078
c     1.1511478    0.5269933   -0.5852096  0.00   -0.0000298   -0.0023246   -0.0008429
c    -0.1356568    0.7487033   -0.9963826  0.00   -0.0013221   -0.0022197   -0.0015679
o    -0.8566385    3.9299566    0.6439561  0.00    0.0098672   -0.0046976    0.0140108
h    -1.7032596    4.1457474    0.1092173  0.00   -0.0110277    0.0075075   -0.0127749
h    -0.6529362    0.0479159   -1.6449660  0.00   -0.0011670   -0.0016548   -0.0014472
h     2.7674493    1.2991100    0.5761499  0.00    0.0012407    0.0000669    0.0004130
h     1.5365126    3.2736903    1.3018311  0.00    0.0011741    0.0014524    0.0011270
h    -1.8255424    2.0269340   -0.9199441  0.00   -0.0013427   -0.0001520   -0.0004216
c     1.9911537   -0.6621402   -1.0481783  0.00    0.0003103   -0.0011054   -0.0001474
c     1.2526741   -1.8646997   -1.6970445  0.00    0.0001879    0.0003408   -0.0006574
h     2.5442195   -1.0534828   -0.1619276  0.00    0.0003148   -0.0004942    0.0002569
h     2.7636329   -0.2897955   -1.7571547  0.00    0.0006130    0.0004013   -0.0005565
c     0.1645029   -2.4474065   -0.7924050  0.00    0.0001879    0.0000166    0.0013710
o     0.3756959   -2.5267006    0.5797268  0.00    0.0002925    0.0004137    0.0023272
o    -1.0044085   -2.9841655   -1.3256010  0.00   -0.0015557   -0.0011354    0.0017537
h    -0.9850471   -2.8896502   -2.3334288  0.00    0.0169090    0.0102661   -0.0088710
n     0.7485282   -1.5261262   -3.0534051  0.00   -0.0236466   -0.0118162    0.0109595
h     1.9947666   -2.6970829   -1.7763925  0.00    0.0008606   -0.0012236    0.0001528
h     0.9481135   -0.5242297   -3.3106518  0.00    0.0007728    0.0072817   -0.0003591
h     1.2651619   -2.0992324   -3.7729161  0.00    0.0054367   -0.0048215   -0.0067016
    24
 Energy =       0.0778021666
c     0.9979607    2.5451966    0.6627599  0.00    0.0007250    0.0019975    0.0014077
c    -0.2742415    2.7339548    0.2464061  0.00    0.0005654    0.0012897    0.0005890
c    -0.8485691    1.8272368   -0.5889904  0.00   -0.0020671    0.0000439   -0.0007489
c     1.7091366    1.4693693    0.2360664  0.00    0.0022467   -0.0001338    0.0005468
c     1.1460572    0.5514331   -0.6034112  0.00   -0.0001640   -0.0018812   -0.0008300
c    -0.1457916    0.7423014   -1.0129389  0.00   -0.0007628   -0.0021850   -0.0015258
o    -0.9663365    3.8691006    0.6860971  0.00    0.0080866   -0.0027724    0.0113553
h    -1.8404470    4.0461451    0.1858929  0.00   -0.0098674    0.0062496   -0.0100511
h    -0.6397395    0.0382863   -1.6753095  0.00   -0.0008389   -0.0015772   -0.0013143
h     2.7375497    1.3516962    0.5721051  0.00    0.0012105   -0.0000612    0.0003508
h     1.4460970    3.2749359    1.3312837  0.00    0.0008816    0.0013145    0.0010023
h    -1.8743316    1.9665353   -0.9154866  0.00   -0.0012682   -0.0000241   -0.0003641
c     2.0208705   -0.6029867   -1.0901756  0.00    0.0003336   -0.0009233   -0.0005402
c     1.3083339   -1.8341486   -1.7160757  0.00    0.0009592    0.0008549    0.0000024
h     2.6143958   -0.9736077   -0.2201452  0.00    0.0009347   -0.0009941    0.0008913
h     2.7597168   -0.2001187   -1.8192115  0.00    0.0012657    0.0008476   -0.0010477
c     0.2673690   -2.4506741   -0.7741964  0.00    0.0004414    0.0002725    0.0004319
o     0.5344490   -2.5279600    0.5891103  0.00    0.0002998   -0.0000272    0.0036569
o    -0.9078994   -3.0220579   -1.2589639  0.00   -0.0031078   -0.0020373    0.0027270
h    -0.9376903   -2.9338378   -2.2664626  0.00    0.0118245    0.0071694   -0.0079448
n     0.7566484   -1.5158856   -3.0600705  0.00   -0.0197705   -0.0077632    0.0093113
h     2.0792924   -2.6385821   -1.8130273  0.00    0.0014052   -0.0015404    0.0006192
h     0.9873069   -0.5317936   -3.3574723  0.00    0.0011334    0.0073801   -0.0004359
h     1.2139856   -2.1329344   -3.7844439  0.00    0.0055337   -0.0054994   -0.0080890
    24
 Energy =       0.0771670131
c     0.9148846    2.5285410    0.7189182  0.00    0.0007667    0.0019378    0.0014646
c    -0.3508247    2.6984251    0.2753660  0.00    0.0005095    0.0011745    0.0006359
c    -0.8879519    1.7921998   -0.5853524  0.00   -0.0020018   -0.0001849   -0.0009029
c     1.6553650    1.4707310    0.2975578  0.00    0.0022641    0.0000587    0.0007573
c     1.1297099    0.5534921   -0.5667072  0.00   -0.0002875   -0.0019276   -0.0005837
c    -0.1548730    0.7263795   -1.0062326  0.00   -0.0008998   -0.0019635   -0.0015236
o    -1.0744191    3.8141813    0.7142705  0.00    0.0064280   -0.0016011    0.0091899
h    -1.9579930    3.9601837    0.2242997  0.00   -0.0081641    0.0050829   -0.0078485
h    -0.6187061    0.0237038   -1.6916881  0.00   -0.0009824   -0.0016360   -0.0015006
h     2.6771228    1.3667186    0.6579798  0.00    0.0013194   -0.0000204    0.0004554
h     1.3333844    3.2579106    1.4070361  0.00    0.0009317    0.0014257    0.0011627
h    -1.9075879    1.9171571   -0.9362039  0.00   -0.0013624   -0.0000817   -0.0004739
c     2.0366854   -0.5813471   -1.0396998  0.00    0.0001909    0.0005581    0.0011276
c     1.3677459   -1.7969214   -1.7452916  0.00    0.0016287   -0.0005637   -0.0006668
h     2.5851548   -0.9731731   -0.1483989  0.00    0.0014257   -0.0006770    0.0020888
h     2.8125961   -0.1518797   -1.7159082  0.00    0.0027128    0.0014488   -0.0021511
c     0.3084133   -2.4742863   -0.8633343  0.00    0.0001881    0.0001995    0.0000377
o     0.5384865   -2.6092049    0.5034434  0.00    0.0003559   -0.0005226    0.0057280
o    -0.8450495   -3.0430059   -1.4047714  0.00   -0.0044510   -0.0028611    0.0031631
h    -0.8561597   -2.9138181   -2.4084949  0.00    0.0086327    0.0053100   -0.0077153
n     0.8537320   -1.4245987   -3.0907813  0.00   -0.0165523   -0.0073478    0.0055890
h     2.1579113   -2.5806801   -1.8551912  0.00    0.0012361   -0.0016188   -0.0001176
h     1.1460600   -0.4504617   -3.3699382  0.00    0.0013682    0.0088084   -0.0015830
h     1.2804359   -2.0586424   -3.8175373  0.00    0.0047429   -0.0049984   -0.0063332
    24
 Energy =       0.0763067141
c     0.8415647    2.5037816    0.7528720  0.00    0.0007803    0.0019362    0.0015862
c    -0.4142599    2.6614842    0.2777540  0.00    0.0005780    0.0011339    0.0008240