    27
 Energy =       0.2827958744
c    -1.4235396    2.6054793   -0.0667700  0.00   -0.0462190    0.0382612    0.0027331
c    -1.3072796    1.2134697   -0.1072300  0.00   -0.0853602   -0.0325526    0.0020072
c    -0.0178900    0.6711998   -0.1697000  0.00   -0.0893333   -0.1876145   -0.0011496
c    -0.2940599    3.4190890   -0.0891300  0.00   -0.0232056    0.0690626    0.0029243
c     0.9872197    2.8590292   -0.1560400  0.00    0.0106359    0.0639566    0.0010483
c     1.1340797    1.4562096   -0.1970299  0.00    0.0525569    0.0523030    0.0020442
n     0.3879399   -0.6395298   -0.2140799  0.00    0.1491884    0.1078287   -0.0038516
c     2.2666594    0.5727398   -0.2659299  0.00    0.1428334   -0.0594541   -0.0189648
c     1.7555995   -0.7123598   -0.2706899  0.00   -0.0796468   -0.1035462    0.0004539
h    -0.2400399   -1.4313496   -0.2047299  0.00    0.0363344    0.0480097   -0.0002600
c     3.7030089    1.0223397   -0.3320099  0.00    0.0052618   -0.0055602   -0.0239956
c     4.7465686   -0.0024900    0.1378100  0.00    0.0764579    0.1390409   -0.0213495
h     3.7978489    1.9290294    0.2803699  0.00   -0.0051495   -0.0065692   -0.0123729
h     3.9233889    1.3348996   -1.3618196  0.00   -0.0028238   -0.0023841    0.0146803
c     4.8964886   -1.0916697   -0.9404947  0.00   -0.2647178   -0.3116282   -0.0938428
n     4.3764788   -0.6892298    1.4261196  0.00    0.0198774   -0.0942409    0.0524490
h     5.7313184    0.4619039    0.2668599  0.00   -0.0148449   -0.0249733    0.0109404
h     4.2447788   -1.6827795    1.2102197  0.00    0.0215746    0.0448298   -0.0342236
h     5.2037485   -0.6771758    2.0330494  0.00   -0.0236616   -0.0013518   -0.0284346
h    -2.4108593    3.0588691   -0.0157800  0.00   -0.0009629    0.0003290    0.0000609
h    -2.1896094    0.5822398   -0.0890100  0.00   -0.0036649    0.0037445    0.0000926
h    -0.4052699    4.5000487   -0.0535400  0.00    0.0008559    0.0003928    0.0003040
h     1.8590495    3.5066790   -0.1715100  0.00   -0.0005048    0.0025415    0.0006654
h     2.2327294   -1.6813195   -0.3062999  0.00    0.0305072   -0.0179254   -0.0350412
o     4.0245989   -1.8702095   -1.2891796  0.00    0.1222314    0.2113354    0.1274729
o     6.1470682   -1.0846497   -1.4758196  0.00   -0.0107483    0.0353849    0.0369824
h     6.5037381   -1.9948194   -1.3055496  0.00   -0.0174718    0.0307798    0.0186272
    27
 Energy =       0.2774369404
c    -1.3583410    2.7168196   -0.0968142  0.00   -0.0448770    0.0368862    0.0026506
c    -1.2761956    1.3244009   -0.1311993  0.00   -0.0824724   -0.0316641    0.0019844
c    -0.0032991    0.7510931   -0.1952802  0.00   -0.0859248   -0.1793891   -0.0011470
c    -0.2087139    3.5004272   -0.1232277  0.00   -0.0223873    0.0668381    0.0028322
c     1.0581400    2.9076155   -0.1887125  0.00    0.0105638    0.0617920    0.0009921
c     1.1682703    1.5026616   -0.2263787  0.00    0.0503866    0.0507261    0.0018990
n     0.3552681   -0.5715936   -0.2137498  0.00    0.1433692    0.1029035   -0.0036448
c     2.2736552    0.5851330   -0.2858910  0.00    0.1364591   -0.0570480   -0.0182435
c     1.7222922   -0.6828066   -0.2831854  0.00   -0.0763275   -0.0999040    0.0004527
h    -0.3041846   -1.3401021   -0.1875028  0.00    0.0339228    0.0450219   -0.0001863
c     3.7329936    0.9680894   -0.3226178  0.00    0.0051658   -0.0037297   -0.0234038
c     4.7165296   -0.1122152    0.1747500  0.00    0.0740473    0.1327654   -0.0220143
h     3.8571324    1.8713534    0.2908465  0.00   -0.0048931   -0.0058115   -0.0118103
h     3.9935307    1.2648424   -1.3491420  0.00   -0.0023951   -0.0017933    0.0133341
c     4.8558119   -1.2070983   -0.9025347  0.00   -0.2568920   -0.2990794   -0.0872339
n     4.2792676   -0.7787956    1.4518895  0.00    0.0158919   -0.0917060    0.0505987
h     5.7223638    0.3031508    0.3330801  0.00   -0.0124558   -0.0231562    0.0104803
h     4.1335653   -1.7725254    1.2419546  0.00    0.0207468    0.0428149   -0.0325707
h     5.0696246   -0.7674602    2.1098892  0.00   -0.0204651   -0.0016150   -0.0249790
h    -2.3341517    3.1951145   -0.0450133  0.00   -0.0012907    0.0004785    0.0000775
h    -2.1737114    0.7144432   -0.1041832  0.00   -0.0038404    0.0033453    0.0001058
h    -0.2922041    4.5843470   -0.0907460  0.00    0.0007861    0.0007946    0.0003051
h     1.9473312    3.5318137   -0.2050880  0.00   -0.0001064    0.0026951    0.0006301
h     2.1722802   -1.6617752   -0.2987110  0.00    0.0277716   -0.0174941   -0.0327244
o     3.9632658   -1.9692089   -1.2625191  0.00    0.1195022    0.2020100    0.1205677
o     6.0793012   -1.1664912   -1.5014697  0.00   -0.0078853    0.0361893    0.0326338
h     6.4839407   -2.0555893   -1.3163573  0.00   -0.0164006    0.0271294    0.0184138
    27
 Energy =       0.2713263300
c    -1.4234008    2.6067682   -0.0912777  0.00   -0.0443301    0.0362797    0.0026150
c    -1.3071334    1.2158935   -0.1278408  0.00   -0.0811669   -0.0312913    0.0019798
c    -0.0201175    0.6737484   -0.1881562  0.00   -0.0844730   -0.1751424   -0.0010244
c    -0.2939774    3.4194802   -0.1143078  0.00   -0.0219150    0.0659040    0.0027867
c     0.9858310    2.8588978   -0.1773701  0.00    0.0108030    0.0607415    0.0009486
c     1.1293048    1.4582352   -0.2143391  0.00    0.0491666    0.0502704    0.0018467
n     0.3819876   -0.6431540   -0.2198740  0.00    0.1395030    0.1006525   -0.0037579
c     2.2608406    0.5798169   -0.2687750  0.00    0.1331740   -0.0556818   -0.0176173
c     1.7560631   -0.7063598   -0.2585439  0.00   -0.0742039   -0.0980794    0.0004460
h    -0.2464154   -1.4396403   -0.2115563  0.00    0.0321757    0.0427305   -0.0001669
c     3.7012279    1.0307072   -0.3190505  0.00    0.0051144   -0.0023773   -0.0232729
c     4.7434484   -0.0051227    0.1429877  0.00    0.0728597    0.1292124   -0.0231394
h     3.7917855    1.9280359    0.3107260  0.00   -0.0049484   -0.0049349   -0.0113414
h     3.9316874    1.3609748   -1.3437879  0.00   -0.0018985   -0.0012792    0.0122308
c     4.9002265   -1.0895869   -0.9386058  0.00   -0.2566821   -0.2905123   -0.0814328
n     4.3693752   -0.6921931    1.4316181  0.00    0.0125262   -0.0909436    0.0500195
h     5.7318131    0.4619039    0.2738646  0.00   -0.0105246   -0.0216633    0.0102414
h     4.2293547   -1.6862124    1.2162766  0.00    0.0204195    0.0417428   -0.0317072
h     5.1981292   -0.6871130    2.0447150  0.00   -0.0178483   -0.0019074   -0.0224995
h    -2.4112593    3.0607365   -0.0421097  0.00   -0.0016228    0.0006319    0.0000940
h    -2.1895209    0.5836735   -0.1069786  0.00   -0.0040807    0.0030371    0.0001149
h    -0.4048046    4.5012676   -0.0813140  0.00    0.0007371    0.0011757    0.0003105
h     1.8594930    3.5053250   -0.1910608  0.00    0.0002403    0.0028453    0.0006124
h     2.2496656   -1.6691543   -0.2534913  0.00    0.0264094   -0.0181895   -0.0308756
o     4.0267708   -1.8828661   -1.2915698  0.00    0.1189852    0.1961407    0.1158447
o     6.1625279   -1.1018981   -1.4630392  0.00   -0.0032908    0.0368216    0.0282226
h     6.5208600   -2.0065204   -1.2450533  0.00   -0.0151288    0.0238163    0.0185217
    27
 Energy =       0.2445731956
c    -1.4593562    2.5141584   -0.0971141  0.00   -0.0357934    0.0295178    0.0021604
c    -1.3202761    1.1310861   -0.1370431  0.00   -0.0658744   -0.0253329    0.0017240
c    -0.0330439    0.6115753   -0.1871389  0.00   -0.0685440   -0.1413525    0.0001314
c    -0.3463003    3.3417185   -0.1118873  0.00   -0.0175750    0.0535076    0.0022791
c     0.9348703    2.8025439   -0.1667366  0.00    0.0092892    0.0490942    0.0007325
c     1.0913915    1.4136878   -0.2011904  0.00    0.0392794    0.0415427    0.0015686
n     0.3857536   -0.7108490   -0.2432100  0.00    0.1096209    0.0815960   -0.0049622
c     2.2328256    0.5788693   -0.2405044  0.00    0.1077195   -0.0449642   -0.0139999
c     1.7749620   -0.7170361   -0.2199850  0.00   -0.0586867   -0.0779138    0.0012869
h    -0.2196427   -1.5333388   -0.2690527  0.00    0.0250698    0.0329795   -0.0004953
c     3.6573876    1.0829608   -0.3078738  0.00    0.0037330   -0.0010191   -0.0188062
c     4.7529891    0.0823882    0.1006837  0.00    0.0594601    0.1039353   -0.0207728
h     3.7302169    1.9641726    0.3512133  0.00   -0.0043260   -0.0033288   -0.0088833
h     3.8519958    1.4518707   -1.3304863  0.00   -0.0011814   -0.0004021    0.0087474
c     4.9410855   -0.9876411   -0.9846287  0.00   -0.2168573   -0.2307290   -0.0629214
n     4.4451067   -0.6030777    1.4026844  0.00    0.0071550   -0.0749850    0.0415967
h     5.7204631    0.6081690    0.1969312  0.00   -0.0066813   -0.0160348    0.0084155
h     4.2927685   -1.6023287    1.2012891  0.00    0.0165490    0.0335912   -0.0263949
h     5.3083932   -0.5952265    1.9749119  0.00   -0.0124089   -0.0016305   -0.0168785
h    -2.4546622    2.9521765   -0.0554385  0.00   -0.0014841    0.0006057    0.0000902
h    -2.1912319    0.4829484   -0.1299694  0.00   -0.0035551    0.0023214    0.0000973
h    -0.4740105    4.4216598   -0.0792172  0.00    0.0006056    0.0011041    0.0002566
h     1.8001174    3.4601133   -0.1739441  0.00    0.0003923    0.0022651    0.0004910
h     2.3272560   -1.6506637   -0.1699630  0.00    0.0232211   -0.0170208   -0.0234493
o     4.0660807   -1.8267124   -1.3364960  0.00    0.0978579    0.1564365    0.0926780
o     6.2397612   -1.0751535   -1.4274479  0.00   -0.0000385    0.0387719    0.0156500
h     6.5788620   -1.9624275   -1.0863002  0.00   -0.0069467    0.0074445    0.0196581
    27
 Energy =       0.2387155885
c    -1.4117383    2.6028937   -0.1473173  0.00   -0.0326189    0.0264048    0.0019629
c    -1.3022583    1.2210742   -0.2040214  0.00   -0.0594746   -0.0232459    0.0015942
c    -0.0304255    0.6752651   -0.2373586  0.00   -0.0605976   -0.1252547    0.0009676
c    -0.2809205    3.4035115   -0.1336468  0.00   -0.0157470    0.0484590    0.0020071
c     0.9869242    2.8360904   -0.1710958  0.00    0.0086482    0.0443500    0.0005740
c     1.1092799    1.4478098   -0.2174573  0.00    0.0352107    0.0377759    0.0013470
n     0.3460119   -0.6583389   -0.3350013  0.00    0.0939226    0.0728707   -0.0058209
c     2.2274981    0.5893580   -0.2331226  0.00    0.0967916   -0.0403261   -0.0126801
c     1.7378065   -0.6926126   -0.2211591  0.00   -0.0487954   -0.0686935    0.0023801
h    -0.2846976   -1.4636393   -0.4184096  0.00    0.0201715    0.0269713   -0.0010025
c     3.6711736    1.0483197   -0.2695808  0.00    0.0036674   -0.0005493   -0.0168295
c     4.7363823    0.0039400    0.1219229  0.00    0.0537579    0.0927374   -0.0186751
h     3.7643142    1.9091679    0.4157097  0.00   -0.0035813   -0.0024264   -0.0075329
h     3.8893925    1.4362273   -1.2815500  0.00   -0.0010789   -0.0000814    0.0073941
c     4.9005897   -1.0778985   -0.9609975  0.00   -0.1947168   -0.2074492   -0.0556765
n     4.4175463   -0.6562969    1.4305606  0.00    0.0060619   -0.0667142    0.0374807
h     5.7205739    0.5039158    0.2068253  0.00   -0.0054617   -0.0141163    0.0074394
h     4.2528790   -1.6594333    1.2497193  0.00    0.0148067    0.0296869   -0.0237048
h     5.2734441   -0.6400668    2.0158484  0.00   -0.0109643   -0.0015632   -0.0149126
h    -2.3979268    3.0626211   -0.1192129  0.00   -0.0017290    0.0006199    0.0000921
h    -2.1871344    0.5913121   -0.2284244  0.00   -0.0038202    0.0015818    0.0000583
h    -0.3844401    4.4859437   -0.0907399  0.00    0.0005531    0.0013674    0.0002388
h     1.8684586    3.4723548   -0.1525692  0.00    0.0009372    0.0024576    0.0004374
h     2.2695707   -1.6322728   -0.1170160  0.00    0.0212718   -0.0162307   -0.0203820
o     3.9945128   -1.9109473   -1.2960422  0.00    0.0880010    0.1393642    0.0826067
o     6.1948837   -1.2167263   -1.4062306  0.00   -0.0040393    0.0510849    0.0037705
h     6.5520625   -2.0459286   -0.9275470  0.00   -0.0011765   -0.0090810    0.0268660
    27
 Energy =       0.2370268134
c    -1.3803233    2.6612641   -0.1757038  0.00   -0.0323804    0.0260266    0.0019331
c    -1.2873397    1.2796218   -0.2507225  0.00   -0.0587703   -0.0231875    0.0015457
c    -0.0227161    0.7187987   -0.2732636  0.00   -0.0593525   -0.1226273    0.0011887
c    -0.2395729    3.4470011   -0.1361343  0.00   -0.0153808    0.0480016    0.0019754
c     1.0216847    2.8638595   -0.1615193  0.00    0.0087165    0.0438734    0.0005537
c     1.1266422    1.4750778   -0.2233576  0.00    0.0347128    0.0375204    0.0012948
n     0.3349063   -0.6162200   -0.4079911  0.00    0.0902026    0.0717010   -0.0061846
c     2.2324046    0.6000905   -0.2244683  0.00    0.0953391   -0.0398081   -0.0124951
c     1.7211672   -0.6733931   -0.2274278  0.00   -0.0460013   -0.0670548    0.0028157
h    -0.3066798   -1.4085516   -0.5394515  0.00    0.0184955    0.0249855   -0.0012986
c     3.6862646    1.0314739   -0.2251399  0.00    0.0038897   -0.0003759   -0.0164706
c     4.7271884   -0.0427028    0.1574915  0.00    0.0530717    0.0911119   -0.0183459
h     3.7838846    1.8735616    0.4831111  0.00   -0.0033123   -0.0020690   -0.0071447
h     3.9294143    1.4390239   -1.2241952  0.00   -0.0010304    0.0002094    0.0067811
c     4.8731641   -1.1276736   -0.9275397  0.00   -0.1917788   -0.2043218   -0.0548054
n     4.3935702   -0.6977770    1.4646383  0.00    0.0058267   -0.0658159    0.0369363
h     5.7237833    0.4334967    0.2442013  0.00   -0.0050431   -0.0137571    0.0073376
h     4.2264311   -1.7010839    1.2858519  0.00    0.0145816    0.0292395   -0.0233333
h     5.2429570   -0.6819649    2.0597308  0.00   -0.0106990   -0.0015629   -0.0146078
h    -2.3610882    3.1331180   -0.1565827  0.00   -0.0018523    0.0006240    0.0000903
h    -2.1796771    0.6613519   -0.3020119  0.00   -0.0041405    0.0012637    0.0000310
h    -0.3298810    4.5301913   -0.0807394  0.00    0.0005865    0.0015289    0.0002433
h     1.9114668    3.4880212   -0.1196838  0.00    0.0012492    0.0026529    0.0004426
h     2.2328988   -1.6197763   -0.0893385  0.00    0.0214213   -0.0165511   -0.0198980
o     3.9492825   -1.9428689   -1.2667957  0.00    0.0866696    0.1368897    0.0812813
o     6.1610853   -1.2836148   -1.3845561  0.00   -0.0097798    0.0696654   -0.0035508
h     6.4628451   -2.2046817   -1.0263162  0.00    0.0047587   -0.0281625    0.0336842
    27
 Energy =       0.2326241043
c    -1.4242503    2.5766327   -0.1398381  0.00   -0.0322995    0.0257419    0.0019023
c    -1.3073946    1.1951406   -0.1912947  0.00   -0.0582109   -0.0233328    0.0014585
c    -0.0330331    0.6564076   -0.2246310  0.00   -0.0579978   -0.1194702    0.0012457
c    -0.2976785    3.3838778   -0.1304862  0.00   -0.0149503    0.0477637    0.0019516
c     0.9727160    2.8236359   -0.1680255  0.00    0.0089396    0.0435533    0.0005440
c     1.1015424    1.4364064   -0.2098880  0.00    0.0341933    0.0375308    0.0012101
n     0.3492307   -0.6797322   -0.3099555  0.00    0.0851695    0.0703364   -0.0062614
c     2.2254175    0.5885111   -0.2253316  0.00    0.0939523   -0.0391840   -0.0122872
c     1.7482663   -0.6985411   -0.2104000  0.00   -0.0422432   -0.0649586    0.0032078
h    -0.2784087   -1.4934725   -0.3806984  0.00    0.0160053    0.0218879   -0.0015303
c     3.6655775    1.0647104   -0.2636807  0.00    0.0042388    0.0003043   -0.0160541
c     4.7431200    0.0311911    0.1248182  0.00    0.0524610    0.0893717   -0.0177924
h     3.7519386    1.9249577    0.4248770  0.00   -0.0030177   -0.0016907   -0.0068198
h     3.8775437    1.4590406   -1.2759732  0.00   -0.0010110    0.0005674    0.0061133
c     4.9227759   -1.0396821   -0.9636959  0.00   -0.1890687   -0.2012220   -0.0537443
n     4.4276473   -0.6393253    1.4289590  0.00    0.0053946   -0.0649421    0.0365469
h     5.7220256    0.5433773    0.2148516  0.00   -0.0042745   -0.0131491    0.0071729
h     4.2645249   -1.6420211    1.2412745  0.00    0.0143285    0.0286987   -0.0229868
h     5.2859122   -0.6275546    2.0118606  0.00   -0.0103979   -0.0016217   -0.0142207
h    -2.4133009    3.0308533   -0.1116038  0.00   -0.0020811    0.0006594    0.0000915
h    -2.1893892    0.5594360   -0.2102908  0.00   -0.0046715    0.0007624    0.0000108
h    -0.4068859    4.4662945   -0.0911934  0.00    0.0006303    0.0018430    0.0002502
h     1.8515057    3.4652300   -0.1534687  0.00    0.0017330    0.0029769    0.0004424
h     2.2956868   -1.6334977   -0.1166523  0.00    0.0219676   -0.0175775   -0.0192518
o     4.0225109   -1.8791259   -1.3146208  0.00    0.0852698    0.1343405    0.0794565
o     6.2183313   -1.1588259   -1.4144229  0.00   -0.0088548    0.0689095   -0.0039800
h     6.5378308   -2.0782811   -1.0684034  0.00    0.0047955   -0.0280990    0.0333246
    27
 Energy =       0.2238208828
c    -1.4553337    2.5016905   -0.1007660  0.00   -0.0300591    0.0238607    0.0017479
c    -1.3183570    1.1225993   -0.1301610  0.00   -0.0539300   -0.0219063    0.0012448
c    -0.0387998    0.6025459   -0.1737698  0.00   -0.0531071   -0.1088734    0.0007614
c    -0.3418902    3.3249137   -0.1195214  0.00   -0.0135763    0.0444274    0.0018289
c     0.9335871    2.7833307   -0.1683416  0.00    0.0085611    0.0404034    0.0005406
c     1.0799945    1.4001007   -0.1917829  0.00    0.0315045    0.0351451    0.0010825
n     0.3624862   -0.7351166   -0.2109682  0.00    0.0751125    0.0645172   -0.0051915
c     2.2156610    0.5785224   -0.2207901  0.00    0.0867412   -0.0361223   -0.0112397
c     1.7703253   -0.7182590   -0.1914204  0.00   -0.0359875   -0.0586818    0.0028137
h    -0.2513220   -1.5660720   -0.2219453  0.00    0.0127707    0.0175918   -0.0013605
c     3.6424755    1.0922729   -0.2920758  0.00    0.0042152    0.0009086   -0.0146206
c     4.7522313    0.0936290    0.0936382  0.00    0.0484578    0.0822663   -0.0162182
h     3.7198390    1.9633259    0.3850089  0.00   -0.0026592   -0.0013939   -0.0062267
h     3.8261223    1.4797345   -1.3136148  0.00   -0.0009240    0.0007819    0.0052387
c     4.9660918   -0.9553220   -1.0036944  0.00   -0.1750503   -0.1856008   -0.0490530
n     4.4557871   -0.5925503    1.3927558  0.00    0.0045294   -0.0600562    0.0339223
h     5.7131269    0.6403514    0.1873598  0.00   -0.0033301   -0.0117119    0.0065394
h     4.2904520   -1.5945431    1.1966344  0.00    0.0131469    0.0263724   -0.0212981
h     5.3235131   -0.5879443    1.9633834  0.00   -0.0094088   -0.0015942   -0.0129318
h    -2.4506099    2.9415178   -0.0639452  0.00   -0.0021003    0.0006344    0.0000856
h    -2.1905543    0.4728434   -0.1186506  0.00   -0.0048029    0.0002951    0.0000085
h    -0.4664505    4.4062176   -0.0952246  0.00    0.0006333    0.0019537    0.0002378
h     1.8030363    3.4379550   -0.1793074  0.00    0.0019989    0.0030182    0.0004108
h     2.3507813   -1.6391850   -0.1406444  0.00    0.0214065   -0.0174568   -0.0176497
o     4.0828621   -1.8183702   -1.3729000  0.00    0.0784509    0.1235240    0.0727785
o     6.2636193   -1.0324941   -1.4637764  0.00   -0.0077433    0.0661084   -0.0051680
h     6.5950883   -1.9660510   -1.1733941  0.00    0.0051500   -0.0284111    0.0317161
    27
 Energy =       0.2124770600
c    -1.4654754    2.4586665   -0.0699994  0.00   -0.0257222    0.0204427    0.0014892
c    -1.3181906    1.0836408   -0.0874881  0.00   -0.0461581   -0.0188000    0.0009926
c    -0.0397751    0.5734490   -0.1358116  0.00   -0.0453821   -0.0928607    0.0002991
c    -0.3598667    3.2876465   -0.1036595  0.00   -0.0115172    0.0380602    0.0015993
c     0.9152151    2.7549186   -0.1576595  0.00    0.0074367    0.0345737    0.0005082
c     1.0671173    1.3770037   -0.1706069  0.00    0.0268596    0.0302325    0.0009261
n     0.3671194   -0.7669973   -0.1512591  0.00    0.0632160    0.0551417   -0.0039228
c     2.2046970    0.5736487   -0.2067815  0.00    0.0741607   -0.0308725   -0.0095280
c     1.7792111   -0.7264009   -0.1729959  0.00   -0.0300375   -0.0497553    0.0021449
h    -0.2385615   -1.6065889   -0.1329008  0.00    0.0104555    0.0143927   -0.0010768
c     3.6241391    1.1068697   -0.2961727  0.00    0.0036287    0.0010262   -0.0123910
c     4.7542627    0.1258370    0.0748709  0.00    0.0414490    0.0703464   -0.0138539
h     3.6992466    1.9769907    0.3836874  0.00   -0.0022797   -0.0011744   -0.0053333
h     3.7890853    1.4989642   -1.3201583  0.00   -0.0007772    0.0007778    0.0043164
c     4.9928783   -0.8998708   -1.0344099  0.00   -0.1505900   -0.1586495   -0.0410186
n     4.4755649   -0.5701996    1.3694528  0.00    0.0035030   -0.0514032    0.0291577
h     5.7023433    0.6967635    0.1690374  0.00   -0.0025761   -0.0097923    0.0055386
h     4.2997010   -1.5717715    1.1699630  0.00    0.0111784    0.0224544   -0.0184568
h     5.3524700   -0.5745500    1.9287288  0.00   -0.0078375   -0.0014367   -0.0109037
h    -2.4633955    2.8915831   -0.0293276  0.00   -0.0018339    0.0005524    0.0000716
h    -2.1844065    0.4268950   -0.0609201  0.00   -0.0042318    0.0001530    0.0000049
h    -0.4915663    4.3681149   -0.0880769  0.00    0.0005610    0.0017402    0.0002082
h     1.7802793    3.4144830   -0.1826839  0.00    0.0018273    0.0026359    0.0003576
h     2.3814370   -1.6346108   -0.1481487  0.00    0.0190879   -0.0154944   -0.0151583
o     4.1121605   -1.7786597   -1.4241092  0.00    0.0668211    0.1054971    0.0619275
o     6.2852822   -0.9437795   -1.5183374  0.00   -0.0085361    0.0651594   -0.0071402
h     6.6127906   -1.9064026   -1.3321473  0.00    0.0072945   -0.0329474    0.0292416
    27
 Energy =       0.2033196004
c    -1.4702327    2.4281011   -0.0443868  0.00   -0.0215515    0.0171647    0.0012464
c    -1.3160689    1.0569893   -0.0581325  0.00   -0.0387284   -0.0157624    0.0008077
c    -0.0398131    0.5536261   -0.1078918  0.00   -0.0381128   -0.0779185    0.0001606
c    -0.3701286    3.2600128   -0.0830850  0.00   -0.0096316    0.0319290    0.0013543
c     0.9037028    2.7329920   -0.1385097  0.00    0.0062900    0.0289855    0.0004379
c     1.0579063    1.3598777   -0.1478322  0.00    0.0224617    0.0254403    0.0007656
n     0.3685948   -0.7895438   -0.1208301  0.00    0.0527850    0.0462853   -0.0031458
c     2.1951367    0.5703822   -0.1880378  0.00    0.0622034   -0.0258754   -0.0079294
c     1.7835820   -0.7310965   -0.1581039  0.00   -0.0251493   -0.0416136    0.0017381
h    -0.2318836   -1.6347931   -0.0948742  0.00    0.0087324    0.0119937   -0.0008842
c     3.6098823    1.1170763   -0.2832470  0.00    0.0029036    0.0009331   -0.0103303
c     4.7557526    0.1448859    0.0629465  0.00    0.0348347    0.0590548   -0.0116988
h     3.6838266    1.9771982    0.4107794  0.00   -0.0019575   -0.0008704   -0.0043949
h     3.7613171    1.5258360   -1.3037738  0.00   -0.0006225    0.0007726    0.0034149
c     5.0102797   -0.8545508   -1.0635637  0.00   -0.1271690   -0.1330029   -0.0335232
n     4.4970025   -0.5645114    1.3513569  0.00    0.0024390   -0.0430224    0.0246804
h     5.6939202    0.7339940    0.1569094  0.00   -0.0020141   -0.0080511    0.0045767
h     4.3053850   -1.5639543    1.1458629  0.00    0.0092979    0.0186174   -0.0157765
h     5.3851072   -0.5837297    1.8953972  0.00   -0.0061732   -0.0013096   -0.0088599
h    -2.4698246    2.8564748   -0.0027421  0.00   -0.0015493    0.0004719    0.0000598
h    -2.1780564    0.3955623   -0.0276196  0.00   -0.0035738    0.0001159    0.0000025
h    -0.5063192    4.3397778   -0.0708839  0.00    0.0004752    0.0014769    0.0001765
h     1.7661179    3.3952151   -0.1690378  0.00    0.0015634    0.0022075    0.0003018
h     2.4010690   -1.6288130   -0.1512601  0.00    0.0165216   -0.0133295   -0.0127621
o     4.1276025   -1.7435715   -1.4721073  0.00    0.0558415    0.0884643    0.0516810
o     6.2947223   -0.8690383   -1.5743465  0.00   -0.0090293    0.0626147   -0.0077651
h     6.6151825   -1.8487558   -1.4909004  0.00    0.0089128   -0.0357717    0.0256661
    27
 Energy =       0.1967873548
c    -1.4754779    2.3995504   -0.0205152  0.00   -0.0181465    0.0144874    0.0010488
c    -1.3147936    1.0318396   -0.0385473  0.00   -0.0326464   -0.0132832    0.0006926
c    -0.0398217    0.5351276   -0.0876941  0.00   -0.0321609   -0.0656305    0.0001983
c    -0.3802355    3.2347186   -0.0547835  0.00   -0.0080942    0.0269186    0.0011296
c     0.8931264    2.7134009   -0.1090548  0.00    0.0053483    0.0244270    0.0003484
c     1.0500921    1.3443263   -0.1224480  0.00    0.0188864    0.0215181    0.0006134
n     0.3704943   -0.8098637   -0.1109283  0.00    0.0444153    0.0389584   -0.0026967
c     2.1876434    0.5670629   -0.1654697  0.00    0.0524208   -0.0217990   -0.0065862
c     1.7878391   -0.7358717   -0.1486376  0.00   -0.0212773   -0.0350206    0.0015250
h    -0.2255735   -1.6601403   -0.0915544  0.00    0.0073358    0.0100417   -0.0007556
c     3.5983599    1.1274229   -0.2527042  0.00    0.0021252    0.0006736   -0.0086516
c     4.7587855    0.1591885    0.0559924  0.00    0.0294242    0.0498762   -0.0100162
h     3.6689684    1.9664342    0.4688517  0.00   -0.0017216   -0.0002782   -0.0033472
h     3.7397284    1.5688671   -1.2622361  0.00   -0.0004401    0.0009503    0.0023225
c     5.0216873   -0.8050245   -1.0971472  0.00   -0.1081463   -0.1120115   -0.0274607
n     4.5243430   -0.5751482    1.3328620  0.00    0.0009555   -0.0357123    0.0211957
h     5.6882764    0.7630710    0.1525284  0.00   -0.0015971   -0.0065802    0.0037442
h     4.3081110   -1.5681402    1.1120173  0.00    0.0076212    0.0149920   -0.0137310
h     5.4280119   -0.6229312    1.8525473  0.00   -0.0040830   -0.0013663   -0.0066753
h    -2.4768519    2.8233511    0.0202803  0.00   -0.0013171    0.0004055    0.0000513
h    -2.1730394    0.3658990   -0.0130962  0.00   -0.0030368    0.0000815    0.0000037
h    -0.5208095    4.3137346   -0.0400830  0.00    0.0004034    0.0012586    0.0001476
h     1.7531442    3.3784167   -0.1369613  0.00    0.0013364    0.0018534    0.0002503
h     2.4171894   -1.6247354   -0.1588477  0.00    0.0142795   -0.0115384   -0.0107378
o     4.1377291   -1.7010087   -1.5241423  0.00    0.0469483    0.0745042    0.0432116
o     6.2952269   -0.7848746   -1.6384890  0.00   -0.0087542    0.0591419   -0.0077477
h     6.6116092   -1.7690293   -1.6496535  0.00    0.0099214   -0.0368684    0.0219231
    27
 Energy =       0.1936562250
c    -1.4820691    2.3732531    0.0014416  0.00   -0.0162947    0.0129486    0.0009392
c    -1.3156477    1.0079686   -0.0369771  0.00   -0.0291391   -0.0120471    0.0006599
c    -0.0403257    0.5174966   -0.0818183  0.00   -0.0287092   -0.0582208    0.0003555
c    -0.3904528    3.2122300   -0.0091828  0.00   -0.0070619    0.0241668    0.0009724
c     0.8837853    2.6965902   -0.0578266  0.00    0.0048710    0.0219909    0.0002648
c     1.0442046    1.3302651   -0.0914127  0.00    0.0169122    0.0193588    0.0004964
n     0.3731493   -0.8274548   -0.1353809  0.00    0.0395111    0.0343291   -0.0025867
c     2.1836156    0.5627381   -0.1360569  0.00    0.0466668   -0.0195464   -0.0056194
c     1.7922860   -0.7419286   -0.1516640  0.00   -0.0189854   -0.0312611    0.0015059
h    -0.2195717   -1.6817337   -0.1447284  0.00    0.0061638    0.0083709   -0.0007095
c     3.5910031    1.1385007   -0.1880472  0.00    0.0011910   -0.0001152   -0.0076609
c     4.7652717    0.1674959    0.0581297  0.00    0.0260320    0.0447754   -0.0094133
h     3.6531131    1.9332717    0.5863479  0.00   -0.0016026    0.0014905   -0.0014370
h     3.7281366    1.6441967   -1.1704651  0.00   -0.0001090    0.0020302    0.0000410
c     5.0226693   -0.7416692   -1.1399867  0.00   -0.0980756   -0.1000692   -0.0239848
n     4.5643888   -0.6165297    1.3108845  0.00   -0.0035319   -0.0283034    0.0196852
h     5.6879557    0.7811338    0.1637790  0.00   -0.0013593   -0.0054051    0.0031429
h     4.2943123   -1.5903476    1.0542209  0.00    0.0056268    0.0099038   -0.0137611
h     5.4947143   -0.7311382    1.7794931  0.00    0.0017073   -0.0025065   -0.0026669
h    -2.4854025    2.7925143    0.0382842  0.00   -0.0012047    0.0003536    0.0000479
h    -2.1711133    0.3379583   -0.0333052  0.00   -0.0028899   -0.0001173    0.0000074
h    -0.5351069    4.2904163    0.0203761  0.00    0.0003931    0.0012543    0.0001298
h     1.7420110    3.3645523   -0.0668582  0.00    0.0013471    0.0017799    0.0002125
h     2.4284330   -1.6251824   -0.1819479  0.00    0.0129073   -0.0106527   -0.0093979
o     4.1420770   -1.6429658   -1.5830415  0.00    0.0419217    0.0662976    0.0380839
o     6.2778967   -0.6697066   -1.7237648  0.00   -0.0068803    0.0561806   -0.0086196
h     6.6044291   -1.6462817   -1.8084066  0.00    0.0105924   -0.0369863    0.0193123
    27
 Energy =       0.1868666655
c    -1.4931647    2.3306588    0.0029665  0.00   -0.0124414    0.0098856    0.0007214
c    -1.3133293    0.9695031   -0.0146216  0.00   -0.0221151   -0.0093331    0.0004084
c    -0.0378407    0.4915369   -0.0626312  0.00   -0.0218028   -0.0438197   -0.0000798
c    -0.4111931    3.1779775   -0.0304561  0.00   -0.0051534    0.0184896    0.0008056
c     0.8642737    2.6738360   -0.0828214  0.00    0.0038211    0.0168357    0.0002877
c     1.0338190    1.3123779   -0.0959370  0.00    0.0128342    0.0148118    0.0004465
n     0.3839003   -0.8550931   -0.0871987  0.00    0.0294497    0.0256002   -0.0015849
c     2.1756901    0.5624572   -0.1397434  0.00    0.0354916   -0.0147500   -0.0041651
c     1.8046978   -0.7447217   -0.1318238  0.00   -0.0139012   -0.0235351    0.0009599
h    -0.1991370   -1.7181520   -0.0671547  0.00    0.0042255    0.0056284   -0.0004682
c     3.5772986    1.1493311   -0.2193805  0.00    0.0008463   -0.0002357   -0.0057145
c     4.7577025    0.1923933    0.0515780  0.00    0.0195050    0.0334545   -0.0074390
h     3.6394597    1.9663527    0.5322745  0.00   -0.0011145    0.0015089   -0.0007577
h     3.7046791    1.6250211   -1.2183538  0.00   -0.0000848    0.0018524   -0.0004955
c     5.0549259   -0.7169019   -1.1366150  0.00   -0.0737550   -0.0766337   -0.0178138