    13
 Energy =       0.1138229105
c    -3.7133889    1.6950595    0.3173519  0.00   -0.1076853    0.0679488    0.0085493
c    -2.4962693    2.6345192    0.2419999  0.00    0.3648247   -0.0031197    0.1395078
c    -4.9565486    2.3924193   -0.2155699  0.00    0.0455012    0.0225307    0.0037146
h    -4.7854386    2.7464192   -1.2386596  0.00    0.0002283   -0.0014746    0.0209018
h    -5.2149185    3.2645991    0.3947669  0.00    0.0030106   -0.0120173   -0.0116897
h    -5.8205083    1.7195795   -0.2420919  0.00    0.0112659    0.0109024   -0.0051138
n    -3.4097890    0.4519539   -0.4549189  0.00    0.0255171   -0.0693505   -0.0100321
h    -3.8575589    1.4177196    1.3669296  0.00    0.0058164   -0.0117914   -0.0255312
h    -3.2072391   -0.2948399    0.2179739  0.00   -0.0178876    0.0290969   -0.0193272
h    -4.2689788    0.1396900   -0.9176007  0.00    0.0229760    0.0216245    0.0246106
o    -1.4040496    2.4172293    0.7380088  0.00   -0.2619291    0.0448276   -0.1307822
o    -2.7835192    3.7545589   -0.4737969  0.00   -0.0689133   -0.0631531    0.0081093
h    -2.5521993    4.5104687    0.1222010  0.00   -0.0227248   -0.0360243   -0.0029173
    13
 Energy =       0.0928361829
c    -3.6913463    1.7013016    0.3087788  0.00   -0.0661956    0.0414453    0.0041328
c    -2.4864453    2.6360785    0.1730982  0.00    0.2222310    0.0016227    0.0878643
c    -4.9515465    2.3836027   -0.2155426  0.00    0.0359418    0.0127756    0.0040890
h    -4.8145181    2.6233573   -1.2913647  0.00    0.0039304    0.0005961    0.0053074
h    -5.1406105    3.3378326    0.3187894  0.00    0.0022856    0.0002562   -0.0030653
h    -5.8402475    1.7280855   -0.0984827  0.00   -0.0006432    0.0002914   -0.0010853
n    -3.4277685    0.4327347   -0.4234210  0.00    0.0173418   -0.0430455   -0.0075105
h    -3.8064792    1.4828638    1.3852872  0.00    0.0035121   -0.0070646   -0.0134214
h    -3.2510560   -0.3132449    0.2715481  0.00   -0.0111561    0.0168546   -0.0110279
h    -4.2798949    0.1298478   -0.9252344  0.00    0.0126925    0.0135237    0.0143065
o    -1.3369614    2.3855928    0.6889036  0.00   -0.1599861    0.0269201   -0.0798618
o    -2.7325796    3.7897410   -0.5239201  0.00   -0.0471458   -0.0739627   -0.0352667
h    -2.7109524    4.5315828    0.1881541  0.00   -0.0128083    0.0097872    0.0355389
    13
 Energy =       0.0851269189
c    -3.7062273    1.7160656    0.3259033  0.00   -0.0536494    0.0351638    0.0036654
c    -2.5022722    2.6431320    0.1532496  0.00    0.1777598    0.0016588    0.0720630
c    -4.9678358    2.3708511   -0.2370267  0.00    0.0291992    0.0102584    0.0034094
h    -4.8275491    2.5600428   -1.3241735  0.00    0.0033115    0.0007940    0.0030528
h    -5.1579725    3.3514134    0.2512608  0.00    0.0018023    0.0015392   -0.0019431
h    -5.8553991    1.7194537   -0.0890280  0.00   -0.0007734   -0.0001976   -0.0007658
n    -3.4432186    0.4116441   -0.3402881  0.00    0.0150660   -0.0357970   -0.0093472
h    -3.8274065    1.5579196    1.4156013  0.00    0.0026759   -0.0057695   -0.0090179
h    -3.3001399   -0.3076358    0.3958177  0.00   -0.0085348    0.0115931   -0.0067184
h    -4.2785292    0.0960411   -0.8678149  0.00    0.0094664    0.0107920    0.0110663
o    -1.3250683    2.3751343    0.6499639  0.00   -0.1280334    0.0215182   -0.0650053
o    -2.7265883    3.7896235   -0.5704797  0.00   -0.0406416   -0.0753980   -0.0432080
h    -2.5521993    4.5656908    0.0936082  0.00   -0.0076485    0.0238448    0.0427489
    13
 Energy =       0.0830936192
c    -3.7169943    1.7379362    0.3446713  0.00   -0.0490407    0.0349521    0.0039334
c    -2.5034668    2.6451228    0.1329679  0.00    0.1613391    0.0016720    0.0657862
c    -4.9668057    2.3632848   -0.2815039  0.00    0.0257893    0.0093393    0.0034670
h    -4.8051662    2.4884133   -1.3771184  0.00    0.0032190    0.0010684    0.0005703
h    -5.1633191    3.3730632    0.1459969  0.00    0.0011214    0.0034212   -0.0010082
h    -5.8590534    1.7234248   -0.1112311  0.00   -0.0008722   -0.0004917   -0.0005002
n    -3.4532191    0.3891786   -0.2326525  0.00    0.0151462   -0.0347901   -0.0139561
h    -3.8576252    1.6545651    1.4432377  0.00    0.0020577   -0.0052707   -0.0052519
h    -3.3498644   -0.2871343    0.5545708  0.00   -0.0070898    0.0072372   -0.0024086
h    -4.2719124    0.0521345   -0.7751936  0.00    0.0080377    0.0094051    0.0095399
o    -1.3154269    2.3638138    0.6170175  0.00   -0.1160559    0.0196217   -0.0593028
o    -2.7104870    3.7785957   -0.6194778  0.00   -0.0369073   -0.0694482   -0.0409707
h    -2.4970658    4.5669779    0.0153092  0.00   -0.0067446    0.0232837    0.0401018
    13
 Energy =       0.0796698422
c    -3.7073745    1.7161548    0.3278517  0.00   -0.0425759    0.0340229    0.0044140
c    -2.5055317    2.6401016    0.1304786  0.00    0.1447404    0.0013676    0.0591973
c    -4.9864890    2.3770139   -0.2060756  0.00    0.0207193    0.0088782    0.0037965
h    -4.8750446    2.5656864   -1.3016640  0.00    0.0029769    0.0015163   -0.0026198
h    -5.1631368    3.3617409    0.2888018  0.00    0.0001854    0.0053812    0.0002410
h    -5.8701616    1.7263590   -0.0319704  0.00   -0.0009737   -0.0004015   -0.0002459
n    -3.4638920    0.4049282   -0.3420652  0.00    0.0154299   -0.0329655   -0.0179509
h    -3.8043016    1.5632325    1.4276637  0.00    0.0016250   -0.0049137   -0.0013036
h    -3.3262231   -0.3238486    0.3958177  0.00   -0.0054508    0.0028238    0.0014010
h    -4.3003955    0.1016400   -0.8806884  0.00    0.0064512    0.0075913    0.0075831
o    -1.3062950    2.3527527    0.6055226  0.00   -0.1038719    0.0174469   -0.0531018
o    -2.7203625    3.7944031   -0.5908267  0.00   -0.0341252   -0.0641773   -0.0398600
h    -2.4411983    4.5692119    0.0337483  0.00   -0.0051305    0.0234298    0.0384492
    13
 Energy =       0.0736358650
c    -3.7024872    1.7048384    0.3192082  0.00   -0.0290351    0.0263465    0.0037062
c    -2.5045394    2.6257239    0.0980998  0.00    0.1052064    0.0018707    0.0444664
c    -5.0116883    2.3933552   -0.1113002  0.00    0.0123465    0.0072380    0.0036662
h    -4.9673090    2.6237738   -1.2053975  0.00    0.0021014    0.0015646   -0.0049007
h    -5.1501456    3.3588505    0.4326470  0.00   -0.0004814    0.0056188    0.0012918
h    -5.8876728    1.7407243    0.0931199  0.00   -0.0014107   -0.0002090   -0.0000138
n    -3.5101489    0.4202147   -0.4112592  0.00    0.0133915   -0.0253907   -0.0159807
h    -3.7390220    1.5124016    1.4193534  0.00    0.0012382   -0.0034897    0.0017797
h    -3.3620449   -0.3473645    0.2865612  0.00   -0.0035216    0.0000845    0.0026798
h    -4.3632089    0.1575510   -0.9509010  0.00    0.0036480    0.0046930    0.0043697
o    -1.2784949    2.3091594    0.5397899  0.00   -0.0744436    0.0119057   -0.0391691
o    -2.7111989    3.7948706   -0.6079105  0.00   -0.0330200   -0.0623819   -0.0424712
h    -2.2824452    4.5552774   -0.0454167  0.00    0.0039806    0.0321495    0.0405757
    13
 Energy =       0.0700244864
c    -3.6972013    1.7015921    0.3183373  0.00   -0.0191617    0.0207700    0.0044488
c    -2.4840799    2.5857368    0.0328259  0.00    0.0726856    0.0023628    0.0323371
c    -5.0189909    2.4361379   -0.0005538  0.00    0.0049463    0.0051929    0.0031934
h    -5.0483060    2.6916340   -1.0907182  0.00    0.0011009    0.0013024   -0.0064642
h    -5.0905487    3.3904736    0.5768707  0.00   -0.0008537    0.0061230    0.0026965
h    -5.8969900    1.8016946    0.2518730  0.00   -0.0025315   -0.0002970    0.0001296
n    -3.6006743    0.4271914   -0.4462793  0.00    0.0130549   -0.0211564   -0.0139825
h    -3.6609555    1.4918127    1.4174463  0.00    0.0011390   -0.0017057    0.0043197
h    -3.4599023   -0.3665953    0.2239161  0.00   -0.0022241   -0.0011528    0.0024774
h    -4.4834807    0.2188002   -0.9678844  0.00   -0.0001555    0.0022004    0.0010746
o    -1.2353312    2.2195931    0.4209670  0.00   -0.0485863    0.0074138   -0.0280332
o    -2.6669425    3.7557248   -0.6838158  0.00   -0.0283441   -0.0543722   -0.0384915
h    -2.1270028    4.4955804   -0.1963908  0.00    0.0089303    0.0333186    0.0362944
    13
 Energy =       0.0706294170
c    -3.6937418    1.7081394    0.3289960  0.00   -0.0192843    0.0210124    0.0064768
c    -2.4631042    2.5443721   -0.0289857  0.00    0.0721723    0.0001626    0.0331197
c    -5.0046317    2.4828956    0.0577012  0.00    0.0038025    0.0047836    0.0031225
h    -5.0711494    2.7264090   -1.0342464  0.00    0.0010156    0.0011802   -0.0071417
h    -5.0215461    3.4456260    0.6274939  0.00   -0.0008897    0.0071916    0.0035627
h    -5.8927065    1.8795853    0.3533328  0.00   -0.0037942   -0.0008249    0.0004157
n    -3.6742042    0.4182186   -0.4182561  0.00    0.0150013   -0.0229989   -0.0149851
h    -3.6148717    1.5156395    1.4299787  0.00    0.0010514   -0.0012154    0.0053944
h    -3.5277097   -0.3693160    0.2581076  0.00   -0.0022419   -0.0012712    0.0025060
h    -4.5882066    0.2297664   -0.8951515  0.00   -0.0024026    0.0011609   -0.0003144
o    -1.2145997    2.1597152    0.3451680  0.00   -0.0468861    0.0076825   -0.0276364
o    -2.6248148    3.6770979   -0.8124005  0.00   -0.0267223   -0.0502233   -0.0403642
h    -2.0791199    4.4312274   -0.3551439  0.00    0.0091781    0.0333598    0.0358439
    13
 Energy =       0.0690607873
c    -3.7021772    1.6996032    0.3156523  0.00   -0.0171035    0.0179061    0.0067517
c    -2.4715414    2.5615175    0.0179346  0.00    0.0644327   -0.0034733    0.0325206
c    -5.0171462    2.4600099    0.0265119  0.00    0.0030947    0.0039585    0.0030226
h    -5.0594772    2.7268952   -1.0606885  0.00    0.0009339    0.0010856   -0.0068880
h    -5.0614054    3.4100864    0.6154288  0.00   -0.0007581    0.0068506    0.0035041
h    -5.9031805    1.8376157    0.2878366  0.00   -0.0039748   -0.0010841    0.0005573
n    -3.6458123    0.4281400   -0.4597323  0.00    0.0157312   -0.0197257   -0.0137572
h    -3.6521565    1.4825252    1.4137092  0.00    0.0008798   -0.0010065    0.0054814
h    -3.5371729   -0.3759452    0.2053580  0.00   -0.0018458   -0.0020927    0.0033880
h    -4.5319313    0.2522573   -0.9947885  0.00   -0.0049245    0.0000680   -0.0021495
o    -1.2193554    2.1360275    0.3522328  0.00   -0.0400089    0.0047135   -0.0235716
o    -2.6325703    3.7626698   -0.6664701  0.00   -0.0268523   -0.0392907   -0.0428873
h    -2.0364796    4.4679738   -0.1963908  0.00    0.0103954    0.0320907    0.0340279
    13
 Energy =       0.0694733445
c    -3.7268214    1.6971285    0.3136639  0.00   -0.0172983    0.0163313    0.0072425
c    -2.4451267    2.4981675    0.0494125  0.00    0.0606672   -0.0031685    0.0319425
c    -4.9991046    2.5228123    0.0017842  0.00    0.0021314    0.0051429    0.0026168
h    -5.0048379    2.8031552   -1.0833082  0.00    0.0006828    0.0014847   -0.0074039
h    -5.0129508    3.4685423    0.5995682  0.00   -0.0007401    0.0072121    0.0035385
h    -5.9195047    1.9383193    0.2368094  0.00   -0.0051851   -0.0019251    0.0008280
n    -3.7154950    0.4279344   -0.4678695  0.00    0.0199809   -0.0152691   -0.0144903
h    -3.7098894    1.4705921    1.4111669  0.00    0.0009561   -0.0014132    0.0059160
h    -3.6959260   -0.3888188    0.1964698  0.00   -0.0016411   -0.0073147    0.0071519
h    -4.5838264    0.3155564   -1.0531263  0.00   -0.0094719   -0.0002815   -0.0050865
o    -1.2197409    1.9809904    0.3713860  0.00   -0.0338509    0.0021135   -0.0215123
o    -2.5308395    3.7249361   -0.6058895  0.00   -0.0278016   -0.0358640   -0.0449091
h    -1.9063428    4.3900608   -0.1134734  0.00    0.0115704    0.0329517    0.0341658
    13
 Energy =       0.0696924726
c    -3.7239997    1.6995052    0.3067739  0.00   -0.0161245    0.0149474    0.0066289
c    -2.4506260    2.5077159    0.0223685  0.00    0.0485285   -0.0017738    0.0303583
c    -5.0055695    2.5159944    0.0105459  0.00    0.0017938    0.0047999    0.0024858
h    -5.0262699    2.7953250   -1.0740113  0.00    0.0006438    0.0013949   -0.0068905
h    -5.0176824    3.4617362    0.6073350  0.00   -0.0006475    0.0066141    0.0032336
h    -5.9192673    1.9268159    0.2580267  0.00   -0.0048418   -0.0018211    0.0007750
n    -3.7183106    0.4308644   -0.4737297  0.00    0.0215719   -0.0106626   -0.0142624
h    -3.6916410    1.4744817    1.4037152  0.00    0.0009115   -0.0012907    0.0055460
h    -3.6257439   -0.3846829    0.1890815  0.00   -0.0010644   -0.0097903    0.0094801
h    -4.6191468    0.2858293   -1.0035736  0.00   -0.0122531   -0.0005327   -0.0068081
o    -1.2063097    1.9464921    0.2126329  0.00   -0.0206688   -0.0048561   -0.0175879
o    -2.5635069    3.7792326   -0.5445235  0.00   -0.0297305   -0.0280913   -0.0458085
h    -1.9023326    4.4100664   -0.0580475  0.00    0.0118811    0.0310622    0.0328496
    13
 Energy =       0.0667873895
c    -3.7009474    1.6907051    0.3080762  0.00   -0.0149049    0.0123727    0.0074328
c    -2.4707200    2.5649263    0.0299318  0.00    0.0343625    0.0013014    0.0245038
c    -5.0252345    2.4491220    0.0417377  0.00    0.0008644    0.0063168    0.0023502
h    -5.0713446    2.7518624   -1.0355215  0.00    0.0007201    0.0016178   -0.0067264
h    -5.0760506    3.3811876    0.6581481  0.00   -0.0008548    0.0068721    0.0032511
h    -5.9064274    1.8092209    0.2861344  0.00   -0.0057294   -0.0025683    0.0012694
n    -3.6425165    0.4329984   -0.4877299  0.00    0.0296228   -0.0044444   -0.0125523
h    -3.6451272    1.4518560    1.4011654  0.00    0.0006789   -0.0014944    0.0052974
h    -3.6493507   -0.3937897    0.1738359  0.00   -0.0006376   -0.0140922    0.0145807
h    -4.4841303    0.3215043   -1.1258638  0.00   -0.0209774   -0.0026246   -0.0143500
o    -1.1962096    2.1052452    0.3237369  0.00   -0.0062136   -0.0088218   -0.0123593
o    -2.6398341    3.8155171   -0.5731227  0.00   -0.0300245   -0.0238857   -0.0433220
h    -1.9625133    4.4690207   -0.1439344  0.00    0.0130936    0.0294505    0.0306249
    13
 Energy =       0.0626612213
c    -3.6987502    1.6850293    0.3030190  0.00   -0.0116448    0.0095488    0.0057722
c    -2.4949209    2.6035927    0.0657798  0.00    0.0149888    0.0034420    0.0130201
c    -5.0429475    2.4064274    0.0459103  0.00    0.0006195    0.0049585    0.0016949
h    -5.0958304    2.7294302   -1.0232823  0.00    0.0005607    0.0012026   -0.0049603
h    -5.1229896    3.3225012    0.6806142  0.00   -0.0006804    0.0054939    0.0027024
h    -5.9034086    1.7352862    0.2757012  0.00   -0.0046819   -0.0022700    0.0012745
n    -3.5965452    0.4520390   -0.5217544  0.00    0.0218815   -0.0042793   -0.0101507
h    -3.6476111    1.4206209    1.3895727  0.00    0.0003997   -0.0010106    0.0041955
h    -3.6039109   -0.3898180    0.1155841  0.00   -0.0005871   -0.0105120    0.0108831
h    -4.4161466    0.3404609   -1.1817801  0.00   -0.0155060   -0.0023888   -0.0106657
o    -1.2200698    2.2218318    0.4824900  0.00    0.0073909   -0.0089759   -0.0047670
o    -2.6773755    3.8392131   -0.5612238  0.00   -0.0271900   -0.0205048   -0.0334204
h    -1.9498996    4.4827616   -0.2140368  0.00    0.0144490    0.0252954    0.0244215
    13
 Energy =       0.0595033994
c    -3.7069372    1.6806119    0.3003205  0.00   -0.0078015    0.0065004    0.0034492
c    -2.5182958    2.6296432    0.1280546  0.00    0.0041014    0.0033592    0.0045587
c    -5.0582453    2.3788129    0.0330930  0.00    0.0007399    0.0026097    0.0008143
h    -5.0961527    2.7317036   -1.0255196  0.00    0.0003899    0.0007201   -0.0033125
h    -5.1710713    3.2719709    0.6922898  0.00   -0.0003851    0.0038687    0.0020681
h    -5.9067825    1.6830951    0.2250195  0.00   -0.0033793   -0.0017983    0.0009900
n    -3.5607971    0.4812433   -0.5608007  0.00    0.0125431   -0.0033013   -0.0075558
h    -3.6799404    1.3814310    1.3779124  0.00    0.0000342   -0.0004470    0.0033075
h    -3.5597863   -0.3806846    0.0435103  0.00   -0.0004663   -0.0067486    0.0066758
h    -4.3577231    0.3723817   -1.2414113  0.00   -0.0090649   -0.0018379   -0.0061855
o    -1.2643977    2.2899423    0.6412431  0.00    0.0105787   -0.0059760   -0.0002295
o    -2.6874591    3.8597583   -0.5088250  0.00   -0.0216520   -0.0164477   -0.0208724
h    -1.9028175    4.4694667   -0.2482924  0.00    0.0143618    0.0194987    0.0162920
    13
 Energy =       0.0576884601
c    -3.7219100    1.6779078    0.2989007  0.00   -0.0050799    0.0045957    0.0013302
c    -2.5401580    2.6423381    0.1956789  0.00   -0.0009927    0.0022373    0.0004031
c    -5.0704737    2.3716677    0.0185817  0.00    0.0009066    0.0007030    0.0002771
h    -5.0847862    2.7589419   -1.0275836  0.00    0.0001892    0.0004836   -0.0022883
h    -5.2091111    3.2390065    0.7043084  0.00   -0.0001186    0.0023922    0.0014667
h    -5.9154421    1.6622903    0.1646845  0.00   -0.0022315   -0.0014377    0.0006451
n    -3.5404080    0.5181127   -0.6042802  0.00    0.0059392   -0.0003948   -0.0066567
h    -3.7247209    1.3370366    1.3640135  0.00   -0.0001327   -0.0001494    0.0028900
h    -3.4755775   -0.3634973   -0.0336406  0.00   -0.0002198   -0.0067390    0.0050634
h    -4.3449363    0.3909463   -1.2673372  0.00   -0.0043724   -0.0004066   -0.0029149
o    -1.3210332    2.3258344    0.7999962  0.00    0.0100950   -0.0041328    0.0023256
o    -2.6747373    3.8596170   -0.4717132  0.00   -0.0147400   -0.0101066   -0.0110064
h    -1.8471119    4.4291742   -0.2850151  0.00    0.0107575    0.0129551    0.0084652
    13
 Energy =       0.0566367367
c    -3.7216248    1.6740453    0.3041795  0.00   -0.0008895    0.0024341    0.0002114
c    -2.5555858    2.6530155    0.2237241  0.00   -0.0043697   -0.0031800    0.0006463
c    -5.0801822    2.3657467    0.0766592  0.00   -0.0000800   -0.0003047    0.0005809
h    -5.1122060    2.8087018   -0.9467524  0.00    0.0000290    0.0007673   -0.0018928
h    -5.2230370    3.1911640    0.8103964  0.00   -0.0003474    0.0017499    0.0011589
h    -5.9123244    1.6384248    0.1921978  0.00   -0.0005312   -0.0006616    0.0003352
n    -3.5412804    0.5633182   -0.6548397  0.00    0.0013489   -0.0003052   -0.0037799
h    -3.7046738    1.2819881    1.3507071  0.00   -0.0000662   -0.0003966    0.0018103
h    -3.4464008   -0.3414660   -0.1318375  0.00    0.0000890   -0.0029021    0.0021143
h    -4.3516570    0.4537134   -1.3097517  0.00   -0.0004419   -0.0002980   -0.0006311
o    -1.3765794    2.3898780    0.9242880  0.00    0.0076791   -0.0043533    0.0045758
o    -2.6537499    3.8200382   -0.5386086  0.00   -0.0093094   -0.0000896   -0.0066129
h    -1.7911046    4.3508083   -0.4437682  0.00    0.0068894    0.0075398    0.0014835
    13
 Energy =       0.0563421222
c    -3.7121796    1.6636677    0.2951689  0.00    0.0008667    0.0019363    0.0010691
c    -2.5585468    2.6562383    0.2240350  0.00   -0.0003613    0.0002102   -0.0003036
c    -5.0823317    2.3592411    0.1594359  0.00   -0.0016887   -0.0003196    0.0007860
h    -5.1533378    2.8661172   -0.8326042  0.00   -0.0002927    0.0011699   -0.0022916
h    -5.2058762    3.1333729    0.9505921  0.00   -0.0006247    0.0017083    0.0015559
h    -5.9051924    1.6197530    0.2555456  0.00    0.0000308   -0.0001322    0.0001526
n    -3.5616245    0.6135913   -0.7352968  0.00    0.0021023   -0.0004904   -0.0038658
h    -3.6530095    1.2099247    1.3157377  0.00    0.0001359   -0.0008233    0.0024193
h    -3.4347916   -0.3197357   -0.2729645  0.00    0.0006132   -0.0029484    0.0016785
h    -4.3972621    0.5350300   -1.3632995  0.00   -0.0011993   -0.0001655   -0.0013316
o    -1.4078183    2.4391052    0.9758743  0.00    0.0006005   -0.0003763    0.0001170
o    -2.6361741    3.7846039   -0.5881405  0.00    0.0009235    0.0010346    0.0001864
h    -1.7622616    4.2884666   -0.5274899  0.00   -0.0011061   -0.0008037   -0.0001722
    13
 Energy =       0.0562968853
c    -3.7142514    1.6647927    0.2970269  0.00    0.0001794    0.0003781    0.0001641
c    -2.5607195    2.6573380    0.2275431  0.00   -0.0014815   -0.0008212   -0.0000608
c    -5.0815572    2.3614310    0.1624478  0.00   -0.0003480   -0.0000636    0.0001741
h    -5.1504705    2.8706367   -0.8264931  0.00   -0.0000597    0.0002316   -0.0004670
h    -5.2038027    3.1316106    0.9551847  0.00   -0.0001215    0.0003487    0.0003067
h    -5.9061378    1.6234253    0.2550802  0.00    0.0000043   -0.0000336    0.0000298
n    -3.5659547    0.6181051   -0.7342515  0.00    0.0004716   -0.0000939   -0.0007830
h    -3.6564116    1.2091163    1.3148579  0.00    0.0000201   -0.0001618    0.0004925
h    -3.4340619   -0.3143951   -0.2752819  0.00    0.0001117   -0.0006090    0.0003623
h    -4.4041806    0.5367821   -1.3571445  0.00   -0.0002632   -0.0000214   -0.0002854
o    -1.4392560    2.4776791    1.0345121  0.00    0.0025169   -0.0012481    0.0022569
o    -2.6112832    3.7504519   -0.6358916  0.00   -0.0010896    0.0022267   -0.0022986
h    -1.7423189    4.2624026   -0.5609962  0.00    0.0000594   -0.0001326    0.0001083
    13
 Energy =       0.0562866703
c    -3.7128362    1.6628571    0.2945068  0.00    0.0000275    0.0000212    0.0000422
c    -2.5584396    2.6541998    0.2228442  0.00    0.0001313    0.0000777    0.0000091
c    -5.0794153    2.3628360    0.1766904  0.00   -0.0000378   -0.0000045   -0.0000127
h    -5.1549908    2.8804336   -0.8068842  0.00   -0.0000065    0.0000039   -0.0000185
h    -5.1937423    3.1259361    0.9768443  0.00   -0.0000064    0.0000220    0.0000233
h    -5.9048151    1.6257653    0.2693630  0.00   -0.0000037    0.0000036   -0.0000032
n    -3.5754535    0.6242191   -0.7456979  0.00    0.0000486   -0.0000370   -0.0000176
h    -3.6474751    1.1992691    1.3078210  0.00    0.0000059    0.0000044    0.0000213
h    -3.4410266   -0.3117284   -0.2955207  0.00    0.0000036   -0.0000044    0.0000074
h    -4.4191012    0.5488060   -1.3616668  0.00   -0.0000398   -0.0000087   -0.0000386
o    -1.4416793    2.4809750    1.0340661  0.00   -0.0002081    0.0000878   -0.0002146
o    -2.6048994    3.7414080   -0.6452934  0.00    0.0000890   -0.0001775    0.0002121
h    -1.7365317    4.2543997   -0.5704786  0.00   -0.0000037    0.0000116   -0.0000103
    13
 Energy =       0.0562865280
c    -3.7128251    1.6627604    0.2944495  0.00    0.0000026    0.0000025    0.0000039
c    -2.5586733    2.6543902    0.2231645  0.00    0.0000069    0.0000051   -0.0000004
c    -5.0794274    2.3627147    0.1774357  0.00   -0.0000039   -0.0000005   -0.0000010
h    -5.1552351    2.8809926   -0.8057521  0.00   -0.0000007    0.0000006   -0.0000020
h    -5.1936538    3.1251900    0.9781629  0.00   -0.0000006    0.0000024    0.0000027
h    -5.9047454    1.6255065    0.2697618  0.00   -0.0000004    0.0000003   -0.0000002
n    -3.5755652    0.6249200   -0.7465235  0.00    0.0000051   -0.0000035   -0.0000027
h    -3.6472218    1.1984173    1.3073913  0.00    0.0000006    0.0000002    0.0000024
h    -3.4405067   -0.3112899   -0.2970906  0.00    0.0000005   -0.0000011    0.0000009
h    -4.4195070    0.5495758   -1.3620485  0.00   -0.0000043   -0.0000007   -0.0000041
o    -1.4438522    2.4837606    1.0378761  0.00   -0.0000107    0.0000049   -0.0000114
o    -2.6035729    3.7394402   -0.6479540  0.00    0.0000041   -0.0000115    0.0000122
h    -1.7356203    4.2529980   -0.5722789  0.00    0.0000008    0.0000014   -0.0000004
    13
 Energy =       0.0562865277
c    -3.7128251    1.6627561    0.2944475  0.00   -0.0000000    0.0000000   -0.0000000
c    -2.5586853    2.6543996    0.2231799  0.00   -0.0000000   -0.0000000   -0.0000000
c    -5.0794259    2.3627078    0.1774679  0.00   -0.0000000   -0.0000000    0.0000000
h    -5.1552412    2.8810170   -0.8057010  0.00   -0.0000000    0.0000000   -0.0000000
h    -5.1936489    3.1251536    0.9782191  0.00    0.0000000    0.0000000    0.0000000
h    -5.9047400    1.6254931    0.2697766  0.00   -0.0000000   -0.0000000    0.0000000
n    -3.5755699    0.6249526   -0.7465571  0.00    0.0000000    0.0000000   -0.0000000
h    -3.6472129    1.1983791    1.3073712  0.00    0.0000000   -0.0000000    0.0000000
h    -3.4404885   -0.3112692   -0.2971579  0.00    0.0000000   -0.0000000    0.0000000
h    -4.4195213    0.5496134   -1.3620638  0.00   -0.0000000    0.0000000   -0.0000000
o    -1.4439542    2.4838902    1.0380553  0.00    0.0000000   -0.0000000    0.0000000
o    -2.6035134    3.7393507   -0.6480786  0.00   -0.0000000    0.0000000   -0.0000000
h    -1.7355795    4.2529325   -0.5723650  0.00    0.0000000    0.0000000    0.0000000
