    13
 Energy =       0.1264110407
c    -3.7133889    1.6950595    0.3173519  0.00   -0.0556288   -0.0182356    0.0044040
c    -2.4962693    2.6345192    0.2419999  0.00    0.0750367    0.3404842    0.0695177
c    -4.9565486    2.3924193   -0.2155699  0.00    0.0124297    0.0235370    0.0132394
h    -5.8072983    1.7014095   -0.2223689  0.00    0.0086837    0.0135465   -0.0006875
h    -4.8071186    2.7393792   -1.2437896  0.00   -0.0062343   -0.0030913    0.0158729
h    -5.2375685    3.2516891    0.4029209  0.00   -0.0014936   -0.0140696   -0.0120016
n    -3.4097890    0.4519539   -0.4549189  0.00    0.1115797   -0.0354911   -0.0095087
h    -3.8575589    1.4177196    1.3669296  0.00    0.0049314   -0.0113203   -0.0258995
h    -2.5963493    0.6418898   -1.0496997  0.00    0.0873539    0.1524840    0.1081173
h    -3.0749291   -0.2623099    0.1989099  0.00   -0.0129372    0.0287038   -0.0219623
o    -2.4571893    3.7760389    0.6681628  0.00   -0.0095366   -0.2774389   -0.0960005
o    -1.4389296    2.0221094   -0.3549299  0.00   -0.1798051   -0.1738670   -0.0631997
h    -1.1721897    2.6250993   -1.0934297  0.00   -0.0343796   -0.0252418    0.0181087
    13
 Energy =       0.1012708499
c    -3.7243669    1.6990838    0.3437914  0.00   -0.0335547   -0.0144509    0.0043127
c    -2.4751294    2.5890161    0.3332862  0.00    0.0523605    0.2251922    0.0429850
c    -4.9070517    2.4253356   -0.3006481  0.00    0.0048452    0.0169924    0.0106472
h    -5.7776131    1.7508504   -0.3811221  0.00    0.0028042    0.0077161   -0.0009704
h    -4.6488775    2.7643803   -1.3212624  0.00   -0.0023949   -0.0004347    0.0052019
h    -5.2148105    3.3004282    0.2943626  0.00   -0.0018405   -0.0087605   -0.0073336
n    -3.4371885    0.4470898   -0.4025735  0.00    0.0746401   -0.0217428   -0.0071834
h    -3.9610494    1.4510579    1.3953528  0.00    0.0019833   -0.0089558   -0.0130625
h    -2.6112692    0.6164873   -1.0031818  0.00    0.0652834    0.1108775    0.0747125
h    -3.1179264   -0.2670718    0.2719691  0.00   -0.0084732    0.0185008   -0.0138357
o    -2.4489924    3.7827313    0.7840574  0.00   -0.0069064   -0.1814732   -0.0640863
o    -1.3944149    2.0105512   -0.2780002  0.00   -0.1263009   -0.1556255    0.0045397
h    -1.3064374    2.5170366   -1.1744630  0.00   -0.0224460    0.0121645   -0.0359270
    13
 Energy =       0.0937741059
c    -3.7081051    1.6875178    0.3361262  0.00   -0.0288107   -0.0114809    0.0043428
c    -2.4689421    2.5877655    0.3069903  0.00    0.0468649    0.2001642    0.0380269
c    -4.9230869    2.4176689   -0.2439866  0.00    0.0062492    0.0152564    0.0105902
h    -5.8185131    1.7622592   -0.2223689  0.00   -0.0021695    0.0039898   -0.0008679
h    -4.7354463    2.7019310   -1.3012061  0.00   -0.0009798    0.0001040    0.0003352
h    -5.1553204    3.3309140    0.3358569  0.00   -0.0017337   -0.0052007   -0.0040310
n    -3.4453297    0.4588418   -0.4557734  0.00    0.0662171   -0.0186719   -0.0090723
h    -3.8998702    1.4136821    1.3930914  0.00    0.0014877   -0.0080398   -0.0102199
h    -2.6116857    0.6292416   -1.0499113  0.00    0.0588191    0.0996777    0.0667103
h    -3.1562224   -0.2983808    0.1894683  0.00   -0.0066853    0.0141920   -0.0106670
o    -2.4548665    3.7902824    0.7705376  0.00   -0.0064070   -0.1614301   -0.0568428
o    -1.3816108    2.0297279   -0.3147382  0.00   -0.1129492   -0.1403602    0.0058748
h    -1.2661281    2.5755253   -1.1825175  0.00   -0.0199027    0.0117994   -0.0341793
    13
 Energy =       0.0827045602
c    -3.6837958    1.6683042    0.3223403  0.00   -0.0210531   -0.0071076    0.0047644
c    -2.4572314    2.5806711    0.2632115  0.00    0.0382357    0.1592807    0.0297863
c    -4.9435728    2.4081653   -0.1514872  0.00    0.0018196    0.0118483    0.0086648
h    -5.8237580    1.7322289   -0.1206432  0.00   -0.0020819    0.0030247   -0.0004589
h    -4.8160267    2.7565646   -1.2024068  0.00   -0.0004488    0.0013023   -0.0032972
h    -5.1596542    3.2846592    0.4946100  0.00   -0.0025405   -0.0019592   -0.0015899
n    -3.4696397    0.4778504   -0.5400303  0.00    0.0525431   -0.0127913   -0.0140335
h    -3.8053264    1.3513866    1.3828396  0.00    0.0008055   -0.0066779   -0.0045875
h    -2.6232280    0.6407719   -1.1245134  0.00    0.0489649    0.0823058    0.0540641
h    -3.2353520   -0.3444412    0.0565548  0.00   -0.0034915    0.0048008   -0.0046569
o    -2.4543535    3.7965391    0.7489646  0.00   -0.0054470   -0.1287883   -0.0449765
o    -1.3640654    2.0541090   -0.3826482  0.00   -0.0925048   -0.1207561    0.0127982
h    -1.1891232    2.6801677   -1.1852233  0.00   -0.0148012    0.0155177   -0.0364775
    13
 Energy =       0.0696593948
c    -3.6885214    1.6606780    0.2992369  0.00   -0.0138163   -0.0040564    0.0037240
c    -2.4579453    2.5624198    0.2425586  0.00    0.0245400    0.1069259    0.0185524
c    -4.9498934    2.4118781   -0.1458699  0.00    0.0010111    0.0079626    0.0056558
h    -5.8328224    1.7399152   -0.1019956  0.00   -0.0015053    0.0020086   -0.0003412
h    -4.8376116    2.7640685   -1.1964219  0.00   -0.0002652    0.0008633   -0.0023635
h    -5.1438508    3.2878942    0.5092867  0.00   -0.0017638   -0.0011352   -0.0009060
n    -3.5123110    0.4820057   -0.5822678  0.00    0.0332678   -0.0059730   -0.0111984
h    -3.7973848    1.3371785    1.3602050  0.00    0.0005469   -0.0043609   -0.0028597
h    -2.6386770    0.6077734   -1.1454801  0.00    0.0383049    0.0602730    0.0372949
h    -3.3443426   -0.3695446    0.0023718  0.00   -0.0017386   -0.0005224   -0.0009474
o    -2.4502328    3.7904907    0.7679692  0.00   -0.0033519   -0.0865305   -0.0292541
o    -1.3411640    2.0460804   -0.3804274  0.00   -0.0733281   -0.1069038    0.0295336
h    -1.0303701    2.7661390   -1.0675971  0.00   -0.0019016    0.0314488   -0.0468905
    13
 Energy =       0.0620132966
c    -3.6899457    1.6547137    0.2707080  0.00   -0.0084730   -0.0014917    0.0032426
c    -2.4470060    2.5396946    0.2357539  0.00    0.0154639    0.0719100    0.0111920
c    -4.9456576    2.4367251   -0.1338369  0.00    0.0001760    0.0054337    0.0034230
h    -5.8371939    1.7756677   -0.0949155  0.00   -0.0011195    0.0012754   -0.0003096
h    -4.8426703    2.8152321   -1.1758971  0.00   -0.0002509    0.0007215   -0.0020274
h    -5.1140602    3.2987031    0.5482245  0.00   -0.0013050   -0.0001882   -0.0001726
n    -3.5566945    0.5008708   -0.6490149  0.00    0.0160493    0.0030630   -0.0125359
h    -3.7902274    1.3047903    1.3252558  0.00    0.0004299   -0.0028412   -0.0012925
h    -2.6393126    0.5697644   -1.1603839  0.00    0.0337632    0.0449909    0.0239071
h    -3.5030957   -0.3915891   -0.0909396  0.00   -0.0006110   -0.0110910    0.0057163
o    -2.4297405    3.7663844    0.8078051  0.00   -0.0016256   -0.0581340   -0.0185955
o    -1.3105362    2.0297429   -0.3630947  0.00   -0.0549566   -0.0835531    0.0280224
h    -0.9189864    2.7862769   -0.9580964  0.00    0.0024592    0.0299047   -0.0405700
    13
 Energy =       0.0596167840
c    -3.6880226    1.6451684    0.2824811  0.00   -0.0069108   -0.0010750    0.0032844
c    -2.4643784    2.5562257    0.2347358  0.00    0.0129486    0.0657994    0.0107664
c    -4.9582776    2.3943615   -0.1385142  0.00    0.0000314    0.0050501    0.0028692
h    -5.8359254    1.7150915   -0.0890712  0.00   -0.0012481    0.0009500   -0.0003144
h    -4.8615280    2.7568062   -1.1867876  0.00   -0.0002991    0.0007422   -0.0020009
h    -5.1454978    3.2647388    0.5283665  0.00   -0.0012106    0.0001099    0.0000083
n    -3.5322555    0.4781511   -0.6161936  0.00    0.0010029    0.0108647   -0.0132374
h    -3.7870566    1.3117703    1.3425781  0.00    0.0003953   -0.0024357   -0.0008579
h    -2.6695226    0.6198413   -1.2161103  0.00    0.0411819    0.0440746    0.0147195
h    -3.3443426   -0.3930637   -0.0383909  0.00    0.0016828   -0.0224024    0.0136160
o    -2.4681352    3.7809530    0.8195514  0.00   -0.0015410   -0.0523419   -0.0166557
o    -1.3302220    2.0861731   -0.4029932  0.00   -0.0488695   -0.0778781    0.0256448
h    -0.9399628    2.8707596   -0.9580836  0.00    0.0028363    0.0285422   -0.0378424
    13
 Energy =       0.0520973613
c    -3.6958083    1.6236629    0.2678659  0.00   -0.0033626   -0.0013352    0.0021320
c    -2.4815024    2.5483029    0.2577194  0.00    0.0052509    0.0336289    0.0022288
c    -4.9643846    2.3646167   -0.1655610  0.00    0.0000514    0.0026214    0.0014479
h    -5.8361126    1.6766628   -0.1307126  0.00   -0.0007856    0.0004220   -0.0001664
h    -4.8562475    2.7337046   -1.2095390  0.00   -0.0001479    0.0003849   -0.0011570
h    -5.1659115    3.2295709    0.5043238  0.00   -0.0006785    0.0001421    0.0000966
n    -3.5281762    0.4670674   -0.6371489  0.00   -0.0056043    0.0097080   -0.0072658
h    -3.8152523    1.2814284    1.3235216  0.00    0.0000870   -0.0011994   -0.0001136
h    -2.7187115    0.6531642   -1.2966819  0.00    0.0297670    0.0279084    0.0052302
h    -3.2525832   -0.3843788   -0.0715454  0.00    0.0015396   -0.0172603    0.0108386
o    -2.5002344    3.7452101    0.9362623  0.00   -0.0015834   -0.0230737   -0.0042464
o    -1.3373805    2.1482090   -0.4176054  0.00   -0.0378304   -0.0723177    0.0248278
h    -0.8728222    2.9997559   -0.7993305  0.00    0.0132969    0.0403706   -0.0338528
    13
 Energy =       0.0515839265
c    -3.6864739    1.6322082    0.2696126  0.00   -0.0028570   -0.0021708    0.0018268
c    -2.4766309    2.5624185    0.2132384  0.00    0.0041346    0.0273066   -0.0003037
c    -4.9754242    2.3614044   -0.1252613  0.00   -0.0004177    0.0026674    0.0014728
h    -5.8401925    1.6661268   -0.0628612  0.00   -0.0011630    0.0002366   -0.0001299
h    -4.9023541    2.7306553   -1.1728032  0.00   -0.0001350    0.0005613   -0.0017060
h    -5.1638195    3.2258298    0.5491653  0.00   -0.0007294    0.0001882    0.0002001
n    -3.5411326    0.4732210   -0.6364704  0.00   -0.0056910    0.0094472   -0.0074469
h    -3.7672219    1.2945525    1.3310231  0.00    0.0000380   -0.0012791    0.0006297
h    -2.7323347    0.6480726   -1.2999174  0.00    0.0294281    0.0275530    0.0050329
h    -3.2739412   -0.3820883   -0.0728325  0.00    0.0015725   -0.0171367    0.0106859
o    -2.5207844    3.8239282    0.7775092  0.00   -0.0028491   -0.0126791    0.0008278
o    -1.3140966    2.1102284   -0.4012522  0.00   -0.0349286   -0.0755685    0.0228555
h    -0.8307208    2.9404195   -0.8075820  0.00    0.0135978    0.0408737   -0.0339452
    13
 Energy =       0.0480536208
c    -3.6968650    1.6297595    0.2621828  0.00   -0.0016113   -0.0007955    0.0016869
c    -2.4990421    2.5763768    0.2313062  0.00    0.0015069    0.0154667    0.0001283
c    -4.9859745    2.3341052   -0.1749837  0.00   -0.0007263    0.0017166    0.0007161
h    -5.8407313    1.6252100   -0.1287153  0.00   -0.0010503    0.0000676   -0.0001303
h    -4.8903190    2.6948957   -1.2233110  0.00   -0.0001144    0.0003966   -0.0014334
h    -5.2060127    3.2021273    0.4858308  0.00   -0.0006272    0.0005482    0.0005182
n    -3.5139741    0.4623951   -0.6251192  0.00   -0.0060926    0.0078775   -0.0066011
h    -3.8037739    1.3031171    1.3247414  0.00   -0.0000146   -0.0007013    0.0009207
h    -2.7348242    0.6643096   -1.3132942  0.00    0.0219312    0.0199441    0.0027492
h    -3.1839670   -0.3632544   -0.0537926  0.00    0.0018774   -0.0146677    0.0089028
o    -2.5961847    3.8631995    0.7409979  0.00   -0.0032516   -0.0046800    0.0021797
o    -1.2982335    2.1329631   -0.3154459  0.00   -0.0235892   -0.0558269    0.0158251
h    -0.7752251    2.9617722   -0.6488289  0.00    0.0117620    0.0306541   -0.0254624
    13
 Energy =       0.0464159758
c    -3.7103915    1.6239013    0.2526395  0.00   -0.0011945    0.0005508    0.0026714
c    -2.5321492    2.5964811    0.2756789  0.00    0.0004332    0.0117183    0.0007212
c    -4.9925257    2.2961920   -0.2548696  0.00   -0.0017665    0.0010535   -0.0000062
h    -5.8340090    1.5692063   -0.2430735  0.00   -0.0016971   -0.0002380   -0.0002426
h    -4.8534768    2.6492190   -1.3015698  0.00   -0.0000436    0.0004067   -0.0021280
h    -5.2633016    3.1656776    0.3869263  0.00   -0.0009650    0.0014219    0.0013732
n    -3.4592411    0.4520019   -0.6134695  0.00   -0.0058698    0.0056958   -0.0077977
h    -3.8650001    1.3040284    1.3122421  0.00   -0.0002050   -0.0002521    0.0020646
h    -2.6887531    0.6823862   -1.3011646  0.00    0.0183078    0.0160639    0.0017552
h    -3.0858087   -0.3430154   -0.0268167  0.00    0.0024457   -0.0138489    0.0079120
o    -2.6819563    3.8812902    0.7819764  0.00   -0.0029462   -0.0019961    0.0025301
o    -1.2961673    2.1849865   -0.2168552  0.00   -0.0177753   -0.0469325    0.0127377
h    -0.7623466    3.0246218   -0.4900757  0.00    0.0112765    0.0263566   -0.0215909
    13
 Energy =       0.0455116989
c    -3.7125543    1.6400592    0.2742071  0.00   -0.0034835    0.0023743    0.0063134
c    -2.4793337    2.5482055    0.2245431  0.00   -0.0014449    0.0112475    0.0020172
c    -4.9779181    2.3714172   -0.1965183  0.00   -0.0014855    0.0009172   -0.0010320
h    -5.8571620    1.6888498   -0.1400370  0.00   -0.0037822   -0.0016153   -0.0001706
h    -4.8600975    2.6990769   -1.2544308  0.00    0.0002610    0.0003556   -0.0025903
h    -5.1783324    3.2660380    0.4405745  0.00   -0.0015521    0.0034107    0.0028293
n    -3.5632908    0.4341479   -0.5731888  0.00   -0.0103564   -0.0009781   -0.0078520
h    -3.8421560    1.3529555    1.3471842  0.00   -0.0007175   -0.0000406    0.0028734
h    -2.8475062    0.6285714   -1.3320011  0.00    0.0212623    0.0149732   -0.0044745
h    -3.1540200   -0.3474813    0.0074819  0.00    0.0027041   -0.0131810    0.0086592
o    -2.5297024    3.8392461    0.7442145  0.00   -0.0033550    0.0040966    0.0049386
o    -1.2959511    2.0759196   -0.3515438  0.00   -0.0092123   -0.0471925    0.0087184
h    -0.7271026    2.8899710   -0.6289171  0.00    0.0111620    0.0256325   -0.0202300
    13
 Energy =       0.0427195941
c    -3.7412161    1.6409532    0.2658922  0.00   -0.0017761   -0.0005834    0.0042940
c    -2.4637743    2.4864305    0.2590847  0.00    0.0000804    0.0062610    0.0013791
c    -4.9567419    2.4361839   -0.2320687  0.00   -0.0015839    0.0019387   -0.0009613
h    -5.8675796    1.7945723   -0.2019454  0.00   -0.0033848   -0.0018667    0.0000222
h    -4.7975511    2.7683406   -1.2827420  0.00    0.0001006    0.0006571   -0.0022152
h    -5.1301860    3.3332906    0.4065848  0.00   -0.0010590    0.0022509    0.0015769
n    -3.6295995    0.4360875   -0.5810460  0.00   -0.0152629    0.0024667   -0.0035083
h    -3.9147409    1.3494494    1.3311169  0.00   -0.0006076   -0.0007318    0.0024083
h    -2.9970388    0.6533162   -1.4055354  0.00    0.0174734    0.0108294   -0.0095671
h    -3.1256935   -0.3142964   -0.0323851  0.00    0.0050972   -0.0126695    0.0102062
o    -2.4636245    3.7695876    0.7997747  0.00   -0.0013054    0.0040651    0.0032883
o    -1.2899590    1.9739035   -0.2949985  0.00   -0.0109897   -0.0368609    0.0074848
h    -0.6474219    2.7591580   -0.4701640  0.00    0.0132178    0.0242435   -0.0144080
    13
 Energy =       0.0399949757
c    -3.7436606    1.6619096    0.2847007  0.00    0.0017466    0.0064691    0.0040573
c    -2.4730359    2.5110161    0.2202303  0.00   -0.0002700    0.0041305   -0.0001572
c    -4.9501558    2.4125915   -0.2931461  0.00   -0.0011158   -0.0002252   -0.0002431
h    -5.8576118    1.7730596   -0.2243010  0.00   -0.0008761   -0.0010801    0.0000398
h    -4.7774330    2.6632966   -1.3656362  0.00    0.0001519    0.0011646   -0.0037035
h    -5.1323920    3.3574238    0.2723001  0.00   -0.0007274    0.0034304    0.0021569
n    -3.6293190    0.3788700   -0.4432380  0.00   -0.0181848   -0.0055593   -0.0057943
h    -3.9280431    1.4663428    1.3722387  0.00   -0.0005149   -0.0011216    0.0050050
h    -3.0991633    0.5485461   -1.3451889  0.00    0.0106875    0.0076904   -0.0121838
h    -3.0221045   -0.2749051    0.1263681  0.00    0.0078408   -0.0120762    0.0122751
o    -2.4603441    3.7852388    0.7764031  0.00   -0.0005972    0.0008283    0.0005473
o    -1.3185012    2.0225982   -0.3857395  0.00   -0.0074854   -0.0193176    0.0026971
h    -0.6333630    2.7809888   -0.4334231  0.00    0.0093449    0.0156665   -0.0046967
    13
 Energy =       0.0389558111
c    -3.7609991    1.6663865    0.2882861  0.00    0.0017877    0.0007743    0.0008807
c    -2.4749151    2.4915748    0.2641462  0.00   -0.0019150   -0.0014731   -0.0014701
c    -4.9291039    2.4248866   -0.3532933  0.00   -0.0014899    0.0004752    0.0000521
h    -5.8515620    1.8059017   -0.3037929  0.00   -0.0007750   -0.0005315    0.0001751
h    -4.7103564    2.6470144   -1.4225529  0.00    0.0002163    0.0007468   -0.0025464
h    -5.1137371    3.3841558    0.1822396  0.00   -0.0005671    0.0015665    0.0009866
n    -3.6361499    0.3691721   -0.4020786  0.00   -0.0081322   -0.0016897   -0.0026445
h    -3.9946938    1.4955621    1.3686459  0.00   -0.0004254   -0.0006719    0.0030614
h    -3.1525131    0.5212492   -1.3266792  0.00    0.0048839    0.0036676   -0.0056248
h    -2.9869643   -0.2447324    0.1549216  0.00    0.0036825   -0.0056766    0.0058559
o    -2.4214709    3.7145834    0.9351563  0.00   -0.0011689    0.0097311    0.0059030
o    -1.3521854    2.0408927   -0.4296874  0.00   -0.0023731   -0.0182585   -0.0032354
h    -0.6404761    2.7703300   -0.3937430  0.00    0.0062762    0.0113396   -0.0013938
    13
 Energy =       0.0382571694
c    -3.7756015    1.6840878    0.3031344  0.00    0.0026719    0.0035942    0.0017827
c    -2.4912943    2.5074989    0.2858892  0.00   -0.0016724    0.0003406    0.0012962
c    -4.9121431    2.3978268   -0.4417426  0.00   -0.0029038   -0.0000458   -0.0003595
h    -5.8357598    1.7817087   -0.3972024  0.00   -0.0001271    0.0000853    0.0000188
h    -4.6422778    2.5526648   -1.5119179  0.00    0.0003649    0.0005430   -0.0032478
h    -5.1216721    3.3893800    0.0234865  0.00   -0.0008978    0.0026680    0.0013818
n    -3.6150446    0.3412870   -0.2879573  0.00   -0.0044286   -0.0049071   -0.0034975
h    -4.0595703    1.5850343    1.3808162  0.00   -0.0005025   -0.0001141    0.0035459
h    -3.1798763    0.4401906   -1.2411160  0.00    0.0015998    0.0018434   -0.0038553
h    -2.9130736   -0.1944681    0.2835740  0.00    0.0038897   -0.0036104    0.0043723
o    -2.4197142    3.6889903    1.0166734  0.00   -0.0010521    0.0026807    0.0012665
o    -1.3957848    2.1089739   -0.4766241  0.00    0.0011955   -0.0067860   -0.0030793
h    -0.6633148    2.8038019   -0.3754451  0.00    0.0018624    0.0037084    0.0003752
    13
 Energy =       0.0380418104
c    -3.7806918    1.6875514    0.3109511  0.00    0.0014769    0.0015599    0.0005543
c    -2.4943013    2.5067922    0.3019551  0.00   -0.0044359   -0.0014212    0.0017903
c    -4.8982733    2.3876604   -0.4703628  0.00   -0.0015449    0.0001041   -0.0001310
h    -5.8241505    1.7743197   -0.4338229  0.00   -0.0001154    0.0000448    0.0000250
h    -4.6047651    2.5212583   -1.5358745  0.00    0.0001980    0.0002977   -0.0017737
h    -5.1143186    3.3871868   -0.0294003  0.00   -0.0004489    0.0013448    0.0007461
n    -3.6116077    0.3338263   -0.2467205  0.00   -0.0020054   -0.0025999   -0.0015129
h    -4.0871586    1.6110316    1.3828976  0.00   -0.0002699   -0.0000576    0.0019197
h    -3.1757256    0.4099667   -1.2003851  0.00    0.0007744    0.0008055   -0.0019304
h    -2.9100056   -0.1848733    0.3366773  0.00    0.0017759   -0.0016586    0.0018876
o    -2.3863319    3.6312145    1.1192508  0.00   -0.0018366    0.0070395    0.0055488
o    -1.4396353    2.1705463   -0.5487130  0.00    0.0054925   -0.0077386   -0.0076241
h    -0.6981618    2.8504960   -0.4248843  0.00    0.0009392    0.0022797    0.0005002
    13
 Energy =       0.0378101151
c    -3.7965961    1.7081839    0.3199497  0.00    0.0018714    0.0027096    0.0011537
c    -2.5082412    2.5231451    0.3181429  0.00   -0.0006366   -0.0006789    0.0006347
c    -4.8743643    2.3598252   -0.5567885  0.00   -0.0028043    0.0001067   -0.0003466
h    -5.8018780    1.7484545   -0.5295814  0.00   -0.0002219    0.0000973    0.0000005
h    -4.5274955    2.4295637   -1.6139257  0.00    0.0006441    0.0002635   -0.0032002
h    -5.1111078    3.3845312   -0.1873743  0.00   -0.0009635    0.0025625    0.0010106
n    -3.6032293    0.3210599   -0.1431882  0.00   -0.0021963   -0.0035226   -0.0007015
h    -4.1539540    1.6985435    1.3803285  0.00   -0.0008018    0.0001829    0.0033291
h    -3.1374010    0.3354008   -1.0867914  0.00    0.0015251   -0.0003567   -0.0035454
h    -2.9207260   -0.1573298    0.4954304  0.00    0.0025049   -0.0021560    0.0021361
o    -2.3719837    3.6029724    1.1838655  0.00   -0.0006644    0.0022699    0.0014080
o    -1.4849726    2.2346252   -0.5798963  0.00    0.0016007   -0.0019235   -0.0020895
h    -0.7331775    2.8980013   -0.4386027  0.00    0.0001426    0.0004453    0.0002105
    13
 Energy =       0.0376901534
c    -3.7969623    1.7099620    0.3257022  0.00    0.0005950    0.0010429    0.0003432
c    -2.5088231    2.5245323    0.3207545  0.00   -0.0031102   -0.0021943    0.0009350
c    -4.8661677    2.3460474   -0.5680287  0.00   -0.0009312    0.0000642   -0.0001310
h    -5.7926038    1.7330752   -0.5417294  0.00   -0.0000725    0.0000297   -0.0000007
h    -4.5089018    2.4020038   -1.6205885  0.00    0.0002076    0.0000987   -0.0011032
h    -5.1070479    3.3738864   -0.2159787  0.00   -0.0003187    0.0008962    0.0003978
n    -3.5994515    0.3186381   -0.1151059  0.00   -0.0008933   -0.0012721   -0.0002248
h    -4.1632001    1.7147076    1.3810690  0.00   -0.0002484    0.0000341    0.0011574
h    -3.1246976    0.3203119   -1.0529240  0.00    0.0005211   -0.0001125   -0.0012888
h    -2.9258938   -0.1507365    0.5371089  0.00    0.0009377   -0.0007932    0.0007413
o    -2.3298058    3.5428950    1.2546795  0.00   -0.0011298    0.0052292    0.0053891
o    -1.5303911    2.2994526   -0.6469418  0.00    0.0043082   -0.0034221   -0.0064786
h    -0.7711805    2.9522009   -0.4964486  0.00    0.0001345    0.0003993    0.0002632
    13
 Energy =       0.0375918542
c    -3.8085785    1.7275904    0.3291846  0.00    0.0009188    0.0016559    0.0007691
c    -2.5207735    2.5421364    0.3250823  0.00    0.0004919   -0.0002082   -0.0001542
c    -4.8477257    2.3161579   -0.6314547  0.00   -0.0014726   -0.0001343   -0.0003366
h    -5.7733548    1.7019197   -0.6075768  0.00   -0.0000778    0.0000282   -0.0000274
h    -4.4535559    2.3213035   -1.6730128  0.00    0.0004074    0.0000249   -0.0017179
h    -5.1026941    3.3598308   -0.3393009  0.00   -0.0005762    0.0015945    0.0004590
n    -3.5942778    0.3162948   -0.0357653  0.00   -0.0020643   -0.0014978   -0.0004310
h    -4.2105422    1.7837309    1.3706791  0.00   -0.0004853    0.0002148    0.0017376
h    -3.0840839    0.2728073   -0.9547691  0.00    0.0012639   -0.0004369   -0.0024446
h    -2.9479583   -0.1215295    0.6656322  0.00    0.0018715   -0.0015289    0.0019357
o    -2.3178330    3.5252608    1.2854914  0.00   -0.0000899    0.0002767   -0.0001412
o    -1.5640703    2.3481640   -0.6641580  0.00   -0.0002011   -0.0000154    0.0003376
h    -0.7996791    2.9933098   -0.5084635  0.00    0.0000137    0.0000266    0.0000139
    13
 Energy =       0.0375646315
c    -3.8059559    1.7254460    0.3319150  0.00    0.0005165    0.0010418    0.0004806
c    -2.5186354    2.5404923    0.3237885  0.00   -0.0007065   -0.0010081   -0.0001100
c    -4.8476526    2.3121716   -0.6257265  0.00   -0.0008828   -0.0000660   -0.0002093
h    -5.7722839    1.6965119   -0.6001818  0.00   -0.0000480    0.0000151   -0.0000157
h    -4.4553950    2.3180941   -1.6673857  0.00    0.0002511    0.0000117   -0.0010285
h    -5.1031211    3.3549192   -0.3334195  0.00   -0.0003444    0.0009548    0.0002772
n    -3.5911144    0.3152451   -0.0335335  0.00   -0.0012405   -0.0009192   -0.0002475
h    -4.2055537    1.7809026    1.3737133  0.00   -0.0002942    0.0001215    0.0010452
h    -3.0815353    0.2728630   -0.9522512  0.00    0.0007608   -0.0002584   -0.0014660
h    -2.9454969   -0.1224716    0.6675022  0.00    0.0011193   -0.0009129    0.0011572
o    -2.2853101    3.4814514    1.3208935  0.00   -0.0002511    0.0017664    0.0020657
o    -1.5913787    2.3867693   -0.7018873  0.00    0.0010631   -0.0008534   -0.0020364
h    -0.8216940    3.0245819   -0.5418586  0.00    0.0000568    0.0001066    0.0000875
    13
 Energy =       0.0375462831
c    -3.8078136    1.7294545    0.3329851  0.00   -0.0001501   -0.0002521   -0.0000911
c    -2.5215212    2.5459339    0.3228052  0.00   -0.0000085   -0.0000318   -0.0000902
c    -4.8427338    2.2998022   -0.6391787  0.00    0.0002530    0.0000170    0.0000480
h    -5.7661674    1.6824207   -0.6124132  0.00    0.0000136   -0.0000086    0.0000016
h    -4.4424372    2.2926313   -1.6764923  0.00   -0.0000813    0.0000082    0.0002877
h    -5.1018452    3.3448867   -0.3638046  0.00    0.0000985   -0.0002518   -0.0000530
n    -3.5881988    0.3163097   -0.0114182  0.00    0.0003321    0.0002347    0.0000405
h    -4.2152993    1.7979487    1.3696317  0.00    0.0000954   -0.0000524   -0.0002874
h    -3.0701323    0.2632451   -0.9234395  0.00   -0.0002325    0.0000917    0.0004020
h    -2.9501734   -0.1106673    0.7010754  0.00   -0.0002906    0.0002279   -0.0003343
o    -2.2677097    3.4574265    1.3400249  0.00   -0.0000085    0.0000305   -0.0000007
o    -1.6122475    2.4175478   -0.7205195  0.00   -0.0000211   -0.0000145    0.0000791
h    -0.8388478    3.0500370   -0.5576878  0.00   -0.0000001    0.0000012   -0.0000021
    13
 Energy =       0.0375452070
c    -3.8075349    1.7292123    0.3336279  0.00   -0.0000166   -0.0000236   -0.0000124
c    -2.5205605    2.5445530    0.3231171  0.00   -0.0000828   -0.0000956   -0.0000415
c    -4.8422548    2.3002617   -0.6388674  0.00    0.0000258    0.0000028    0.0000044
h    -5.7660452    1.6834202   -0.6121333  0.00    0.0000013   -0.0000010    0.0000003
h    -4.4417807    2.2926722   -1.6763940  0.00   -0.0000075    0.0000004    0.0000290
h    -5.1009051    3.3457290   -0.3636746  0.00    0.0000100   -0.0000253   -0.0000051
n    -3.5885788    0.3156874   -0.0107172  0.00    0.0000326    0.0000228    0.0000036
h    -4.2150659    1.7981575    1.3705077  0.00    0.0000088   -0.0000063   -0.0000286
h    -3.0699334    0.2621586   -0.9226709  0.00   -0.0000224    0.0000100    0.0000401
h    -2.9515212   -0.1120680    0.7025657  0.00   -0.0000289    0.0000221   -0.0000324
o    -2.2564951    3.4419070    1.3504355  0.00   -0.0000030    0.0001577    0.0002172
o    -1.6200965    2.4280517   -0.7293826  0.00    0.0000736   -0.0000785   -0.0001863
h    -0.8443550    3.0572342   -0.5648453  0.00    0.0000091    0.0000144    0.0000119
    13
 Energy =       0.0375451630
c    -3.8075625    1.7292498    0.3336598  0.00    0.0000000    0.0000000   -0.0000000
c    -2.5205197    2.5444785    0.3231667  0.00   -0.0000004   -0.0000007   -0.0000003
c    -4.8421652    2.3002570   -0.6390450  0.00   -0.0000000    0.0000000    0.0000000
h    -5.7659943    1.6834737   -0.6123349  0.00   -0.0000000    0.0000000    0.0000000
h    -4.4415697    2.2925064   -1.6765543  0.00   -0.0000000    0.0000000    0.0000000
h    -5.1007988    3.3457969   -0.3640175  0.00   -0.0000000    0.0000000    0.0000001
n    -3.5886343    0.3156432   -0.0104890  0.00   -0.0000000   -0.0000000   -0.0000000
h    -4.2152067    1.7983634    1.3705143  0.00    0.0000000   -0.0000000    0.0000000
h    -3.0698660    0.2619582   -0.9223945  0.00    0.0000000    0.0000000   -0.0000001
h    -2.9517098   -0.1120901    0.7029683  0.00    0.0000000   -0.0000000   -0.0000000
o    -2.2555984    3.4405762    1.3511633  0.00   -0.0000001    0.0000013    0.0000013
o    -1.6207283    2.4289493   -0.7298767  0.00    0.0000005   -0.0000007   -0.0000010
h    -0.8447735    3.0578145   -0.5651922  0.00    0.0000001    0.0000001    0.0000001
    13
 Energy =       0.0375451629
c    -3.8075659    1.7292538    0.3336626  0.00   -0.0000000    0.0000000   -0.0000000
c    -2.5205164    2.5444714    0.3231723  0.00   -0.0000000   -0.0000000   -0.0000000
c    -4.8421533    2.3002539   -0.6390628  0.00   -0.0000000    0.0000000    0.0000000
h    -5.7659859    1.6834757   -0.6123572  0.00   -0.0000000    0.0000000    0.0000000
h    -4.4415438    2.2924875   -1.6765668  0.00    0.0000000    0.0000000   -0.0000000
h    -5.1007847    3.3457989   -0.3640533  0.00   -0.0000000    0.0000000    0.0000000
n    -3.5886419    0.3156416   -0.0104649  0.00   -0.0000000   -0.0000000    0.0000000
h    -4.2152226    1.7983839    1.3705112  0.00   -0.0000000   -0.0000000    0.0000000
h    -3.0698596    0.2619418   -0.9223616  0.00    0.0000000    0.0000000   -0.0000000
h    -2.9517341   -0.1120883    0.7030096  0.00    0.0000000   -0.0000000    0.0000000
o    -2.2555162    3.4404550    1.3512468  0.00    0.0000000    0.0000000    0.0000000
o    -1.6207886    2.4290327   -0.7299344  0.00    0.0000000   -0.0000000   -0.0000000
h    -0.8448141    3.0578690   -0.5652331  0.00    0.0000000    0.0000000    0.0000000
