    27
 Energy =       0.5681227570
c    -1.4235396    2.6054793   -0.0667700  0.00   -0.0463877    0.0383934    0.0032550
c    -1.3072796    1.2134697   -0.1072300  0.00   -0.0852227   -0.0326503    0.0023780
c    -0.0178900    0.6711998   -0.1697000  0.00   -0.0899587   -0.1887152   -0.0023809
c    -0.2940599    3.4190890   -0.0891300  0.00   -0.0175621    0.0684372    0.0034604
c     0.9872197    2.8590292   -0.1560400  0.00    0.3351452    0.4636885    0.2291039
c     1.1340797    1.4562096   -0.1970299  0.00    0.1320297    0.1475999   -0.0070658
n     0.3879399   -0.6395298   -0.2140799  0.00    0.1446314    0.1113653   -0.0001691
c     2.2666594    0.5727398   -0.2659299  0.00    0.1531965   -0.0824109   -0.0279435
c     1.7555995   -0.7123598   -0.2706899  0.00   -0.1008329   -0.0974919    0.0041634
h    -0.2400399   -1.4313496   -0.2047299  0.00    0.0367838    0.0480744   -0.0014944
c     3.7030089    1.0223397   -0.3320099  0.00   -0.0048220    0.0239555    0.0371977
c     4.0547688    2.2615794    0.5049969  0.00    0.1183666   -0.0246975   -0.0935717
h     3.9407589    1.2278196   -1.3843196  0.00   -0.0005137   -0.0057680    0.0122581
h     4.3455988    0.1801669   -0.0411573  0.00   -0.0110388    0.0099177   -0.0057370
c     4.1070688    1.8611695    1.9910894  0.00   -0.2762022   -0.1195299    0.2709750
n     3.0543991    3.3796390    0.3726399  0.00   -0.3777038   -0.1771510   -0.2970789
h     5.0442386    2.6531392    0.2410219  0.00   -0.0255422    0.0109212    0.0112138
h     3.5723190    4.2128988    0.0750977  0.00   -0.0870342   -0.0688557   -0.0060495
h     2.4528293    3.1644491   -0.4302769  0.00    0.1703751    0.5800110    0.5999147
h    -2.4108593    3.0588691   -0.0157800  0.00   -0.0008200    0.0002500   -0.0002688
h    -2.1896094    0.5822398   -0.0890100  0.00   -0.0035844    0.0037781   -0.0002393
h    -0.4052699    4.5000487   -0.0535400  0.00    0.0003713    0.0004033   -0.0004138
h     1.8590495    3.5066790   -0.1715100  0.00   -0.1264791   -0.7986561   -0.4742625
h     2.2327294   -1.6813195   -0.3062999  0.00   -0.0407753   -0.0116674    0.0015393
o     3.1634591    1.4601196    2.6518892  0.00    0.2266375    0.0927855   -0.1682371
o     5.3616385    2.0083494    2.4960393  0.00   -0.0150602    0.0139057   -0.0526521
h     5.2610585    2.6448692    3.2505891  0.00   -0.0079970   -0.0058925   -0.0378948
    27
 Energy =       0.5582840642
c    -1.4383702    2.5383012    0.0649525  0.00   -0.0454923    0.0378610    0.0032379
c    -1.2896698    1.1519433   -0.0017880  0.00   -0.0830199   -0.0324439    0.0022083
c     0.0112321    0.6399642   -0.0763339  0.00   -0.0892675   -0.1724972   -0.0002972
c    -0.3296415    3.3755619    0.0325663  0.00   -0.0177590    0.0665536    0.0033327
c     0.9604554    2.8455440   -0.0632298  0.00    0.3136296    0.4453447    0.2190258
c     1.1475218    1.4516712   -0.1099890  0.00    0.1267405    0.1447050   -0.0048712
n     0.4379752   -0.6633350   -0.2489600  0.00    0.1431054    0.0994902   -0.0018207
c     2.2910892    0.5903222   -0.2566381  0.00    0.1474786   -0.0782512   -0.0255146
c     1.8067682   -0.7017063   -0.3142581  0.00   -0.0988158   -0.0914868    0.0046006
h    -0.1702218   -1.4727712   -0.2900688  0.00    0.0342816    0.0442952   -0.0017867
c     3.7127358    1.0656428   -0.4152160  0.00   -0.0036465    0.0237791    0.0382552
c     4.0746522    2.2773416    0.4427612  0.00    0.1147298   -0.0245852   -0.0915782
h     3.8656193    1.3228406   -1.4767302  0.00    0.0001224   -0.0043639    0.0073556
h     4.3994998    0.2309808   -0.1999104  0.00   -0.0079598    0.0071737   -0.0048690
c     4.1134179    1.8508669    1.9229727  0.00   -0.2699613   -0.1159903    0.2608552
n     3.0545429    3.3726855    0.3379566  0.00   -0.3677521   -0.1825917   -0.2722036
h     5.0563150    2.6913891    0.1841264  0.00   -0.0243864    0.0105200    0.0107164
h     3.5295361    4.2726571    0.1746357  0.00   -0.0750006   -0.0510796   -0.0104139
h     2.4318033    3.2206534   -0.4847703  0.00    0.1632150    0.5591721    0.5669102
h    -2.4358526    2.9685600    0.1243003  0.00   -0.0011371    0.0004074   -0.0002397
h    -2.1576238    0.5001230   -0.0089204  0.00   -0.0039439    0.0031649   -0.0002829
h    -0.4655357    4.4542805    0.0587359  0.00    0.0004121    0.0007954   -0.0004693
h     1.8128782    3.5398321   -0.1725987  0.00   -0.1173271   -0.7710617   -0.4533795
h     2.3062624   -1.6548975   -0.4528005  0.00   -0.0370090   -0.0165887    0.0007928
o     3.1393766    1.4584982    2.5564931  0.00    0.2185488    0.0896484   -0.1630109
o     5.3422527    2.0397554    2.4768031  0.00   -0.0116173    0.0119329   -0.0518958
h     5.1888567    2.6903287    3.2140387  0.00   -0.0081683   -0.0039034   -0.0346575
    27
 Energy =       0.5389590369
c    -1.4377118    2.5614548   -0.0776159  0.00   -0.0455488    0.0386874    0.0032924
c    -1.3034554    1.1701399   -0.1017173  0.00   -0.0826706   -0.0328918    0.0020675
c    -0.0078372    0.6437173   -0.1503706  0.00   -0.0906433   -0.1613421    0.0002676
c    -0.3190062    3.3886795   -0.1104948  0.00   -0.0185559    0.0665430    0.0032654
c     0.9685155    2.8439565   -0.1714983  0.00    0.2969757    0.4366392    0.2098686
c     1.1321712    1.4424715   -0.1831605  0.00    0.1261331    0.1471676   -0.0034664
n     0.4202119   -0.6759546   -0.1946640  0.00    0.1456861    0.0902009   -0.0020975
c     2.2780155    0.5761471   -0.2494395  0.00    0.1473044   -0.0768041   -0.0246373
c     1.7914518   -0.7182669   -0.2548830  0.00   -0.0991056   -0.0892061    0.0044799
h    -0.1903203   -1.4864121   -0.1832542  0.00    0.0329524    0.0420336   -0.0017854
c     3.7110309    1.0473351   -0.3423850  0.00   -0.0030647    0.0236088    0.0387671
c     4.0528152    2.2848122    0.5030316  0.00    0.1137591   -0.0242576   -0.0914402
h     3.9193710    1.2748291   -1.4032654  0.00    0.0004048   -0.0040282    0.0054715
h     4.3817155    0.2125294   -0.0754546  0.00   -0.0068288    0.0062515   -0.0045069
c     4.1144242    1.8809062    1.9857995  0.00   -0.2686922   -0.1153128    0.2585675
n     3.0349302    3.3871605    0.3849927  0.00   -0.3566976   -0.1784516   -0.2574724
h     5.0345478    2.6940185    0.2339097  0.00   -0.0241374    0.0104555    0.0106661
h     3.5362376    4.2650691    0.1404109  0.00   -0.0721978   -0.0464163   -0.0130851
h     2.4292118    3.1615143   -0.4379140  0.00    0.1570050    0.5432244    0.5476354
h    -2.4312076    3.0031977   -0.0344528  0.00   -0.0013065    0.0005519   -0.0002268
h    -2.1775104    0.5260898   -0.0823126  0.00   -0.0041358    0.0027112   -0.0002983
h    -0.4432115    4.4689445   -0.0888121  0.00    0.0004305    0.0008949   -0.0005055
h     1.8510504    3.5114731   -0.1844055  0.00   -0.1091809   -0.7571390   -0.4376888
h     2.2939306   -1.6822716   -0.3093922  0.00   -0.0352788   -0.0199291    0.0005723
o     3.1637425    1.4840803    2.6528374  0.00    0.2161422    0.0887319   -0.1619644
o     5.3607461    2.0712402    2.5044862  0.00   -0.0105758    0.0115845   -0.0516992
h     5.2320162    2.7201726    3.2481546  0.00   -0.0081729   -0.0035075   -0.0340473
    27
 Energy =       0.4476337139
c    -1.4286169    2.5390410   -0.2236216  0.00   -0.0349898    0.0308628    0.0027222
c    -1.2977778    1.1537875   -0.2006226  0.00   -0.0636236   -0.0261735    0.0016422
c    -0.0162535    0.6248174   -0.2263140  0.00   -0.0714112   -0.1121058   -0.0027211
c    -0.3120512    3.3619195   -0.2608742  0.00   -0.0150411    0.0514828    0.0028706
c     0.9712814    2.8208016   -0.2886888  0.00    0.2332272    0.3291140    0.1488298
c     1.1075971    1.4157959   -0.2639817  0.00    0.0947349    0.1159539   -0.0010712
n     0.4048520   -0.7102865   -0.1289882  0.00    0.1153507    0.0584772    0.0016273
c     2.2506281    0.5798039   -0.2461097  0.00    0.1155397   -0.0581192   -0.0199498
c     1.7917323   -0.7155467   -0.1967631  0.00   -0.0775911   -0.0661183    0.0014079
h    -0.1992277   -1.5336545   -0.0569790  0.00    0.0239406    0.0296652   -0.0003938
c     3.6896490    1.0632083   -0.2899356  0.00   -0.0018827    0.0180649    0.0303723
c     4.0191984    2.3092461    0.5727576  0.00    0.0877295   -0.0184694   -0.0703404
h     3.9281678    1.2951023   -1.3455370  0.00    0.0004757   -0.0030101    0.0037932
h     4.3577337    0.2284444   -0.0067960  0.00   -0.0051641    0.0047519   -0.0033990
c     4.1203160    1.9081039    2.0469212  0.00   -0.2098192   -0.0876596    0.1981737
n     3.0141697    3.4212901    0.4427304  0.00   -0.2762882   -0.1246449   -0.1889543
h     5.0072478    2.7036188    0.2881697  0.00   -0.0183953    0.0079615    0.0081017
h     3.5373929    4.3074834    0.2397375  0.00   -0.0536981   -0.0335573   -0.0097797
h     2.3929427    3.1222798   -0.4018081  0.00    0.0947120    0.3820091    0.4012770
h    -2.4213541    2.9832551   -0.1932060  0.00   -0.0010738    0.0005019   -0.0001463
h    -2.1713198    0.5105228   -0.1467172  0.00   -0.0035018    0.0014684   -0.0001186
h    -0.4365352    4.4420950   -0.2420995  0.00    0.0003590    0.0007107   -0.0001893
h     1.8795036    3.5298568   -0.1994729  0.00   -0.0628784   -0.5553499   -0.3138890
h     2.3424754   -1.6564285   -0.1746007  0.00   -0.0253805   -0.0190369    0.0002887
o     3.1597458    1.4921566    2.7546562  0.00    0.1673226    0.0681142   -0.1236912
o     5.3852406    2.0475361    2.5537585  0.00   -0.0031390   -0.0078307   -0.0534965
h     5.3191375    2.8127838    3.2125151  0.00   -0.0095143    0.0129372   -0.0129664
    27
 Energy =       0.4219037492
c    -1.4364797    2.5543271   -0.2063068  0.00   -0.0308846    0.0275313    0.0023825
c    -1.3071964    1.1720313   -0.2099538  0.00   -0.0563377   -0.0237564    0.0015381
c    -0.0304468    0.6434710   -0.2241294  0.00   -0.0619877   -0.0938185   -0.0017397
c    -0.3202925    3.3748603   -0.2188512  0.00   -0.0131085    0.0457687    0.0024746
c     0.9602944    2.8347840   -0.2391180  0.00    0.2075930    0.2919442    0.1330507
c     1.0902028    1.4316465   -0.2288506  0.00    0.0839917    0.1035506   -0.0010135
n     0.3774504   -0.7038020   -0.2158323  0.00    0.1002346    0.0473788    0.0003808
c     2.2271053    0.5994939   -0.2213065  0.00    0.1027671   -0.0505520   -0.0176446
c     1.7728630   -0.6951853   -0.2125083  0.00   -0.0658191   -0.0566951    0.0019975
h    -0.2314240   -1.5330035   -0.2157321  0.00    0.0187347    0.0228188   -0.0006338
c     3.6691948    1.0749405   -0.2784573  0.00   -0.0018639    0.0159750    0.0267486
c     4.0172828    2.3051007    0.6016047  0.00    0.0772065   -0.0162433   -0.0625749
h     3.8932032    1.3242792   -1.3340446  0.00    0.0004076   -0.0026339    0.0031118
h     4.3379152    0.2311403   -0.0191645  0.00   -0.0043633    0.0039642   -0.0029738
c     4.1399859    1.8713483    2.0636592  0.00   -0.1937765   -0.0756408    0.1716357
n     3.0258110    3.4289143    0.4852194  0.00   -0.2457944   -0.1107402   -0.1678635
h     5.0097776    2.6871183    0.3096971  0.00   -0.0161747    0.0071173    0.0070378
h     3.5625533    4.3065748    0.2782532  0.00   -0.0473290   -0.0296857   -0.0087119
h     2.3991026    3.1307689   -0.3702426  0.00    0.0840968    0.3386002    0.3573568
h    -2.4293175    2.9988359   -0.1864869  0.00   -0.0010399    0.0003991   -0.0001262
h    -2.1820094    0.5273717   -0.1963442  0.00   -0.0037332    0.0007246   -0.0000981
h    -0.4445429    4.4549334   -0.1951924  0.00    0.0003308    0.0006451   -0.0001831
h     1.8751881    3.5662236   -0.1680495  0.00   -0.0560487   -0.4920519   -0.2807225
h     2.3364396   -1.6281698   -0.2107523  0.00   -0.0226475   -0.0173054    0.0003756
o     3.1754954    1.4417561    2.7827087  0.00    0.1491310    0.0602418   -0.1083049
o     5.4311488    1.9005644    2.5418743  0.00    0.0063456   -0.0292239   -0.0577635
h     5.4765706    2.7567098    3.1064370  0.00   -0.0099308    0.0316875    0.0022632
    27
 Energy =       0.4113161831
c    -1.4229503    2.5712585   -0.2676831  0.00   -0.0298449    0.0265087    0.0023098
c    -1.3073106    1.1890341   -0.2640552  0.00   -0.0544220   -0.0228811    0.0015014
c    -0.0372530    0.6481351   -0.2569305  0.00   -0.0596393   -0.0902102   -0.0016142
c    -0.2986477    3.3796946   -0.2707118  0.00   -0.0127576    0.0441961    0.0023906
c     0.9762894    2.8268643   -0.2700357  0.00    0.1997854    0.2810623    0.1279342
c     1.0908409    1.4237827   -0.2434690  0.00    0.0805089    0.0997373   -0.0010019
n     0.3514233   -0.7043429   -0.2453661  0.00    0.0951447    0.0458431    0.0002101
c     2.2165568    0.5789285   -0.2009856  0.00    0.0988498   -0.0488479   -0.0166287
c     1.7479160   -0.7100784   -0.1922650  0.00   -0.0619975   -0.0545018    0.0020649
h    -0.2693887   -1.5256257   -0.2666988  0.00    0.0176411    0.0215560   -0.0006599
c     3.6694846    1.0237920   -0.2252240  0.00   -0.0020648    0.0153140    0.0261584
c     4.0264150    2.2778400    0.6174192  0.00    0.0732082   -0.0158743   -0.0612740
h     3.9319810    1.2286331   -1.2834288  0.00    0.0008790   -0.0021559    0.0014489
h     4.3113708    0.1743481    0.0852719  0.00   -0.0032447    0.0025062   -0.0025848
c     4.1507909    1.9086672    2.0967516  0.00   -0.1946701   -0.0728579    0.1613534
n     3.0482287    3.4056971    0.4668865  0.00   -0.2369026   -0.1060361   -0.1612080
h     5.0229415    2.6388905    0.3095332  0.00   -0.0153790    0.0072034    0.0060987
h     3.5986894    4.2743964    0.2564104  0.00   -0.0453900   -0.0283783   -0.0084294
h     2.4246001    3.1086443   -0.3932390  0.00    0.0810519    0.3262537    0.3438137
h    -2.4115632    3.0258985   -0.2643299  0.00   -0.0011910    0.0004622   -0.0001187
h    -2.1885966    0.5529644   -0.2624623  0.00   -0.0037228    0.0006421   -0.0000949
h    -0.4122755    4.4611940   -0.2557997  0.00    0.0002759    0.0007197   -0.0001743
h     1.8978365    3.5536814   -0.1886545  0.00   -0.0539365   -0.4736127   -0.2702090
h     2.3040096   -1.6476864   -0.1628976  0.00   -0.0214166   -0.0169561    0.0004040
o     3.1927422    1.4716407    2.8281527  0.00    0.1438670    0.0582323   -0.1033664
o     5.4262560    2.0593175    2.6086056  0.00    0.0178576   -0.0439213   -0.0631404
h     5.3554884    2.8614644    3.2633359  0.00   -0.0124900    0.0459966    0.0148164
    27
 Energy =       0.3898766558
c    -1.4190364    2.5819890   -0.2707430  0.00   -0.0270035    0.0241234    0.0021100
c    -1.3066416    1.2028827   -0.2283344  0.00   -0.0488321   -0.0211759    0.0013178
c    -0.0415923    0.6594144   -0.2183059  0.00   -0.0531997   -0.0791686   -0.0020500
c    -0.2937618    3.3849891   -0.3067818  0.00   -0.0111397    0.0400545    0.0022441
c     0.9774546    2.8295214   -0.3057999  0.00    0.1797420    0.2535486    0.1153449
c     1.0870465    1.4303271   -0.2406331  0.00    0.0724107    0.0898916   -0.0005021
n     0.3332065   -0.6973412   -0.1430842  0.00    0.0844676    0.0392797    0.0008533
c     2.2047361    0.5830603   -0.1930628  0.00    0.0889971   -0.0434563   -0.0148357
c     1.7347058   -0.7021182   -0.1456712  0.00   -0.0543349   -0.0485254    0.0013891
h    -0.2941509   -1.5171531   -0.1079457  0.00    0.0142650    0.0172762   -0.0003630
c     3.6607291    1.0108241   -0.2506463  0.00   -0.0014813    0.0138510    0.0235788
c     4.0365292    2.2606012    0.5862134  0.00    0.0655975   -0.0142247   -0.0549427
h     3.9036200    1.2142856   -1.3141836  0.00    0.0008147   -0.0019203    0.0011024
h     4.3028297    0.1575446    0.0503615  0.00   -0.0028318    0.0022401   -0.0023101
c     4.1655288    1.9024007    2.0663684  0.00   -0.1750091   -0.0652248    0.1447868
n     3.0661980    3.3892078    0.4298145  0.00   -0.2136091   -0.0969115   -0.1437841
h     5.0356292    2.6094786    0.2689068  0.00   -0.0137012    0.0064830    0.0054264
h     3.6202708    4.2643561    0.2609529  0.00   -0.0398817   -0.0244943   -0.0075849
h     2.4486165    3.1122359   -0.4593430  0.00    0.0736749    0.2945799    0.3081966
h    -2.4062315    3.0395001   -0.2679942  0.00   -0.0010853    0.0004173   -0.0001048
h    -2.1890586    0.5688104   -0.1931274  0.00   -0.0037302    0.0000941   -0.0000602
h    -0.4041766    4.4671515   -0.3179160  0.00    0.0003041    0.0010162   -0.0001618
h     1.9030012    3.5753716   -0.2429022  0.00   -0.0493678   -0.4264801   -0.2438413
h     2.2968979   -1.6354206   -0.1128215  0.00   -0.0192960   -0.0152991    0.0002911
o     3.1990568    1.4547738    2.7999136  0.00    0.1291275    0.0521976   -0.0928608
o     5.4337068    2.0723492    2.5914337  0.00    0.0165756   -0.0415243   -0.0580966
h     5.3407617    2.8379916    3.2834618  0.00   -0.0114735    0.0433520    0.0148569
    27
 Energy =       0.3489820785
c    -1.3958239    2.6459687   -0.3746949  0.00   -0.0205018    0.0185627    0.0018372
c    -1.3162045    1.2731072   -0.2802575  0.00   -0.0364814   -0.0163414    0.0011116
c    -0.0732605    0.7016877   -0.2247515  0.00   -0.0386038   -0.0570238   -0.0019400
c    -0.2534274    3.4164835   -0.4221620  0.00   -0.0088466    0.0304324    0.0020135
c     1.0001275    2.8332144   -0.3781562  0.00    0.1332982    0.1905282    0.0863843
c     1.0680873    1.4395554   -0.2492048  0.00    0.0516190    0.0661559    0.0002569
n     0.2467213   -0.6678794   -0.0918699  0.00    0.0620906    0.0268830    0.0005969
c     2.1525998    0.5704938   -0.1388588  0.00    0.0651961   -0.0331164   -0.0108540
c     1.6556096   -0.6970568   -0.0567514  0.00   -0.0386247   -0.0371181    0.0010058
h    -0.4089632   -1.4700112   -0.0459329  0.00    0.0097540    0.0118931   -0.0002029
c     3.6299330    0.9255965   -0.1875094  0.00   -0.0006513    0.0090151    0.0174432
c     4.0571248    2.1936053    0.5986769  0.00    0.0465904   -0.0108381   -0.0413513
h     3.8994483    1.0706821   -1.2567817  0.00    0.0016283   -0.0009454   -0.0009974
h     4.2279759    0.0553602    0.1630670  0.00   -0.0011792   -0.0005620   -0.0014202
c     4.2180867    1.9148985    2.0905705  0.00   -0.1342725   -0.0468800    0.1046695
n     3.1233396    3.3366939    0.4012745  0.00   -0.1602395   -0.0750962   -0.1041659
h     5.0639624    2.4902933    0.2391737  0.00   -0.0084065    0.0054937    0.0023487
h     3.7070786    4.2037439    0.2853212  0.00   -0.0269510   -0.0161423   -0.0049422
h     2.5227481    3.0757276   -0.5357103  0.00    0.0568956    0.2227998    0.2306952
h    -2.3719197    3.1271696   -0.4065809  0.00   -0.0016009    0.0009255   -0.0000893
h    -2.2130568    0.6604467   -0.2384582  0.00   -0.0029715   -0.0002805   -0.0000146
h    -0.3379859    4.5006769   -0.4766691  0.00   -0.0000625    0.0020676   -0.0001887
h     1.9527942    3.5996072   -0.3210131  0.00   -0.0395348   -0.3178595   -0.1873241
h     2.2137944   -1.6305072    0.0205204  0.00   -0.0134398   -0.0120082    0.0003140
o     3.2579635    1.4385835    2.8615268  0.00    0.0941375    0.0378687   -0.0666853
o     5.4684986    2.1960104    2.6264207  0.00    0.0253731   -0.0445879   -0.0546394
h     5.3006239    2.8528823    3.4169413  0.00   -0.0142149    0.0461743    0.0261384
    27
 Energy =       0.3315257377
c    -1.3682218    2.7346277   -0.4898020  0.00   -0.0173348    0.0159610    0.0015076
c    -1.3348719    1.3669099   -0.3447263  0.00   -0.0300072   -0.0137799    0.0010074
c    -0.1173027    0.7583631   -0.2391630  0.00   -0.0304478   -0.0443037   -0.0018712
c    -0.2013266    3.4642150   -0.5401012  0.00   -0.0078787    0.0257904    0.0016186
c     1.0298354    2.8437014   -0.4466289  0.00    0.1044025    0.1531367    0.0681716
c     1.0446836    1.4550061   -0.2607307  0.00    0.0391324    0.0517333    0.0004186
n     0.1426045   -0.6194146   -0.0470848  0.00    0.0490216    0.0191914    0.0005777
c     2.0920971    0.5572665   -0.0842135  0.00    0.0520765   -0.0272699   -0.0080949
c     1.5538652   -0.6882482    0.0306064  0.00   -0.0291682   -0.0312445    0.0010027
h    -0.5451094   -1.3973336    0.0080910  0.00    0.0067741    0.0083440   -0.0000790
c     3.5887644    0.8389163   -0.1137558  0.00   -0.0000768    0.0064160    0.0137492
c     4.0702912    2.1193665    0.6250072  0.00    0.0358953   -0.0078808   -0.0334129
h     3.8842071    0.9258213   -1.1844011  0.00    0.0023254   -0.0003500   -0.0025399
h     4.1391038   -0.0457741    0.2829449  0.00   -0.0000219   -0.0025984   -0.0007871
c     4.2850239    1.8962250    2.1182498  0.00   -0.1083254   -0.0360818    0.0821617
n     3.1631633    3.2745857    0.4112709  0.00   -0.1266162   -0.0630723   -0.0796462
h     5.0736700    2.3752498    0.2184144  0.00   -0.0051040    0.0047612    0.0006969
h     3.7657617    4.1386799    0.3588578  0.00   -0.0179371   -0.0097724   -0.0028485
h     2.5958958    3.0215112   -0.5705642  0.00    0.0467541    0.1792173    0.1851045
h    -2.3278085    3.2460876   -0.5606943  0.00   -0.0024385    0.0015770   -0.0001545
h    -2.2518802    0.7845211   -0.3012187  0.00   -0.0029092   -0.0006932    0.0000327
h    -0.2496354    4.5488043   -0.6354223  0.00   -0.0003419    0.0031864   -0.0002784
h     2.0206903    3.6052175   -0.3901169  0.00   -0.0337134   -0.2522452   -0.1545291
h     2.0900795   -1.6307080    0.1548383  0.00   -0.0097721   -0.0107644    0.0004457
o     3.3547805    1.4035230    2.9420580  0.00    0.0731099    0.0290809   -0.0506476
o     5.5354334    2.2454399    2.6200385  0.00    0.0260794   -0.0381260   -0.0458643
h     5.3620815    2.8344737    3.4563769  0.00   -0.0134781    0.0397868    0.0242588
    27
 Energy =       0.3299678450
c    -1.3332837    2.8465691   -0.5834056  0.00   -0.0168691    0.0154920    0.0012156
c    -1.3562678    1.4830803   -0.4027915  0.00   -0.0283537   -0.0132042    0.0009760
c    -0.1673078    0.8298886   -0.2589552  0.00   -0.0276519   -0.0393816   -0.0019102
c    -0.1372716    3.5283874   -0.6334164  0.00   -0.0075011    0.0250353    0.0012330
c     1.0670772    2.8627513   -0.5023081  0.00    0.0913121    0.1384447    0.0598013
c     1.0209123    1.4784591   -0.2751224  0.00    0.0336677    0.0456051    0.0004985
n     0.0276540   -0.5530729   -0.0221890  0.00    0.0435356    0.0156120    0.0006941
c     2.0268556    0.5433843   -0.0451094  0.00    0.0472564   -0.0249744   -0.0064403
c     1.4357428   -0.6758396    0.0915896  0.00   -0.0251256   -0.0298253    0.0012437
h    -0.6953836   -1.3003165    0.0379437  0.00    0.0048585    0.0061768    0.0000313
c     3.5403039    0.7474678   -0.0436572  0.00    0.0004624    0.0055842    0.0122073
c     4.0776969    2.0333573    0.6523815  0.00    0.0314763   -0.0060730   -0.0310326
h     3.8639595    0.7757845   -1.1111733  0.00    0.0032165    0.0000336   -0.0040940
h     4.0362565   -0.1506309    0.3983416  0.00    0.0009893   -0.0047147   -0.0001856
c     4.3615136    1.8452682    2.1391778  0.00   -0.0983360   -0.0316066    0.0730591
n     3.1870809    3.1988192    0.4467251  0.00   -0.1111364   -0.0614654   -0.0680569
h     5.0677546    2.2608167    0.1941285  0.00   -0.0030447    0.0044331   -0.0003757
h     3.7983220    4.0620578    0.4666552  0.00   -0.0118698   -0.0048686   -0.0010949
h     2.6655958    2.9575450   -0.5770221  0.00    0.0430327    0.1639938    0.1684182
h    -2.2714921    3.3935423   -0.6840269  0.00   -0.0033335    0.0022021   -0.0002657
h    -2.2967588    0.9379295   -0.3599866  0.00   -0.0034920   -0.0011953    0.0000799
h    -0.1413643    4.6119482   -0.7589213  0.00   -0.0004217    0.0043686   -0.0004177
h     2.1048168    3.5934961   -0.4509514  0.00   -0.0329613   -0.2257339   -0.1446720
h     1.9345457   -1.6345436    0.2551756  0.00   -0.0079599   -0.0112083    0.0006892
o     3.4747977    1.3553234    3.0230694  0.00    0.0637049    0.0249871   -0.0430335
o     5.6256540    2.2326772    2.5818099  0.00    0.0274955   -0.0343547   -0.0416117
h     5.4784655    2.7928841    3.4401689  0.00   -0.0129511    0.0366377    0.0230439
    27
 Energy =       0.3248308006
c    -1.3420282    2.7895158   -0.6852880  0.00   -0.0154289    0.0148516    0.0009653
c    -1.3601401    1.4330000   -0.4668323  0.00   -0.0261534   -0.0115724    0.0007510
c    -0.1715623    0.7924532   -0.2746778  0.00   -0.0250476   -0.0350733   -0.0018835
c    -0.1503302    3.4752779   -0.7263103  0.00   -0.0074832    0.0232941    0.0009812
c     1.0531127    2.8215630   -0.5463170  0.00    0.0819259    0.1240336    0.0534134
c     1.0117949    1.4477540   -0.2769845  0.00    0.0300213    0.0411770    0.0003969
n     0.0243343   -0.5824333    0.0069021  0.00    0.0383442    0.0137396    0.0005340
c     2.0166731    0.5322385    0.0130342  0.00    0.0432632   -0.0233677   -0.0053720
c     1.4314849   -0.6865996    0.1683103  0.00   -0.0215802   -0.0272105    0.0012924
h    -0.6950793   -1.3339697    0.0659510  0.00    0.0041250    0.0056937   -0.0000055
c     3.5307760    0.7421901    0.0478913  0.00   -0.0010971    0.0042093    0.0114347
c     4.0628425    2.0701754    0.6784831  0.00    0.0276247   -0.0046394   -0.0290965
h     3.8800088    0.7046870   -1.0131861  0.00    0.0032776   -0.0004262   -0.0060020
h     4.0143953   -0.1310496    0.5533706  0.00    0.0017670   -0.0063359    0.0007739
c     4.4097787    1.9519276    2.1605993  0.00   -0.0892065   -0.0287023    0.0651989
n     3.1512640    3.2146888    0.4489419  0.00   -0.1001557   -0.0535673   -0.0600627
h     5.0345733    2.2943249    0.1781963  0.00   -0.0019639    0.0045338   -0.0009150
h     3.7470025    4.0891892    0.4580107  0.00   -0.0103381   -0.0041191   -0.0007135
h     2.6611384    2.9344168   -0.5842473  0.00    0.0394910    0.1453503    0.1498259
h    -2.2804811    3.3284794   -0.8241714  0.00   -0.0035158    0.0027502   -0.0004487
h    -2.2980456    0.8835034   -0.4320081  0.00   -0.0032992   -0.0007620   -0.0000248
h    -0.1573654    4.5551258   -0.8823385  0.00   -0.0003807    0.0045451   -0.0005597
h     2.0712734    3.5792756   -0.4849489  0.00   -0.0300779   -0.2016598   -0.1300301
h     1.9363635   -1.6342504    0.3734983  0.00   -0.0068164   -0.0108712    0.0008471
o     3.5722682    1.4688264    3.1054535  0.00    0.0551971    0.0211082   -0.0356384
o     5.6806497    2.3914303    2.5399412  0.00    0.0298050   -0.0304779   -0.0375213
h     5.5611735    2.9252935    3.4168566  0.00   -0.0122972    0.0334985    0.0218590
    27
 Energy =       0.3173517095
c    -1.3812065    2.6669550   -0.6540789  0.00   -0.0160086    0.0150058    0.0007685
c    -1.3461037    1.3102126   -0.4355777  0.00   -0.0264254   -0.0118219    0.0007398
c    -0.1315396    0.7153808   -0.2503532  0.00   -0.0246781   -0.0340933   -0.0019145
c    -0.2166207    3.3975655   -0.6994161  0.00   -0.0073477    0.0238736    0.0007273
c     1.0118556    2.7899452   -0.5258623  0.00    0.0780352    0.1194896    0.0505383
c     1.0266748    1.4163153   -0.2611796  0.00    0.0286681    0.0392323    0.0005436
n     0.1213567   -0.6531743    0.0263706  0.00    0.0364435    0.0125875    0.0005990
c     2.0690455    0.5425108    0.0123549  0.00    0.0421571   -0.0226367   -0.0047265
c     1.5349624   -0.6998939    0.1711819  0.00   -0.0202293   -0.0273516    0.0015291
h    -0.5663223   -1.4346689    0.0920943  0.00    0.0029774    0.0043236    0.0000956
c     3.5729129    0.8192000    0.0107800  0.00   -0.0002350    0.0044402    0.0107896
c     4.0583693    2.1577202    0.6559301  0.00    0.0269171   -0.0042853   -0.0285991
h     3.8989649    0.8179040   -1.0589455  0.00    0.0037686   -0.0001711   -0.0066336
h     4.1072301   -0.0410137    0.4898064  0.00    0.0025132   -0.0075863    0.0012550
c     4.3610859    2.0411189    2.1484310  0.00   -0.0867705   -0.0274020    0.0631335
n     3.1300603    3.2861661    0.4040571  0.00   -0.0946533   -0.0545864   -0.0562435
h     5.0411738    2.3997761    0.1852346  0.00   -0.0012656    0.0042843   -0.0011979
h     3.7172370    4.1668139    0.3585642  0.00   -0.0076859   -0.0015071   -0.0002879
h     2.6048630    2.9865233   -0.6032968  0.00    0.0386906    0.1432388    0.1468193
h    -2.3406235    3.1705242   -0.7876922  0.00   -0.0042170    0.0031037   -0.0005495
h    -2.2626267    0.7247502   -0.3962328  0.00   -0.0040019   -0.0012409    0.0000089
h    -0.2656334    4.4776955   -0.8515964  0.00   -0.0003832    0.0053498   -0.0006702
h     1.9819231    3.5963835   -0.4572971  0.00   -0.0311264   -0.1939646   -0.1291010
h     2.0813841   -1.6278087    0.3621220  0.00   -0.0060303   -0.0116084    0.0010514
o     3.4944181    1.5457015    3.0623527  0.00    0.0528037    0.0200025   -0.0338843
o     5.6181103    2.4830506    2.5690370  0.00    0.0300534   -0.0295964   -0.0366348
h     5.4749242    3.0013800    3.4513423  0.00   -0.0119698    0.0329202    0.0218440
    27
 Energy =       0.3122607945
c    -1.4167696    2.5422962   -0.6438023  0.00   -0.0163317    0.0149554    0.0005989
c    -1.3333946    1.1884883   -0.4188378  0.00   -0.0263601   -0.0119125    0.0007182
c    -0.0974770    0.6379163   -0.2313335  0.00   -0.0240910   -0.0329937   -0.0019057
c    -0.2787227    3.3129565   -0.6917874  0.00   -0.0072179    0.0240800    0.0005153
c     0.9701695    2.7497108   -0.5153854  0.00    0.0742176    0.1145391    0.0476891
c     1.0356022    1.3801543   -0.2465096  0.00    0.0274238    0.0372867    0.0006746
n     0.2060916   -0.7209402    0.0495801  0.00    0.0344961    0.0114999    0.0006399
c     2.1094160    0.5487107    0.0256336  0.00    0.0411066   -0.0218933   -0.0043971
c     1.6222856   -0.7126746    0.1902109  0.00   -0.0188298   -0.0271315    0.0016953
h    -0.4515014   -1.5286085    0.1202807  0.00    0.0020573    0.0031443    0.0001854
c     3.6017788    0.8847569    0.0048776  0.00    0.0005357    0.0043530    0.0099285
c     4.0456730    2.2443906    0.6386761  0.00    0.0266274   -0.0041145   -0.0273296
h     3.9159774    0.8904475   -1.0681953  0.00    0.0037361   -0.0000783   -0.0064940
h     4.1734472    0.0472970    0.4823414  0.00    0.0029363   -0.0080377    0.0015550
c     4.3427244    2.1498122    2.1335974  0.00   -0.0837622   -0.0264108    0.0611245