    27
 Energy =      66.5760164533
c    -1.4235396    2.6054793   -0.0667700  0.00   -0.0463461    0.0383481    0.0026757
c    -1.3072796    1.2134697   -0.1072300  0.00   -0.0853237   -0.0326311    0.0019342
c    -0.0178900    0.6711998   -0.1697000  0.00   -0.0886085   -0.1877426   -0.0009136
c    -0.2940599    3.4190890   -0.0891300  0.00   -0.0231567    0.0691266    0.0028422
c     0.9872197    2.8590292   -0.1560400  0.00    0.0105623    0.0643256    0.0008564
c     1.1340797    1.4562096   -0.1970299  0.00    0.0532895    0.0516649    0.0022305
n     0.3879399   -0.6395298   -0.2140799  0.00    0.1443612    0.1075122   -0.0046998
c     2.2666594    0.5727398   -0.2659299  0.00    0.1501290   -0.0636934   -0.0067635
c     1.7555995   -0.7123598   -0.2706899  0.00   -0.0875196   -0.0976900    0.0098092
h    -0.2400399   -1.4313496   -0.2047299  0.00    0.0370018    0.0485409   -0.0001200
c     3.7030089    1.0223397   -0.3320099  0.00    0.0085318   -0.0146742   -0.0148645
c     4.7465686   -0.0024900    0.1378100  0.00   -0.0011627    0.0078660    0.0399453
h     3.7978489    1.9290294    0.2803699  0.00   -0.0056736   -0.0084944   -0.0118168
h     3.9233889    1.3348996   -1.3618196  0.00   -0.0019700   -0.0052419    0.0162488
c     4.8964886   -1.0916697   -0.9404947  0.00    0.0390741   -0.0144962   -0.3093703
n     4.3764788   -0.6892298    1.4261196  0.00    0.0315750   -1.1788840   -0.6212922
h     5.7313184    0.4619039    0.2668599  0.00   -0.0156316   -0.0099980    0.0070628
h     3.5102190   -0.2546209    1.7604995  0.00    0.0168926   -0.0027145   -0.0420665
h     4.0970388   -1.6495395    1.1968197  0.00  332.0072060 -492.9972142 -628.4838373
h    -2.4108593    3.0588691   -0.0157800  0.00   -0.0006464    0.0001872    0.0000793
h    -2.1896094    0.5822398   -0.0890100  0.00   -0.0036043    0.0039076    0.0001443
h    -0.4052699    4.5000487   -0.0535400  0.00    0.0008940    0.0000618    0.0003409
h     1.8590495    3.5066790   -0.1715100  0.00   -0.0006785    0.0027252    0.0008159
h     2.2327294   -1.6813195   -0.3062999  0.00   -0.0343694   -0.0085588    0.0058277
o     5.1775685   -0.8974357   -2.1114694  0.00   -0.0713473   -0.0536189    0.2882501
o     4.6751387   -2.3299593   -0.4225999  0.00   -0.1183982    0.2028624    0.3829220
h     4.4490287   -2.1723194    0.5306228  0.00 -331.9150807  494.0785240  628.7337593
    27
 Energy =       5.2114136736
c    -1.4235336    2.6054743   -0.0667703  0.00   -0.0463455    0.0383409    0.0026601
c    -1.3072686    1.2134739   -0.1072302  0.00   -0.0853216   -0.0326375    0.0019182
c    -0.0178785    0.6712242   -0.1696998  0.00   -0.0885122   -0.1876144   -0.0008539
c    -0.2940569    3.4190801   -0.0891303  0.00   -0.0231639    0.0691135    0.0028251
c     0.9872183    2.8590208   -0.1560401  0.00    0.0105383    0.0643375    0.0008268
c     1.1340728    1.4562029   -0.1970302  0.00    0.0532889    0.0515932    0.0022702
n     0.3879212   -0.6395438   -0.2140793  0.00    0.1441418    0.1073175   -0.0050011
c     2.2666399    0.5727481   -0.2659290  0.00    0.1500899   -0.0637156   -0.0067145
c     1.7556109   -0.7123471   -0.2706912  0.00   -0.0874505   -0.0976081    0.0098657
h    -0.2400447   -1.4313559   -0.2047299  0.00    0.0370502    0.0486164   -0.0000183
c     3.7030078    1.0223416   -0.3320080  0.00    0.0086477   -0.0146341   -0.0151765
c     4.7465688   -0.0024910    0.1378048  0.00    0.0054096    0.0342994    0.0398488
h     3.7978497    1.9290306    0.2803715  0.00   -0.0056988   -0.0085693   -0.0117196
h     3.9233891    1.3349003   -1.3618217  0.00   -0.0020108   -0.0051929    0.0163386
c     4.8964835   -1.0916678   -0.9404546  0.00    0.0457411   -0.0132059   -0.3311558
n     4.3764747   -0.6890769    1.4262002  0.00   -0.0015755   -0.7245018   -0.3430881
h     5.7313204    0.4619052    0.2668590  0.00   -0.0157531   -0.0098986    0.0073047
h     3.5102168   -0.2546206    1.7605050  0.00    0.0109089   -0.0138989   -0.0428582
h     4.0539728   -1.5855908    1.2783429  0.00   19.2657564  -28.4133518  -36.4361333
h    -2.4108592    3.0588691   -0.0157800  0.00   -0.0006436    0.0001875    0.0000895
h    -2.1896089    0.5822393   -0.0890100  0.00   -0.0036031    0.0039052    0.0001602
h    -0.4052700    4.5000487   -0.0535400  0.00    0.0008998    0.0000617    0.0003533
h     1.8590496    3.5066786   -0.1715101  0.00   -0.0006691    0.0027108    0.0008416
h     2.2327338   -1.6813184   -0.3063007  0.00   -0.0351859   -0.0081788    0.0059026
o     5.1775778   -0.8974288   -2.1115068  0.00   -0.0709171   -0.0543211    0.2887755
o     4.6751540   -2.3299856   -0.4226495  0.00   -0.0944127    0.1669387    0.3812305
h     4.4920828   -2.2364083    0.4490672  0.00  -19.1712093   29.0599064   36.4315080
    27
 Energy =       3.3756910156
c    -1.3688075    2.6104367   -0.0812979  0.00   -0.0227592    0.0186742    0.0013169
c    -1.2731101    1.2344066   -0.1102860  0.00   -0.0428440   -0.0166255    0.0009054
c    -0.0181185    0.6767996   -0.1549524  0.00   -0.0417852   -0.0940324   -0.0002202
c    -0.2339314    3.3943405   -0.1017301  0.00   -0.0122882    0.0345066    0.0015013
c     1.0189832    2.8128073   -0.1523523  0.00    0.0056635    0.0328459    0.0002537
c     1.1168923    1.4319945   -0.1762202  0.00    0.0257398    0.0266622    0.0006103
n     0.3267795   -0.6726200   -0.2080342  0.00    0.0708649    0.0517566   -0.0034224
c     2.2145372    0.5788096   -0.2338658  0.00    0.0770695   -0.0323077   -0.0024237
c     1.7269792   -0.6973587   -0.2553191  0.00   -0.0447436   -0.0456873    0.0072008
h    -0.3154332   -1.4755356   -0.2073017  0.00    0.0186842    0.0247908   -0.0001150
c     3.6564129    1.0275118   -0.3295588  0.00    0.0040338   -0.0072945   -0.0088462
c     4.7145910   -0.0092694    0.1048220  0.00    0.0029608    0.0112143    0.0169496
h     3.7804729    1.9244369    0.3045097  0.00   -0.0028462   -0.0040721   -0.0051883
h     3.8544538    1.3513307   -1.3689973  0.00   -0.0008552   -0.0026116    0.0081984
c     4.8704050   -1.0973919   -0.9331701  0.00    0.0210700   -0.0079760   -0.1641635
n     4.3934483   -0.6467686    1.4146400  0.00    0.0443856   -0.4044384   -0.2287236
h     5.7061573    0.4722799    0.1852233  0.00   -0.0069972   -0.0049313    0.0040679
h     3.6284031   -0.0958675    1.8866232  0.00   -0.0192518    0.0107390   -0.0081277
h     3.9943800   -1.6287313    1.3499590  0.00   11.8403633  -17.5514539  -22.4337730
h    -2.3486667    3.0816067   -0.0479993  0.00   -0.0005075    0.0004423   -0.0002463
h    -2.1620890    0.6125667   -0.1024832  0.00   -0.0018184    0.0020557   -0.0001119
h    -0.3240271    4.4783400   -0.0836900  0.00    0.0005191    0.0005753   -0.0001490
h     1.9083341    3.4363525   -0.1752686  0.00    0.0003418    0.0014792    0.0001599
h     2.2683289   -1.6325087   -0.3359784  0.00   -0.0159054   -0.0059935    0.0030530
o     5.1726084   -0.8618248   -2.1812372  0.00   -0.0359804   -0.0253324    0.1466017
o     4.6610083   -2.3617247   -0.4414691  0.00   -0.0534532    0.0988061    0.2131094
h     4.4498323   -2.3030162    0.4886735  0.00  -11.8096610   17.8882085   22.4515825
    27
 Energy =       1.8597840611
c    -1.3177766    2.6166248   -0.1075001  0.00   -0.0055937    0.0042093    0.0004209
c    -1.2462333    1.2510678   -0.1162432  0.00   -0.0113923   -0.0049096    0.0005977
c    -0.0194966    0.6738286   -0.1161756  0.00   -0.0085624   -0.0253220    0.0005077
c    -0.1726161    3.3701200   -0.1043420  0.00   -0.0035166    0.0090394    0.0004896
c     1.0548632    2.7639311   -0.1121650  0.00    0.0032855    0.0084237   -0.0002266
c     1.1084467    1.3995896   -0.1170047  0.00    0.0075529    0.0068477   -0.0008011
n     0.2767033   -0.7038019   -0.1869396  0.00    0.0187348    0.0124898   -0.0007109
c     2.1759144    0.5660951   -0.1725504  0.00    0.0213154   -0.0074310    0.0003141
c     1.6998861   -0.7015575   -0.2474308  0.00   -0.0134951   -0.0103017    0.0030675
h    -0.3789179   -1.5129938   -0.1964315  0.00    0.0049465    0.0065687    0.0002627
c     3.6206104    1.0175350   -0.3007718  0.00    0.0007539   -0.0045429   -0.0035843
c     4.6983423   -0.0019599    0.1506772  0.00    0.0006717    0.0040113    0.0070291
h     3.7721606    1.9552971    0.2743915  0.00    0.0002519    0.0023507   -0.0048498
h     3.7877895    1.2810809   -1.3739206  0.00   -0.0000237   -0.0050609   -0.0036633
c     4.8938224   -1.0509242   -0.9305071  0.00    0.0114885    0.0019788   -0.0356085
n     4.3753772   -0.6508274    1.4641966  0.00    0.0285201   -0.1806969   -0.0910432
h     5.6817879    0.5117401    0.2264444  0.00   -0.0005441   -0.0009042   -0.0016603
h     3.6998113   -0.0514062    2.0101791  0.00   -0.0088550    0.0167537    0.0035189
h     3.9465870   -1.6396562    1.3234294  0.00    5.8093014   -8.6473123  -11.0345459
h    -2.2888419    3.1075049   -0.1200548  0.00   -0.0007988    0.0005699   -0.0011426
h    -2.1439096    0.6417539   -0.1402960  0.00   -0.0007296    0.0002345   -0.0005895
h    -0.2381095    4.4561454   -0.1121218  0.00    0.0004976    0.0005799   -0.0007891
h     1.9595795    3.3647834   -0.1310054  0.00    0.0015990   -0.0003057   -0.0000774
h     2.2770447   -1.6086409   -0.4160144  0.00   -0.0023570   -0.0059136   -0.0007207
o     5.1585189   -0.7030716   -2.2329597  0.00   -0.0155616   -0.0055587    0.0325449
o     4.6089483   -2.3600694   -0.5752665  0.00   -0.0314605    0.0243753    0.0685725
h     4.4285317   -2.3507861    0.4136215  0.00   -5.8060287    8.7998265   11.0626875
    27
 Energy =       1.3641951985
c    -1.3187608    2.6313732   -0.0747639  0.00   -0.0032673    0.0032924    0.0003519
c    -1.2510160    1.2671431   -0.1247027  0.00   -0.0069364   -0.0031431    0.0004872
c    -0.0281974    0.6865673   -0.1589139  0.00   -0.0046745   -0.0158177    0.0006102
c    -0.1723875    3.3803141   -0.0651611  0.00   -0.0022343    0.0058363    0.0002848
c     1.0505532    2.7707822   -0.1042825  0.00    0.0023607    0.0054021   -0.0001320
c     1.0977692    1.4088453   -0.1488112  0.00    0.0048663    0.0036192   -0.0004216
n     0.2639723   -0.6948723   -0.2555883  0.00    0.0113040    0.0073155   -0.0006609
c     2.1604539    0.5787374   -0.2175643  0.00    0.0119619   -0.0053332    0.0003766
c     1.6923468   -0.6874569   -0.3068847  0.00   -0.0081128   -0.0059858    0.0023751
h    -0.3935403   -1.5047472   -0.2818799  0.00    0.0027125    0.0039201    0.0002333
c     3.6094801    1.0271085   -0.2949765  0.00    0.0003850   -0.0035403   -0.0024220
c     4.6629917   -0.0120977    0.1634825  0.00   -0.0010537    0.0017446    0.0042719
h     3.7473806    1.9391423    0.3259909  0.00    0.0006927    0.0022806   -0.0021755
h     3.8151578    1.3275150   -1.3517154  0.00    0.0002721   -0.0029372   -0.0036196
c     4.9125334   -1.0480220   -0.9218091  0.00    0.0057851    0.0075124   -0.0190628
n     4.3049504   -0.6556558    1.4647024  0.00    0.0269410   -0.1089716   -0.0624202
h     5.6440586    0.5015127    0.2779272  0.00    0.0002619   -0.0004052   -0.0009507
h     3.5410582   -0.1270622    1.9709709  0.00   -0.0126567    0.0166267    0.0077866
h     4.0259402   -1.6945398    1.3446905  0.00    3.9200364   -5.8515099   -7.4538914
h    -2.2880086    3.1258950   -0.0534138  0.00   -0.0007751    0.0010403   -0.0005032
h    -2.1506291    0.6611628   -0.1473835  0.00   -0.0004558    0.0004043   -0.0001730
h    -0.2340971    4.4667708   -0.0355842  0.00    0.0003853    0.0012135   -0.0003807
h     1.9567281    3.3695441   -0.1108818  0.00    0.0011422   -0.0000216   -0.0000436
h     2.2902689   -1.5889039   -0.4454265  0.00    0.0004430   -0.0043509   -0.0002011
o     5.2375731   -0.6732403   -2.2127717  0.00   -0.0083872   -0.0041470    0.0167408
o     4.7207223   -2.3866549   -0.5888429  0.00   -0.0198888    0.0093903    0.0390702
h     4.5215220   -2.4277583    0.4068322  0.00   -3.9211075    5.9365649    7.4744698
    27
 Energy =       0.9882692651
c    -1.3388818    2.6150405   -0.0770099  0.00   -0.0022737    0.0020891    0.0002486
c    -1.2616428    1.2544146   -0.1729307  0.00   -0.0040612   -0.0026784    0.0003277
c    -0.0363353    0.6833257   -0.2051736  0.00   -0.0030972   -0.0094104    0.0005647
c    -0.1978715    3.3698853   -0.0205309  0.00   -0.0005269    0.0039388    0.0001925
c     1.0279935    2.7694157   -0.0571556  0.00    0.0015767    0.0038888   -0.0000605
c     1.0829804    1.4113164   -0.1474348  0.00    0.0028586    0.0019014   -0.0002732
n     0.2654985   -0.6956658   -0.3344103  0.00    0.0054584    0.0037822   -0.0006413
c     2.1518418    0.5936967   -0.2123353  0.00    0.0060381   -0.0037302    0.0005262
c     1.6979295   -0.6734046   -0.3432812  0.00   -0.0042055   -0.0037103    0.0014917
h    -0.3858138   -1.5108999   -0.4002364  0.00    0.0006266    0.0011927   -0.0000222
c     3.6011348    1.0577426   -0.2213381  0.00   -0.0002466   -0.0041224   -0.0010884
c     4.6541950   -0.0094748    0.1739372  0.00   -0.0007187   -0.0002174    0.0033770
h     3.7146173    1.9153684    0.4847440  0.00    0.0010333    0.0051381    0.0019309
h     3.8313926    1.4497110   -1.2454381  0.00    0.0011152    0.0000536   -0.0061861
c     4.8981238   -1.0131884   -0.9494121  0.00    0.0034836    0.0084987   -0.0101991
n     4.3195557   -0.6760356    1.4657201  0.00    0.0214823   -0.0661557   -0.0410049
h     5.6374524    0.4999851    0.2897357  0.00    0.0002114   -0.0003047   -0.0005061
h     3.4960638   -0.2295128    1.9553897  0.00   -0.0125932    0.0135949    0.0083830
h     4.1391690   -1.7283466    1.3306234  0.00    2.5200496   -3.7657343   -4.7948705
h    -2.3113246    3.1022073   -0.0533302  0.00   -0.0004058    0.0007194   -0.0002176
h    -2.1566611    0.6430707   -0.2300261  0.00   -0.0006974   -0.0001821   -0.0001014
h    -0.2667498    4.4544479    0.0480016  0.00    0.0004673    0.0015521   -0.0001118
h     1.9311134    3.3730778   -0.0225617  0.00    0.0013647    0.0006537    0.0000350
h     2.3114835   -1.5658224   -0.4675669  0.00    0.0010608   -0.0026679    0.0000211
o     5.1459312   -0.5832047   -2.2489475  0.00   -0.0040896    0.0005907    0.0040327
o     4.8160832   -2.3782525   -0.6466318  0.00   -0.0118214   -0.0005258    0.0203199
h     4.6515456   -2.4874952    0.3608378  0.00   -2.5220894    3.8118455    4.8138320
    27
 Energy =       0.5615074757
c    -1.3536225    2.6173883   -0.0714263  0.00   -0.0001486    0.0004614    0.0000826
c    -1.2738749    1.2618736   -0.2013301  0.00   -0.0001937   -0.0004281    0.0002077
c    -0.0498926    0.6936729   -0.2416605  0.00   -0.0003687   -0.0008411    0.0003014
c    -0.2147905    3.3700375    0.0111968  0.00    0.0002780    0.0005387   -0.0000727
c     1.0100613    2.7717556   -0.0310711  0.00    0.0002066    0.0006681   -0.0001008
c     1.0658030    1.4190250   -0.1554627  0.00    0.0001555   -0.0000486   -0.0000389
n     0.2525053   -0.6852385   -0.3884023  0.00    0.0000698    0.0001844    0.0000623
c     2.1346071    0.6066807   -0.2207603  0.00   -0.0006771   -0.0008744    0.0001009
c     1.6873199   -0.6571099   -0.3805865  0.00   -0.0003378   -0.0004946    0.0004437
h    -0.3974761   -1.5008279   -0.4750801  0.00   -0.0003397   -0.0001293    0.0002594
c     3.5847973    1.0690126   -0.1685889  0.00    0.0000812   -0.0014727    0.0001371
c     4.6354218   -0.0150199    0.1910268  0.00   -0.0010345   -0.0001981    0.0010091
h     3.6751782    1.8773577    0.5938822  0.00    0.0006633    0.0023517    0.0016760
h     3.8400792    1.5259536   -1.1559847  0.00    0.0005398    0.0007700   -0.0029329
c     4.9073821   -0.9917963   -0.9599533  0.00   -0.0002797    0.0094241   -0.0014191
n     4.3109629   -0.6888048    1.4782655  0.00    0.0178457   -0.0143295   -0.0160745
h     5.6148151    0.5000536    0.3176224  0.00    0.0000776   -0.0000845   -0.0003269
h     3.4006023   -0.3623548    1.9061183  0.00   -0.0159406    0.0094665    0.0091558
h     4.2590167   -1.7527537    1.3363338  0.00    0.9927500   -1.4931846   -1.8941240
h    -2.3264408    3.1021403   -0.0377610  0.00    0.0000640    0.0003432    0.0000916
h    -2.1673156    0.6508069   -0.2738076  0.00   -0.0001223    0.0000708    0.0002372
h    -0.2854993    4.4515201    0.1083657  0.00    0.0002297    0.0006306   -0.0000828
h     1.9120327    3.3740316    0.0275686  0.00    0.0003798    0.0003123   -0.0001385
h     2.3097315   -1.5436755   -0.4933820  0.00    0.0008610   -0.0004257    0.0004035
o     5.1213085   -0.5097445   -2.2512044  0.00   -0.0002735    0.0010963   -0.0023560
o     4.9558129   -2.3747388   -0.7059354  0.00   -0.0009528   -0.0090684   -0.0003586
h     4.8102987   -2.5678427    0.2952556  0.00   -0.9935329    1.4952614    1.9038575
    27
 Energy =       0.4902006958
c    -1.3546145    2.6059808   -0.0618498  0.00   -0.0007181    0.0008956    0.0001474
c    -1.2685158    1.2568285   -0.2514647  0.00   -0.0003191   -0.0018706   -0.0000563
c    -0.0422366    0.6939752   -0.2944656  0.00   -0.0006587   -0.0007802    0.0002189
c    -0.2195403    3.3580203    0.0755601  0.00    0.0011111    0.0015943    0.0001632
c     1.0078632    2.7653027    0.0283480  0.00    0.0003440    0.0020054    0.0001575
c     1.0700486    1.4183298   -0.1554462  0.00    0.0006018    0.0000700    0.0000086
n     0.2661536   -0.6773265   -0.4986110  0.00    0.0003388   -0.0011863   -0.0001660
c     2.1422175    0.6113491   -0.2385800  0.00   -0.0001528    0.0009318    0.0003948
c     1.7005863   -0.6460466   -0.4638964  0.00   -0.0009108   -0.0015989    0.0000516
h    -0.3799603   -1.4907780   -0.6338333  0.00   -0.0013799   -0.0016158   -0.0000733
c     3.5912656    1.0726475   -0.1477104  0.00    0.0001861   -0.0008248    0.0001573
c     4.6312511   -0.0154870    0.2316568  0.00   -0.0006616   -0.0000275    0.0006663
h     3.6649523    1.8741283    0.6226266  0.00    0.0005367    0.0017798    0.0013678
h     3.8709943    1.5369926   -1.1244285  0.00    0.0004668    0.0006675   -0.0024423
c     4.9380105   -0.9779350   -0.9244435  0.00   -0.0003904    0.0068973   -0.0002357
n     4.2683286   -0.6992565    1.5035952  0.00    0.0129510   -0.0105541   -0.0110409
h     5.6066938    0.4987854    0.3925306  0.00    0.0005751    0.0001298   -0.0001458
h     3.3536615   -0.3686165    1.9107344  0.00   -0.0117583    0.0067133    0.0067974
h     4.1963644   -1.7565948    1.3473037  0.00    0.7488581   -1.1268493   -1.4290894
h    -2.3294901    3.0862856   -0.0242539  0.00    0.0000478    0.0003528    0.0001082
h    -2.1588114    0.6464964   -0.3684500  0.00   -0.0007735   -0.0007514    0.0000469
h    -0.2952918    4.4347623    0.2203299  0.00    0.0003793    0.0016875    0.0001382
h     1.9064041    3.3681334    0.1301010  0.00    0.0009364    0.0010417    0.0000258
h     2.3262086   -1.5260615   -0.6080781  0.00    0.0004931   -0.0009759    0.0001711
o     5.2152430   -0.4727719   -2.1961132  0.00    0.0003324    0.0019637   -0.0044826
o     4.9506297   -2.3664615   -0.7019093  0.00   -0.0004613   -0.0071043   -0.0015564
h     4.7604082   -2.5892795    0.2839859  0.00   -0.7499740    1.1274087    1.4386676
    27
 Energy =       0.4008703156
c    -1.3534647    2.5946684   -0.0478825  0.00   -0.0009054    0.0011325    0.0002137
c    -1.2602847    1.2555048   -0.2980955  0.00   -0.0002856   -0.0024539   -0.0002491
c    -0.0318618    0.6980289   -0.3468953  0.00   -0.0007261   -0.0005654    0.0001097
c    -0.2230005    3.3426375    0.1423593  0.00    0.0013911    0.0019952    0.0003460
c     1.0068478    2.7556117    0.0877600  0.00    0.0003493    0.0025417    0.0003575
c     1.0762377    1.4179510   -0.1564003  0.00    0.0007591    0.0001246    0.0000424
n     0.2830706   -0.6622756   -0.6093397  0.00    0.0005779   -0.0019236   -0.0003240
c     2.1518102    0.6170653   -0.2591719  0.00    0.0001742    0.0019687    0.0005472
c     1.7165638   -0.6297100   -0.5504146  0.00   -0.0012304   -0.0020651   -0.0002931
h    -0.3585228   -1.4705122   -0.7925864  0.00   -0.0017998   -0.0022689   -0.0003345
c     3.5992985    1.0740189   -0.1278240  0.00    0.0001857   -0.0001180    0.0001467
c     4.6247729   -0.0205403    0.2740767  0.00   -0.0001892    0.0000799    0.0003683
h     3.6564237    1.8688800    0.6490935  0.00    0.0003365    0.0009247    0.0008253
h     3.9059764    1.5445497   -1.0924868  0.00    0.0003198    0.0004576   -0.0015902
c     4.9691193   -0.9671793   -0.8866270  0.00   -0.0005734    0.0038376    0.0009729
n     4.2194168   -0.7114874    1.5292825  0.00    0.0066625   -0.0052975   -0.0049919
h     5.5952689    0.4912487    0.4715924  0.00    0.0008776    0.0002476    0.0000351
h     3.3071549   -0.3654903    1.9177779  0.00   -0.0061936    0.0031399    0.0034846
h     4.1113272   -1.7586030    1.3577551  0.00    0.4497070   -0.6780051   -0.8591835
h    -2.3303192    3.0703853   -0.0039845  0.00    0.0000479    0.0003477    0.0001372
h    -2.1467615    0.6486847   -0.4577599  0.00   -0.0009923   -0.0010950   -0.0000930
h    -0.3043941    4.4117780    0.3353539  0.00    0.0004047    0.0021139    0.0003279
h     1.9011743    3.3563931    0.2314341  0.00    0.0010912    0.0013048    0.0001633
h     2.3456198   -1.5011369   -0.7281824  0.00    0.0000959   -0.0012196   -0.0000945
o     5.3189956   -0.4348066   -2.1300878  0.00    0.0009847    0.0026903   -0.0059667
o     4.9386416   -2.3608566   -0.7087504  0.00    0.0000224   -0.0045746   -0.0022742
h     4.6997135   -2.6234054    0.2532423  0.00   -0.4510917    0.6766801    0.8673169
    27
 Energy =       0.3747173632
c    -1.3866574    2.5297341   -0.1681985  0.00   -0.0016608    0.0011227    0.0001313
c    -1.2610515    1.1906147   -0.4039515  0.00   -0.0012533   -0.0019645   -0.0002973
c    -0.0210938    0.6544062   -0.4049934  0.00   -0.0005502   -0.0006389    0.0000663
c    -0.2761097    3.2987876    0.0550582  0.00    0.0007512    0.0023804    0.0003753
c     0.9659848    2.7331210    0.0478250  0.00    0.0012548    0.0020950    0.0003679
c     1.0675837    1.3951187   -0.1825764  0.00    0.0010585    0.0001058    0.0000672
n     0.3272090   -0.7015944   -0.6470458  0.00   -0.0004303   -0.0018261   -0.0003874
c     2.1611985    0.6132726   -0.2441271  0.00    0.0007678    0.0013700    0.0004189
c     1.7581484   -0.6428596   -0.5412011  0.00    0.0001256   -0.0019900   -0.0002042
h    -0.2935563   -1.5223905   -0.8457850  0.00   -0.0018746   -0.0022937   -0.0003863
c     3.5956632    1.0996746   -0.0749897  0.00    0.0004305   -0.0001042   -0.0000381
c     4.6324653    0.0275722    0.3580238  0.00   -0.0003102   -0.0002960    0.0010895
h     3.6153529    1.8986362    0.7001649  0.00    0.0003367    0.0011737    0.0011890
h     3.9190055    1.5732180   -1.0325960  0.00    0.0003202    0.0003883   -0.0014176
c     5.0292538   -0.9095161   -0.7949364  0.00   -0.0008443    0.0027132    0.0019661
n     4.2046088   -0.6706769    1.6012167  0.00    0.0061769   -0.0031422   -0.0035889
h     5.5860875    0.5602032    0.5838087  0.00    0.0013543    0.0004376    0.0002498
h     3.3082621   -0.2939188    1.9977785  0.00   -0.0058319    0.0029494    0.0030374
h     4.0537263   -1.7088465    1.4126522  0.00    0.3649096   -0.5524586   -0.6978968
h    -2.3734312    2.9885807   -0.1627376  0.00   -0.0008664    0.0006499    0.0000825
h    -2.1311464    0.5672791   -0.5900324  0.00   -0.0014071   -0.0011046   -0.0001810
h    -0.3831105    4.3677578    0.2360066  0.00    0.0002103    0.0021024    0.0003121
h     1.8446365    3.3506915    0.2167178  0.00    0.0014359    0.0013061    0.0002024
h     2.4084981   -1.5030556   -0.6971724  0.00    0.0005432   -0.0014258   -0.0001013
o     5.4602864   -0.3622789   -2.0082835  0.00    0.0022173    0.0040499   -0.0089183
o     4.9545467   -2.3055004   -0.6481207  0.00    0.0004901   -0.0039023   -0.0039556
h     4.6524636   -2.5866280    0.2907335  0.00   -0.3673540    0.5483026    0.7078171
    27
 Energy =       0.3536190823
c    -1.4470665    2.4053127   -0.1295791  0.00   -0.0022094    0.0014474    0.0001536
c    -1.2766047    1.0739844   -0.3826694  0.00   -0.0017728   -0.0020569   -0.0003761
c    -0.0182454    0.5808505   -0.3988416  0.00   -0.0006506   -0.0005410    0.0000623
c    -0.3619113    3.2097543    0.0950766  0.00    0.0002656    0.0028803    0.0004668
c     0.8995705    2.6875537    0.0716645  0.00    0.0016731    0.0021957    0.0004311
c     1.0463059    1.3562032   -0.1755329  0.00    0.0010211    0.0000734    0.0000626
n     0.3753914   -0.7589094   -0.6635551  0.00   -0.0007636   -0.0022590   -0.0004924
c     2.1667888    0.6134593   -0.2581351  0.00    0.0010471    0.0010083    0.0003198
c     1.8050609   -0.6515155   -0.5710229  0.00    0.0008361   -0.0021074   -0.0002013
h    -0.2182146   -1.5983298   -0.8683788  0.00   -0.0020131   -0.0025666   -0.0004844
c     3.5867189    1.1470697   -0.1048076  0.00    0.0004820    0.0005286   -0.0003834
c     4.6558968    0.1159963    0.3517659  0.00   -0.0003912   -0.0010207    0.0017298
h     3.5862696    1.9641037    0.6514320  0.00    0.0004987    0.0013426    0.0013132
h     3.8934287    1.6088532   -1.0735943  0.00    0.0001526    0.0005986   -0.0013589
c     5.0991292   -0.8156966   -0.7888769  0.00   -0.0007129    0.0015429    0.0020509
n     4.2369835   -0.5869270    1.5943842  0.00    0.0069267   -0.0016765   -0.0030079
h     5.5877659    0.6841272    0.5848317  0.00    0.0018044    0.0007605    0.0004246
h     3.3682870   -0.1790821    2.0220387  0.00   -0.0064433    0.0032194    0.0033818
h     4.0391077   -1.6143803    1.3920081  0.00    0.2978120   -0.4532912   -0.5706857
h    -2.4495361    2.8298275   -0.1118941  0.00   -0.0014398    0.0008891    0.0000854
h    -2.1261636    0.4232248   -0.5711217  0.00   -0.0016294   -0.0012419   -0.0002504
h    -0.5047159    4.2724928    0.2894293  0.00    0.0000234    0.0024485    0.0003820
h     1.7571249    3.3343000    0.2405719  0.00    0.0016675    0.0014893    0.0002497
h     2.4842879   -1.4847825   -0.7527204  0.00    0.0012427   -0.0020667   -0.0002281
o     5.5853947   -0.2596592   -1.9772689  0.00    0.0025672    0.0040632   -0.0091816
o     4.9992001   -2.2119645   -0.6647354  0.00    0.0007507   -0.0029467   -0.0046089
h     4.6485699   -2.5044637    0.2527696  0.00   -0.3007448    0.4472869    0.5801453
    27
 Energy =       0.3292293683
c    -1.4999837    2.2808128   -0.0942579  0.00   -0.0024096    0.0016544    0.0001908
c    -1.2857688    0.9606390   -0.3717766  0.00   -0.0019259   -0.0020458   -0.0004184
c    -0.0113478    0.5103952   -0.4022329  0.00   -0.0006839   -0.0003424    0.0000772
c    -0.4414525    3.1172594    0.1395718  0.00   -0.0001612    0.0030331    0.0005136
c     0.8370831    2.6384559    0.1007448  0.00    0.0017483    0.0021796    0.0004572
c     1.0279898    1.3170460   -0.1704940  0.00    0.0008533    0.0000395    0.0000475
n     0.4258559   -0.8096890   -0.6967386  0.00   -0.0007443   -0.0025325   -0.0005559
c     2.1730144    0.6140625   -0.2758145  0.00    0.0012113    0.0007617    0.0002874
c     1.8519612   -0.6553756   -0.6135471  0.00    0.0012018   -0.0020635   -0.0002201
h    -0.1401564   -1.6648057   -0.9143265  0.00   -0.0019262   -0.0025961   -0.0005323
c     3.5768957    1.1915199   -0.1325206  0.00    0.0003008    0.0008496   -0.0007403
c     4.6727113    0.2021275    0.3544319  0.00   -0.0005244   -0.0015108    0.0023650
h     3.5534031    2.0270547    0.6024727  0.00    0.0005568    0.0014298    0.0013736
h     3.8736306    1.6380920   -1.1113213  0.00   -0.0000349    0.0006593   -0.0011649
c     5.1683476   -0.7238096   -0.7692835  0.00   -0.0006304    0.0002990    0.0022079
n     4.2553998   -0.5031454    1.5948200  0.00    0.0067450   -0.0002228   -0.0022931
h     5.5805018    0.8042674    0.5988943  0.00    0.0020150    0.0009671    0.0005876
h     3.4149186   -0.0639708    2.0467645  0.00   -0.0060747    0.0030843    0.0032369
h     4.0095573   -1.5168065    1.3806411  0.00    0.2214595   -0.3396530   -0.4256452
h    -2.5162925    2.6710744   -0.0649575  0.00   -0.0017241    0.0009930    0.0000916
h    -2.1138388    0.2852083   -0.5689078  0.00   -0.0016120   -0.0012604   -0.0002842
h    -0.6192210    4.1711884    0.3528777  0.00   -0.0001541    0.0025701    0.0004252
h     1.6722810    3.3119634    0.2758421  0.00    0.0016448    0.0015234    0.0002586
h     2.5579427   -1.4592820   -0.8252854  0.00    0.0017552   -0.0024988   -0.0003639
o     5.7182028   -0.1584676   -1.9252227  0.00    0.0030030    0.0040395   -0.0092642
o     5.0421641   -2.1196499   -0.6728961  0.00    0.0011952   -0.0017455   -0.0053394
h     4.6350250   -2.4247622    0.2157605  0.00   -0.2250844    0.3323880    0.4347017
    27
 Energy =       0.3080796682
c    -1.5458893    2.1564349   -0.0441627  0.00   -0.0024510    0.0018925    0.0002681
c    -1.2904782    0.8511631   -0.3552894  0.00   -0.0018916   -0.0020178   -0.0004464
c    -0.0021828    0.4438605   -0.4064149  0.00   -0.0006922   -0.0000945    0.0001216
c    -0.5136847    3.0213624    0.2015905  0.00   -0.0006145    0.0030491    0.0005501
c     0.7797002    2.5861467    0.1409243  0.00    0.0016429    0.0021573    0.0004772
c     1.0123890    1.2783749   -0.1637305  0.00    0.0006004   -0.0000244    0.0000187
n     0.4752732   -0.8527402   -0.7406415  0.00   -0.0004717   -0.0027868   -0.0006229
c     2.1792766    0.6160716   -0.2998053  0.00    0.0013709    0.0005431    0.0003305
c     1.8962922   -0.6531383   -0.6699189  0.00    0.0013840   -0.0019888   -0.0002722
h    -0.0640611   -1.7204025   -0.9751891  0.00   -0.0017234   -0.0025055   -0.0005531
c     3.5669900    1.2334715   -0.1667700  0.00    0.0000885    0.0008651   -0.0010211
c     4.6844575    0.2853758    0.3535340  0.00   -0.0006454   -0.0017304    0.0027660
h     3.5214904    2.0882925    0.5439692  0.00    0.0005973    0.0014396    0.0014033
h     3.8571139    1.6608558   -1.1559235  0.00   -0.0001769    0.0006600   -0.0010269
c     5.2328234   -0.6353412   -0.7494532  0.00   -0.0006137   -0.0006879    0.0023590