    13
 Energy =       0.1047297962
c    -3.7133889    1.6950595    0.3173519  0.00   -0.1073594    0.0681905    0.0602145
c    -2.4962693    2.6345192    0.2419999  0.00    0.3666073   -0.0198790   -0.1540760
c    -4.9565486    2.3924193   -0.2155699  0.00    0.0239981    0.0137716    0.0177301
h    -5.3251685    1.8809395   -1.1121297  0.00    0.0171855   -0.0152649    0.0163128
h    -4.7411586    3.4296290   -0.4944269  0.00    0.0105675   -0.0197166    0.0085248
h    -5.7692484    2.3924493    0.5188399  0.00    0.0080136    0.0002501   -0.0147364
n    -3.4097890    0.4519539   -0.4549189  0.00    0.0271788   -0.0608474   -0.0127122
h    -3.8575589    1.4177196    1.3669296  0.00    0.0024972   -0.0137497   -0.0269682
h    -3.2072391   -0.2948399    0.2179739  0.00   -0.0179028    0.0290207   -0.0187807
h    -4.2689788    0.1396900   -0.9176007  0.00    0.0135034    0.0383148    0.0209555
o    -1.4178396    2.3555893   -0.2533479  0.00   -0.2708613    0.0649250    0.1195801
o    -2.7764392    3.8468189    0.7908148  0.00   -0.0501894   -0.0464344   -0.0094801
h    -1.9782694    4.4042887    0.6111318  0.00   -0.0232386   -0.0385808   -0.0065641
    13
 Energy =       0.0812185231
c    -3.7118086    1.7161890    0.2993766  0.00   -0.0681869    0.0454221    0.0396396
c    -2.5373258    2.6939935    0.1816481  0.00    0.2366579   -0.0104814   -0.0987244
c    -5.0027680    2.3401762   -0.2401304  0.00    0.0150724    0.0091269    0.0110960
h    -5.3912183    1.7834350   -1.1091087  0.00    0.0097463   -0.0107567    0.0094674
h    -4.8339389    3.3841474   -0.5572275  0.00    0.0079874   -0.0109144    0.0053802
h    -5.7903307    2.3436165    0.5300081  0.00    0.0047808    0.0000391   -0.0086261
n    -3.3810786    0.4418866   -0.4013030  0.00    0.0215386   -0.0403484   -0.0099185
h    -3.8287304    1.5089434    1.3776363  0.00    0.0019317   -0.0092132   -0.0146966
h    -3.1932742   -0.2798298    0.3158383  0.00   -0.0110372    0.0175735   -0.0098541
h    -4.1998933    0.0917770   -0.9265324  0.00    0.0050674    0.0231582    0.0108389
o    -1.4113262    2.3962015   -0.3504050  0.00   -0.1745927    0.0404100    0.0756253
o    -2.7766801    3.9268661    0.7273624  0.00   -0.0856399   -0.0539555   -0.0113412
h    -1.8595233    4.3988340    0.7698849  0.00    0.0366742   -0.0000602    0.0011133
    13
 Energy =       0.0644874622
c    -3.7133928    1.7129834    0.3117551  0.00   -0.0005252    0.0003139    0.0018353
c    -2.5686459    2.7171407    0.2329480  0.00   -0.0002473   -0.0005366    0.0049758
c    -5.0349579    2.2973932   -0.2607092  0.00    0.0018581   -0.0005638    0.0003356
h    -5.4692304    1.7021311   -1.0921386  0.00   -0.0013930   -0.0020354   -0.0012428
h    -4.8836594    3.3331721   -0.6493213  0.00    0.0019451    0.0023642   -0.0007819
h    -5.7985250    2.3612801    0.5467718  0.00   -0.0009991    0.0003939    0.0025340
n    -3.3528723    0.4348284   -0.3422687  0.00    0.0200500    0.0080214    0.0108384
h    -3.8516460    1.5496004    1.4073407  0.00   -0.0001452    0.0002683    0.0006539
h    -3.2235660   -0.3088085    0.3861244  0.00   -0.0011300   -0.0017915    0.0034133
h    -4.0823425    0.0774961   -1.0218926  0.00   -0.0161539   -0.0061552   -0.0166864
o    -1.3547117    2.3912451   -0.3640160  0.00   -0.0016099   -0.0003988   -0.0029169
o    -2.7356645    3.9912248    0.7639226  0.00   -0.0111106   -0.0029841   -0.0049641
h    -1.8486819    4.4865495    0.6985319  0.00    0.0094610    0.0031035    0.0020057
    13
 Energy =       0.0643700793
c    -3.6842999    1.7152321    0.3176406  0.00    0.0007990   -0.0011924    0.0006426
c    -2.5718492    2.7523492    0.1637586  0.00    0.0018879    0.0013034    0.0008166
c    -5.0605066    2.2506472   -0.1799890  0.00   -0.0000424    0.0003604    0.0000764
h    -5.5505527    1.6103492   -0.9473829  0.00   -0.0035587   -0.0014457   -0.0034102
h    -4.9588036    3.2692530   -0.6270292  0.00    0.0010938    0.0030008   -0.0016112
h    -5.7636364    2.3382626    0.6803137  0.00   -0.0023568   -0.0003092    0.0032503
n    -3.3255431    0.4375423   -0.3366481  0.00    0.0051207    0.0023675    0.0018663
h    -3.7509154    1.5612962    1.4232567  0.00   -0.0000608   -0.0005834    0.0026737
h    -3.2194377   -0.3158854    0.3834499  0.00   -0.0000174   -0.0007809    0.0010868
h    -4.0278510    0.0983508   -1.0371151  0.00   -0.0034395   -0.0028626   -0.0036630
o    -1.3713890    2.4486053   -0.4727828  0.00    0.0011297    0.0000676   -0.0012255
o    -2.7445031    4.0248252    0.6976277  0.00   -0.0086154   -0.0036867   -0.0003813
h    -1.8886086    4.5554087    0.5519476  0.00    0.0080598    0.0037612   -0.0001214
    13
 Energy =       0.0642657949
c    -3.6842464    1.7149422    0.3196447  0.00    0.0000342   -0.0000365    0.0000230
c    -2.5696163    2.7471182    0.1676984  0.00   -0.0017855   -0.0000582    0.0006697
c    -5.0563640    2.2534575   -0.1751830  0.00    0.0000139   -0.0000078    0.0000026
h    -5.5383143    1.6183372   -0.9453754  0.00   -0.0000133   -0.0000646    0.0000052
h    -4.9586642    3.2729284   -0.6130184  0.00    0.0000368    0.0000340   -0.0000229
h    -5.7607010    2.3348192    0.6799328  0.00    0.0000017    0.0000275    0.0000334
n    -3.3317512    0.4369980   -0.3365950  0.00   -0.0000344   -0.0000185   -0.0000138
h    -3.7505820    1.5603457    1.4225786  0.00    0.0000046    0.0000051   -0.0000033
h    -3.2187966   -0.3165747    0.3812636  0.00   -0.0000059   -0.0000190    0.0000334
h    -4.0355791    0.0999517   -1.0314535  0.00   -0.0000006    0.0000127   -0.0000331
o    -1.3452201    2.4189934   -0.4101457  0.00    0.0023811   -0.0012222   -0.0013668
o    -2.7564938    4.0355152    0.6595894  0.00   -0.0008373    0.0010380    0.0004978
h    -1.9115675    4.5694044    0.4981112  0.00    0.0002047    0.0003095    0.0001746
    13
 Energy =       0.0642621739
c    -3.6855508    1.7157663    0.3209091  0.00    0.0000070    0.0000078    0.0000044
c    -2.5701522    2.7473335    0.1708824  0.00    0.0000067   -0.0000009   -0.0000019
c    -5.0552577    2.2530781   -0.1819032  0.00   -0.0000063    0.0000016   -0.0000089
h    -5.5349879    1.6144849   -0.9505699  0.00   -0.0000031   -0.0000037   -0.0000087
h    -4.9549289    3.2701509   -0.6246132  0.00   -0.0000050    0.0000163   -0.0000089
h    -5.7627624    2.3395040    0.6700948  0.00   -0.0000128    0.0000032    0.0000177
n    -3.3301349    0.4358353   -0.3298762  0.00    0.0000208   -0.0000046   -0.0000161
h    -3.7570156    1.5644542    1.4240038  0.00   -0.0000004   -0.0000008    0.0000185
h    -3.2209177   -0.3156978    0.3906783  0.00    0.0000037   -0.0000134    0.0000160
h    -4.0306444    0.0969888   -1.0272064  0.00   -0.0000100   -0.0000049   -0.0000125
o    -1.3469539    2.4202676   -0.4061282  0.00   -0.0000004    0.0000011    0.0000007
o    -2.7563841    4.0350495    0.6624324  0.00   -0.0000055   -0.0000030    0.0000005
h    -1.9122058    4.5690210    0.4983442  0.00    0.0000053    0.0000013   -0.0000010
    13
 Energy =       0.0642621724
c    -3.6855497    1.7157632    0.3209058  0.00    0.0000000    0.0000000    0.0000000
c    -2.5701497    2.7473296    0.1708900  0.00   -0.0000000   -0.0000000    0.0000000
c    -5.0552421    2.2530722   -0.1818807  0.00    0.0000000   -0.0000000    0.0000000
h    -5.5349760    1.6145096   -0.9505575  0.00   -0.0000000   -0.0000000   -0.0000000
h    -4.9549052    3.2701453   -0.6245464  0.00    0.0000000    0.0000000   -0.0000000
h    -5.7627396    2.3394627    0.6701001  0.00   -0.0000000    0.0000000    0.0000000
n    -3.3301556    0.4358497   -0.3298935  0.00   -0.0000000   -0.0000000   -0.0000000
h    -3.7570068    1.5644341    1.4239817  0.00   -0.0000000    0.0000000    0.0000000
h    -3.2209444   -0.3156915    0.3906357  0.00    0.0000000   -0.0000000    0.0000000
h    -4.0306640    0.0970131   -1.0272151  0.00   -0.0000000    0.0000000   -0.0000000
o    -1.3469005    2.4202233   -0.4059906  0.00    0.0000000   -0.0000000   -0.0000000
o    -2.7564209    4.0350779    0.6623441  0.00   -0.0000000    0.0000000    0.0000000
h    -1.9122417    4.5690475    0.4982741  0.00    0.0000000    0.0000000   -0.0000000
