    24
 Energy =       0.4511689168
c    -0.3750178    1.6472058    0.7948734  0.00   -0.0691064    0.0373831    0.0640159
c     0.0303172    2.8109335    0.1570437  0.00   -0.0611897    0.0769869    0.0472773
c     1.0081136    2.7718125   -0.8262434  0.00    0.0160869    0.0873616   -0.0344389
c     0.2069418    0.4293490    0.4310970  0.00   -0.0247726   -0.0567092    0.0331068
c     1.2047783    0.3610782   -0.5608861  0.00    0.1071477   -0.0534021   -0.0472368
c     1.5988173    1.5541349   -1.1780186  0.00    0.0405417   -0.0081351   -0.0376094
o    -0.5069839    4.0230167    0.4710260  0.00   -0.0143567   -0.0321356    0.0221939
h    -1.1463012    3.9010909    1.1919392  0.00    0.0550593   -0.0263976   -0.0530196
h     2.3707231    1.5818724   -1.9364796  0.00   -0.0025949    0.0153260    0.0039203
h    -0.1206493   -0.4779662    0.9373943  0.00   -0.0014642    0.0006338    0.0033273
h    -1.1350442    1.6632136    1.5694669  0.00    0.0004658   -0.0027240    0.0010691
h     1.3163936    3.6907012   -1.3176857  0.00    0.0032060   -0.0006208   -0.0043285
c     1.7669373   -1.0073413   -0.8964724  0.00    0.3184243   -0.5595662    0.0642903
c     0.8861134   -2.0194266   -1.6556448  0.00    0.1344091    0.0869231    0.0869807
h     2.1212937   -1.4658931    0.0371405  0.00    0.7402427   -1.2386129   -0.7791197
h     2.6645729   -0.8285312   -1.5058794  0.00   -0.0128238   -0.0378501    0.0236772
c     1.7481012   -3.2276699   -2.0845864  0.00   -0.0694267   -0.2762877   -0.2526913
o     1.5179317   -3.9787875   -3.0189800  0.00    0.0616065    0.1746298    0.2225486
o     2.8094516   -3.3865268   -1.2478409  0.00   -0.0592307    0.0980517    0.0380589
h     2.7944772   -2.5928198   -0.6549742  0.00   -1.1456531    1.7927470    0.6056893
n    -0.2697763   -2.5678537   -0.8742070  0.00   -0.0689677   -0.0934191   -0.0282524
h     0.4960411   -1.5757973   -2.5789902  0.00   -0.0087287   -0.0161736    0.0221008
h    -1.1308243   -2.1540904   -1.2498506  0.00    0.0326050   -0.0167423    0.0052904
h    -0.3593670   -3.5651556   -1.0813225  0.00    0.0285204    0.0487337   -0.0068503
    24
 Energy =       0.4267677802
c    -0.4266579    1.6206336    0.8080035  0.00   -0.0646365    0.0350186    0.0599310
c    -0.0322702    2.7892253    0.1759910  0.00   -0.0571728    0.0719559    0.0442438
c     0.9497851    2.7625813   -0.8003532  0.00    0.0150830    0.0817902   -0.0322194
c     0.1691247    0.4116442    0.4462087  0.00   -0.0232857   -0.0530262    0.0310389
c     1.1728712    0.3588064   -0.5356692  0.00    0.0998553   -0.0495854   -0.0442075
c     1.5558147    1.5547860   -1.1489679  0.00    0.0379775   -0.0076635   -0.0352186
o    -0.5897952    3.9949791    0.4896800  0.00   -0.0134887   -0.0297414    0.0206239
h    -1.2201319    3.8692944    1.2218890  0.00    0.0514189   -0.0247672   -0.0494102
h     2.3353028    1.5908593   -1.8999971  0.00   -0.0023343    0.0143019    0.0036065
h    -0.1500211   -0.5015772    0.9474077  0.00   -0.0014156    0.0004768    0.0031166
h    -1.1927639    1.6268364    1.5768001  0.00    0.0003716   -0.0025316    0.0010630
h     1.2497827    3.6860109   -1.2881203  0.00    0.0030136   -0.0005350   -0.0040735
c     1.7747500   -0.9940681   -0.8574999  0.00    0.2987741   -0.5232204    0.0619274
c     0.9433241   -2.0075965   -1.6852247  0.00    0.1267897    0.0807166    0.0795710
h     2.1520227   -1.4453599    0.0834498  0.00    0.6941227   -1.1605433   -0.7292799
h     2.6882732   -0.7840388   -1.4348557  0.00   -0.0110204   -0.0351409    0.0217978
c     1.8364764   -3.2032365   -2.0907014  0.00   -0.0640127   -0.2574848   -0.2362816
o     1.6328300   -3.9860634   -3.0203554  0.00    0.0577553    0.1624437    0.2075338
o     2.8973790   -3.3396170   -1.2495328  0.00   -0.0544987    0.0869995    0.0325341
h     2.8174863   -2.5795965   -0.6200351  0.00   -1.0735459    1.6836736    0.5703552
n    -0.2540183   -2.5653508   -0.9720228  0.00   -0.0647746   -0.0887319   -0.0226727
h     0.6066882   -1.5474605   -2.6237538  0.00   -0.0083694   -0.0147428    0.0189930
h    -1.0951577   -2.1612342   -1.4086037  0.00    0.0273464   -0.0147470    0.0036132
h    -0.3240540   -3.5639080   -1.1918175  0.00    0.0260472    0.0450849   -0.0065861
    24
 Energy =       0.4219447012
c    -0.4736221    1.6007074    0.8197869  0.00   -0.0631956    0.0342489    0.0586103
c    -0.0877226    2.7737965    0.1919204  0.00   -0.0558666    0.0702893    0.0432618
c     0.8987133    2.7577245   -0.7793017  0.00    0.0147471    0.0800031   -0.0314942
c     0.1344579    0.3981869    0.4594613  0.00   -0.0228275   -0.0518490    0.0303706
c     1.1445360    0.3575209   -0.5144679  0.00    0.0973355   -0.0482420   -0.0431871
c     1.5183719    1.5571190   -1.1249990  0.00    0.0371465   -0.0075087   -0.0344434
o    -0.6608363    3.9734340    0.5048348  0.00   -0.0131793   -0.0288569    0.0200492
h    -1.2817315    3.8428311    1.2457577  0.00    0.0501683   -0.0242524   -0.0481539
h     2.3043382    1.6016200   -1.8691954  0.00   -0.0022098    0.0139638    0.0034685
h    -0.1779669   -0.5195212    0.9568129  0.00   -0.0014127    0.0003675    0.0030215
h    -1.2446898    1.5983979    1.5837082  0.00    0.0003164   -0.0024643    0.0010839
h     1.1920651    3.6846870   -1.2642965  0.00    0.0029535   -0.0004916   -0.0039956
c     1.7764311   -0.9836059   -0.8221016  0.00    0.2926469   -0.5104289    0.0620308
c     0.9954188   -1.9988963   -1.7126622  0.00    0.1252534    0.0785757    0.0762509
h     2.1733955   -1.4281117    0.1292233  0.00    0.6780938   -1.1337184   -0.7120055
h     2.7030163   -0.7473677   -1.3689134  0.00   -0.0099931   -0.0340907    0.0209794
c     1.9163482   -3.1876046   -2.0883632  0.00   -0.0615146   -0.2505370   -0.2307775
o     1.7486573   -4.0022304   -3.0041955  0.00    0.0563341    0.1576390    0.2017471
o     2.9655455   -3.2993721   -1.2303508  0.00   -0.0524417    0.0821361    0.0302440
h     2.8285078   -2.5642774   -0.5864093  0.00   -1.0485705    1.6472782    0.5589675
n    -0.2411489   -2.5662231   -1.0713285  0.00   -0.0638617   -0.0880887   -0.0184528
h     0.7120714   -1.5257932   -2.6635449  0.00   -0.0083345   -0.0140175    0.0169467
h    -1.0570247   -2.1717864   -1.5673568  0.00    0.0236073   -0.0135052    0.0020485
h    -0.2900903   -3.5646857   -1.3020993  0.00    0.0248047    0.0435497   -0.0065708
    24
 Energy =       0.3341282058
c    -0.5011686    1.5042561    0.8432061  0.00   -0.0486697    0.0259265    0.0450651
c    -0.1670511    2.6949397    0.2319634  0.00   -0.0421797    0.0531301    0.0327075
c     0.8135709    2.7255732   -0.7355463  0.00    0.0114486    0.0613694   -0.0241064
c     0.1473409    0.3358819    0.4730385  0.00   -0.0184320   -0.0403538    0.0235308
c     1.1484082    0.3478734   -0.4983314  0.00    0.0724890   -0.0374860   -0.0327526
c     1.4725903    1.5595638   -1.0951203  0.00    0.0287247   -0.0059432   -0.0267424
o    -0.8010489    3.8697053    0.5633588  0.00   -0.0110970   -0.0187160    0.0135258
h    -1.3897508    3.7214427    1.3416845  0.00    0.0367194   -0.0194271   -0.0340846
h     2.2518797    1.6330129   -1.8459686  0.00   -0.0014787    0.0106324    0.0024868
h    -0.1291338   -0.6003423    0.9580117  0.00   -0.0016591   -0.0007924    0.0026500
h    -1.2752089    1.4641927    1.6043388  0.00   -0.0007670   -0.0020540    0.0014060
h     1.0656482    3.6695810   -1.2111652  0.00    0.0020743    0.0005072   -0.0033495
c     1.8403033   -0.9532421   -0.8504140  0.00    0.2356979   -0.4084424    0.0526606
c     1.0378262   -1.9429805   -1.7261336  0.00    0.0963064    0.0609656    0.0594475
h     2.2567828   -1.3933471    0.0559936  0.00    0.5299782   -0.8862359   -0.5642089
h     2.7513690   -0.6872037   -1.4128660  0.00   -0.0069187   -0.0275060    0.0171367
c     1.9545091   -3.0938636   -2.1691369  0.00   -0.0457454   -0.1857178   -0.1728694
o     1.6939576   -3.8817959   -3.1391271  0.00    0.0390353    0.1165470    0.1487579
o     3.0720962   -3.2314633   -1.3891039  0.00   -0.0290272    0.0525465    0.0149041
h     2.9294564   -2.5657510   -0.6431506  0.00   -0.8273765    1.3043238    0.4520548
n    -0.1615008   -2.5143542   -1.0350459  0.00   -0.0481815   -0.0668912   -0.0127509
h     0.7161043   -1.4418542   -2.6572480  0.00   -0.0056440   -0.0099619    0.0113005
h    -1.0065918   -2.1128243   -1.4849259  0.00    0.0161527   -0.0093197   -0.0010414
h    -0.2233476   -3.5204508   -1.2563923  0.00    0.0185499    0.0328988   -0.0057280
    24
 Energy =       0.3041157830
c    -0.4555651    1.5175105    0.8327717  0.00   -0.0437449    0.0232769    0.0404362
c    -0.1199562    2.7020368    0.2155571  0.00   -0.0379065    0.0476018    0.0293697
c     0.8509162    2.7222235   -0.7581802  0.00    0.0102745    0.0551017   -0.0216286
c     0.1821590    0.3465488    0.4636123  0.00   -0.0166541   -0.0362809    0.0211253
c     1.1700997    0.3487357   -0.5169756  0.00    0.0649179   -0.0335485   -0.0292674
c     1.4968223    1.5531701   -1.1202142  0.00    0.0258044   -0.0053225   -0.0239794
o    -0.7425780    3.8848630    0.5491414  0.00   -0.0098993   -0.0166889    0.0120559
h    -1.3401111    3.7485176    1.3263151  0.00    0.0328593   -0.0174558   -0.0304770
h     2.2670869    1.6151849   -1.8817197  0.00   -0.0012157    0.0095367    0.0021169
h    -0.0943292   -0.5852070    0.9564749  0.00   -0.0015400   -0.0008891    0.0022763
h    -1.2223070    1.4866013    1.6015462  0.00   -0.0007613   -0.0018440    0.0013299
h     1.1047966    3.6631909   -1.2384696  0.00    0.0018715    0.0004730   -0.0030154
c     1.8450401   -0.9583808   -0.8839334  0.00    0.2146081   -0.3683831    0.0491263
c     0.9922341   -1.9492601   -1.7006149  0.00    0.0883886    0.0548771    0.0521163
h     2.2526425   -1.4055446    0.0115991  0.00    0.4768503   -0.7992415   -0.5097861
h     2.7426237   -0.7118246   -1.4800984  0.00   -0.0055143   -0.0245633    0.0149966
c     1.8800959   -3.1059969   -2.1717552  0.00   -0.0403425   -0.1655720   -0.1548391
o     1.5729998   -3.8648005   -3.1679314  0.00    0.0340304    0.1037147    0.1316023
o     3.0187303   -3.2786673   -1.4228962  0.00   -0.0246313    0.0438797    0.0114233
h     2.9411281   -2.5894109   -0.6791713  0.00   -0.7457389    1.1799249    0.4110710
n    -0.1693980   -2.4982918   -0.9329119  0.00   -0.0436127   -0.0607435   -0.0078454
h     0.6234145   -1.4595332   -2.6235932  0.00   -0.0053162   -0.0086894    0.0087981
h    -1.0401704   -2.0855883   -1.3261727  0.00    0.0114095   -0.0075877   -0.0018115
h    -0.2593337   -3.5095276   -1.1304604  0.00    0.0158632    0.0284237   -0.0051941
    24
 Energy =       0.2440760698
c    -0.4077080    1.5221871    0.8277976  0.00   -0.0318982    0.0169183    0.0291750
c    -0.0816716    2.6975588    0.1997669  0.00   -0.0276552    0.0343082    0.0212588
c     0.8671391    2.7064296   -0.7867525  0.00    0.0076311    0.0398976   -0.0156574
c     0.2193645    0.3532808    0.4611331  0.00   -0.0124687   -0.0263960    0.0152989
c     1.1804990    0.3472937   -0.5350335  0.00    0.0470251   -0.0242949   -0.0209978
c     1.4981539    1.5392082   -1.1525761  0.00    0.0188541   -0.0037400   -0.0172805
o    -0.6928517    3.8905728    0.5406531  0.00   -0.0070043   -0.0120637    0.0084743
h    -1.2935151    3.7766934    1.3276297  0.00    0.0236855   -0.0126873   -0.0217264
h     2.2513489    1.5860303   -1.9331864  0.00   -0.0005884    0.0068958    0.0012332
h    -0.0457680   -0.5724524    0.9699618  0.00   -0.0012903   -0.0010292    0.0015668
h    -1.1591802    1.5021033    1.6116229  0.00   -0.0007638   -0.0013607    0.0011622
h     1.1149076    3.6439263   -1.2759988  0.00    0.0014186    0.0003906   -0.0022302
c     1.8503442   -0.9582695   -0.9189031  0.00    0.1661442   -0.2807405    0.0393177
c     0.9521479   -1.9491339   -1.6787806  0.00    0.0676904    0.0403795    0.0370621
h     2.2635763   -1.4133331   -0.0345911  0.00    0.3606852   -0.6075595   -0.3894139
h     2.7294209   -0.7230532   -1.5523500  0.00   -0.0033278   -0.0182890    0.0106302
c     1.8120660   -3.1084374   -2.1753003  0.00   -0.0289170   -0.1191063   -0.1117720
o     1.4529481   -3.8428223   -3.2094897  0.00    0.0227774    0.0748732    0.0928928
o     2.9765515   -3.3282006   -1.4679669  0.00   -0.0159494    0.0276852    0.0057358
h     2.9762795   -2.6268799   -0.7222642  0.00   -0.5655667    0.9020701    0.3176088
n    -0.1643962   -2.4636794   -0.8310900  0.00   -0.0318928   -0.0434516   -0.0019346
h     0.5396022   -1.4668386   -2.5916575  0.00   -0.0042031   -0.0061363    0.0051441
h    -1.0579171   -2.0403493   -1.1674196  0.00    0.0052135   -0.0048582   -0.0019017
h    -0.2843007   -3.4852851   -0.9832853  0.00    0.0104005    0.0182948   -0.0036462
    24
 Energy =       0.1618417551
c    -0.3646142    1.5088371    0.8532673  0.00   -0.0129337    0.0058957    0.0107277
c    -0.0854153    2.6740179    0.2003593  0.00   -0.0111193    0.0126743    0.0076189
c     0.8068695    2.6775912   -0.8253400  0.00    0.0047352    0.0149141   -0.0066323
c     0.2581824    0.3528511    0.4826110  0.00   -0.0065198   -0.0101655    0.0063505
c     1.1602495    0.3488882   -0.5509321  0.00    0.0178277   -0.0093282   -0.0075034
c     1.4282187    1.5235262   -1.2030197  0.00    0.0081403   -0.0000983   -0.0067564
o    -0.6894329    3.8742999    0.5658191  0.00   -0.0005800   -0.0041566   -0.0013506
h    -1.2423651    3.7959101    1.4084916  0.00    0.0069776   -0.0050719   -0.0028218
h     2.1409495    1.5573501   -2.0243936  0.00    0.0009444    0.0027945   -0.0008306
h     0.0371202   -0.5672389    1.0218524  0.00   -0.0012146   -0.0015111    0.0014373
h    -1.0771140    1.4953857    1.6734674  0.00   -0.0013072   -0.0007630    0.0015204
h     1.0195101    3.6122077   -1.3359605  0.00    0.0010557    0.0007529   -0.0014322
c     1.8553762   -0.9376362   -0.9528855  0.00    0.0899842   -0.1499555    0.0221973
c     0.9378483   -1.9386801   -1.6767227  0.00    0.0306088    0.0158411    0.0144193
h     2.3089439   -1.4000718   -0.0755385  0.00    0.1957617   -0.3293019   -0.2091535
h     2.7104646   -0.6898629   -1.6208938  0.00   -0.0006779   -0.0091916    0.0045042
c     1.7894920   -3.0887754   -2.1935937  0.00   -0.0118653   -0.0440463   -0.0407167
o     1.3939434   -3.8114488   -3.2797524  0.00    0.0068426    0.0286055    0.0321720
o     2.9782464   -3.3669721   -1.5324328  0.00   -0.0037667    0.0065806   -0.0010103
h     3.0603505   -2.6816805   -0.7759620  0.00   -0.3020586    0.4901180    0.1762430
n    -0.1298140   -2.4175606   -0.7610014  0.00   -0.0119928   -0.0111160    0.0015950
h     0.4921351   -1.4578969   -2.5795303  0.00   -0.0019300   -0.0021628    0.0012090
h    -1.0465159   -2.0171192   -1.0714576  0.00    0.0005818   -0.0017025   -0.0013428
h    -0.2455880   -3.4593719   -0.8245322  0.00    0.0025057    0.0003944   -0.0004440
    24
 Energy =       0.1338078524
c    -0.3722873    1.4847252    0.8782102  0.00   -0.0082575    0.0023622    0.0073232
c    -0.1552357    2.6501767    0.2032945  0.00   -0.0064812    0.0083523    0.0042645
c     0.7102936    2.6723363   -0.8417640  0.00    0.0032935    0.0100848   -0.0044764
c     0.2811185    0.3484479    0.5068804  0.00   -0.0045962   -0.0073650    0.0046020
c     1.1512832    0.3641823   -0.5493873  0.00    0.0109533   -0.0067441   -0.0044019
c     1.3599815    1.5375641   -1.2220515  0.00    0.0055282    0.0008318   -0.0049326
o    -0.8023350    3.8333623    0.5624383  0.00   -0.0000621   -0.0012553   -0.0017266
h    -1.3859514    3.7392379    1.3849625  0.00    0.0032816   -0.0027323   -0.0008039
h     2.0476600    1.5835763   -2.0641675  0.00    0.0009659    0.0020673   -0.0010415
h     0.1068089   -0.5732793    1.0609291  0.00   -0.0010551   -0.0019912    0.0015268
h    -1.0629497    1.4565182    1.7162041  0.00   -0.0011143   -0.0008713    0.0013919
h     0.8743503    3.6077743   -1.3699963  0.00    0.0009312    0.0016461   -0.0015824
c     1.8790511   -0.9006996   -0.9624289  0.00    0.0607595   -0.1021019    0.0150458
c     0.9720786   -1.9252345   -1.6686376  0.00    0.0195871    0.0105476    0.0088977
h     2.3714152   -1.3571433   -0.0931981  0.00    0.1359974   -0.2273087   -0.1428897
h     2.7137678   -0.6298508   -1.6485916  0.00    0.0001104   -0.0062054    0.0027648
c     1.8400426   -3.0494603   -2.2180047  0.00   -0.0066850   -0.0273966   -0.0251853
o     1.4468701   -3.7504671   -3.3312342  0.00    0.0042636    0.0175315    0.0191429
o     3.0377228   -3.3439571   -1.5768847  0.00   -0.0020252    0.0035198   -0.0012410
h     3.1415933   -2.6838630   -0.8048694  0.00   -0.2067401    0.3366264    0.1215974
n    -0.0561732   -2.4265457   -0.7221227  0.00   -0.0003332    0.0006175    0.0049093
h     0.4911148   -1.4468819   -2.5560918  0.00   -0.0014409   -0.0008642    0.0000986
h    -1.0063441   -2.1211340   -1.0573659  0.00   -0.0073690    0.0017250   -0.0037977
h    -0.0868349   -3.4828355   -0.7042035  0.00    0.0004882   -0.0110763    0.0005140
    24
 Energy =       0.1170082760
c    -0.3250184    1.4772892    0.9179699  0.00   -0.0061755    0.0006260    0.0059222
c    -0.1587300    2.6351873    0.2166843  0.00   -0.0047567    0.0062158    0.0030906
c     0.6624707    2.6567899   -0.8630460  0.00    0.0030799    0.0074112   -0.0041192
c     0.3346659    0.3491449    0.5384111  0.00   -0.0041063   -0.0056348    0.0042120
c     1.1591712    0.3652183   -0.5525334  0.00    0.0077100   -0.0053606   -0.0030578
c     1.3168074    1.5294773   -1.2525365  0.00    0.0043041    0.0016145   -0.0043462
o    -0.8148616    3.8121193    0.5833731  0.00    0.0002571   -0.0005843   -0.0017071
h    -1.3769876    3.7191724    1.4218563  0.00    0.0019017   -0.0019404   -0.0000322
h     1.9679367    1.5728668   -2.1241581  0.00    0.0012996    0.0017869   -0.0016663
h     0.2011534   -0.5678642    1.1122851  0.00   -0.0010723   -0.0021654    0.0017621
h    -0.9806168    1.4497450    1.7842545  0.00   -0.0013650   -0.0009295    0.0018212
h     0.7866560    3.5867277   -1.4120995  0.00    0.0009838    0.0019239   -0.0018015
c     1.8920406   -0.8917254   -0.9780296  0.00    0.0438975   -0.0732451    0.0108277
c     0.9795027   -1.9219609   -1.6714672  0.00    0.0133551    0.0064903    0.0056529
h     2.3953132   -1.3555260   -0.1120056  0.00    0.0999999   -0.1672185   -0.1040288
h     2.7171268   -0.6156508   -1.6739814  0.00    0.0001940   -0.0045091    0.0019173
c     1.8331232   -3.0584550   -2.2226007  0.00   -0.0033420   -0.0167102   -0.0160018
o     1.3888408   -3.7950837   -3.3012687  0.00    0.0015609    0.0101609    0.0109544
o     3.0475666   -3.3621222   -1.6158068  0.00   -0.0008167    0.0017774   -0.0009297
h     3.1832275   -2.7161583   -0.8408703  0.00   -0.1508257    0.2460296    0.0893359
n    -0.0404988   -2.4081833   -0.7112878  0.00    0.0205293    0.0122827    0.0125907
h     0.4925581   -1.4510313   -2.5595793  0.00   -0.0007157   -0.0005531   -0.0003436
h    -0.9770081   -1.9623809   -0.9519276  0.00   -0.0248922    0.0114663   -0.0079124
h    -0.1873986   -3.4610465   -0.8097165  0.00   -0.0010048   -0.0289347   -0.0021405
    24
 Energy =       0.1035234710
c    -0.2828029    1.4747458    0.9495242  0.00   -0.0047761   -0.0016426    0.0057746
c    -0.1943222    2.6226820    0.2165509  0.00   -0.0036294    0.0050891    0.0022209
c     0.5642820    2.6481998   -0.9085302  0.00    0.0033114    0.0060048   -0.0048986
c     0.3917892    0.3613414    0.5561628  0.00   -0.0041228   -0.0047423    0.0051124
c     1.1509674    0.3811071   -0.5815226  0.00    0.0054375   -0.0046187   -0.0024950
c     1.2312981    1.5347869   -1.3128283  0.00    0.0035519    0.0031637   -0.0048208
o    -0.8683439    3.7862488    0.5965015  0.00    0.0009299    0.0005068   -0.0027312
h    -1.3923499    3.6909598    1.4605698  0.00    0.0003077   -0.0014939    0.0015217
h     1.8314942    1.5803799   -2.2215743  0.00    0.0018796    0.0018709   -0.0028800
h     0.3221081   -0.5473852    1.1564296  0.00   -0.0012740   -0.0032355    0.0028937
h    -0.8879056    1.4444848    1.8530520  0.00   -0.0019221   -0.0012867    0.0029564
h     0.6279028    3.5708192   -1.4820242  0.00    0.0011553    0.0029452   -0.0026877
c     1.9025577   -0.8592827   -1.0235300  0.00    0.0286775   -0.0491691    0.0076496
c     0.9857212   -1.9368976   -1.6434594  0.00    0.0093246    0.0031303    0.0020492
h     2.4814458   -1.2854600   -0.1760780  0.00    0.0733837   -0.1190891   -0.0702737
h     2.6750032   -0.5703638   -1.7767085  0.00    0.0021827   -0.0019879   -0.0005427
c     1.8356802   -3.0662819   -2.2184221  0.00   -0.0030809   -0.0087791   -0.0099763
o     1.3360610   -3.8412081   -3.2520784  0.00   -0.0015490    0.0047809    0.0041786
o     3.0941900   -3.3415507   -1.6842215  0.00    0.0033338    0.0000493    0.0006161
h     3.2752287   -2.6951057   -0.9217531  0.00   -0.1048001    0.1729085    0.0639756
n     0.0271295   -2.4242030   -0.6211864  0.00    0.0124538    0.0057720    0.0119593
h     0.4405853   -1.4993715   -2.5175209  0.00   -0.0013761    0.0004279   -0.0022905
h    -0.9158463   -1.9737349   -0.8014946  0.00   -0.0188645    0.0083548   -0.0058025
h    -0.1348326   -3.4683611   -0.7239388  0.00   -0.0005344   -0.0189592   -0.0015093
    24
 Energy =       0.0953419968
c    -0.2986226    1.4409668    0.9857087  0.00   -0.0035565   -0.0011820    0.0043150
c    -0.2219846    2.5920230    0.2585474  0.00   -0.0026365    0.0037396    0.0016169
c     0.5399675    2.6306632   -0.8625766  0.00    0.0024084    0.0045138   -0.0036120
c     0.3908999    0.3380299    0.5904594  0.00   -0.0030423   -0.0035115    0.0038744
c     1.1581228    0.3739931   -0.5392806  0.00    0.0043211   -0.0033668   -0.0018450
c     1.2242929    1.5284050   -1.2670485  0.00    0.0026093    0.0022581   -0.0036760
o    -0.9136819    3.7453166    0.6394333  0.00    0.0006280    0.0005706   -0.0020499
h    -1.4450971    3.6399420    1.4976621  0.00    0.0001265   -0.0010688    0.0012517
h     1.8262609    1.5819915   -2.1733282  0.00    0.0013942    0.0013520   -0.0021620
h     0.3244281   -0.5775236    1.1795357  0.00   -0.0009389   -0.0026348    0.0020744
h    -0.9088309    1.3995016    1.8844443  0.00   -0.0014647   -0.0009215    0.0022505
h     0.5919946    3.5549862   -1.4328405  0.00    0.0008503    0.0022315   -0.0020036
c     1.9208037   -0.8563301   -0.9853341  0.00    0.0202794   -0.0342568    0.0056420
c     1.0189665   -1.8921513   -1.6949558  0.00    0.0070490    0.0018314   -0.0005125
h     2.4258509   -1.3406739   -0.1157475  0.00    0.0574858   -0.0934806   -0.0501508
h     2.7467591   -0.5491367   -1.6758262  0.00    0.0041467   -0.0001152   -0.0023444
c     1.8764701   -3.0072173   -2.2881130  0.00   -0.0031407   -0.0035112   -0.0044265
o     1.4224144   -3.6996495   -3.4067062  0.00   -0.0055378   -0.0006123   -0.0050174
o     3.0953350   -3.3540568   -1.6975536  0.00    0.0057752   -0.0020889    0.0006700
h     3.2584765   -2.7652462   -0.8836989  0.00   -0.0779950    0.1346710    0.0533831
n     0.0188855   -2.4105918   -0.7283190  0.00    0.0085066    0.0046206    0.0115956
h     0.5117790   -1.4081268   -2.5686008  0.00   -0.0015312    0.0009311   -0.0033339
h    -0.9075328   -1.9344941   -0.9112503  0.00   -0.0145749    0.0063477   -0.0045907
h    -0.1589164   -3.4440714   -0.8826919  0.00   -0.0011622   -0.0163173   -0.0009486
    24
 Energy =       0.0834666183
c    -0.2924444    1.3986712    1.0472069  0.00   -0.0017614   -0.0016578    0.0027985
c    -0.2847636    2.5446330    0.3092606  0.00   -0.0011098    0.0020348    0.0004616
c     0.4370516    2.6012625   -0.8357699  0.00    0.0012464    0.0029183   -0.0023136
c     0.4252081    0.3195302    0.6385679  0.00   -0.0014847   -0.0025846    0.0023777
c     1.1544263    0.3757833   -0.5126857  0.00    0.0020451   -0.0026662   -0.0000400
c     1.1505058    1.5229277   -1.2524193  0.00    0.0013358    0.0020075   -0.0026021
o    -1.0090690    3.6746573    0.7024387  0.00    0.0001614    0.0015639   -0.0014477
h    -1.5181523    3.5555971    1.5723700  0.00   -0.0003665   -0.0004614    0.0010888
h     1.7192494    1.5882394   -2.1784811  0.00    0.0009118    0.0009276   -0.0016060
h     0.4097219   -0.5949715    1.2320415  0.00   -0.0005149   -0.0023039    0.0014168
h    -0.8720106    1.3424711    1.9643092  0.00   -0.0009464   -0.0006921    0.0015423
h     0.4332415    3.5211527   -1.4152127  0.00    0.0004841    0.0022336   -0.0017085
c     1.9443860   -0.8296257   -0.9764827  0.00    0.0099897   -0.0165232    0.0031458
c     1.0668593   -1.8544106   -1.7270989  0.00    0.0028873    0.0015686   -0.0006386
h     2.4301079   -1.3387360   -0.1092958  0.00    0.0311749   -0.0521644   -0.0268193
h     2.7791205   -0.4943059   -1.6389146  0.00    0.0022903   -0.0000972   -0.0012829
c     1.9330589   -2.9398893   -2.3674748  0.00   -0.0012823   -0.0006615   -0.0004395
o     1.4933002   -3.5636590   -3.5318331  0.00   -0.0034755   -0.0025023   -0.0054768
o     3.1383210   -3.3419635   -1.7874452  0.00    0.0027256   -0.0033821   -0.0025668
h     3.3090875   -2.8229619   -0.9316205  0.00   -0.0404740    0.0741394    0.0317950
n     0.0758348   -2.4173326   -0.7811291  0.00    0.0082802    0.0061276    0.0092590
h     0.5524389   -1.3454478   -2.5802269  0.00   -0.0006154    0.0007127   -0.0017494
h    -0.8318259   -1.8914433   -0.8941346  0.00   -0.0103325    0.0059382   -0.0034989
h    -0.1466128   -3.4236287   -1.0240504  0.00   -0.0011693   -0.0144752   -0.0016954
    24
 Energy =       0.0772667167
c    -0.2979390    1.3556489    1.1003937  0.00   -0.0010364   -0.0016797    0.0022141
c    -0.3553516    2.4958572    0.3562376  0.00   -0.0005756    0.0013855    0.0000407
c     0.3306958    2.5718167   -0.8088439  0.00    0.0006073    0.0024032   -0.0017769
c     0.4485105    0.3018735    0.6777607  0.00   -0.0007401   -0.0022689    0.0017256
c     1.1434780    0.3790279   -0.4923779  0.00    0.0012142   -0.0022364    0.0004101
c     1.0738713    1.5191236   -1.2386100  0.00    0.0008168    0.0017831   -0.0021655
o    -1.1114925    3.6003541    0.7631215  0.00   -0.0000155    0.0020907   -0.0014361
h    -1.5939006    3.4675523    1.6463453  0.00   -0.0006198   -0.0003219    0.0012656
h     1.6134411    1.5984772   -2.1805971  0.00    0.0006572    0.0007285   -0.0013340
h     0.4833872   -0.6094383    1.2751147  0.00   -0.0002782   -0.0021937    0.0012566
h    -0.8491219    1.2838359    2.0334187  0.00   -0.0007029   -0.0005898    0.0012787
h     0.2744884    3.4866342   -1.3933661  0.00    0.0002397    0.0021725   -0.0015397
c     1.9643040   -0.7988406   -0.9723850  0.00    0.0051288   -0.0088817    0.0020688
c     1.1122663   -1.8244505   -1.7494106  0.00    0.0020737    0.0025758   -0.0006771
h     2.4492761   -1.3145139   -0.1091542  0.00    0.0174938   -0.0298482   -0.0148848
h     2.7969333   -0.4320802   -1.6189498  0.00    0.0015437    0.0000086   -0.0008313
c     1.9961339   -2.8598411   -2.4515638  0.00    0.0005121    0.0002332    0.0015966
o     1.5702484   -3.4087997   -3.6587058  0.00   -0.0024350   -0.0035920   -0.0064069
o     3.1996444   -3.2972711   -1.8957704  0.00    0.0012896   -0.0040290   -0.0045661
h     3.3699568   -2.8469549   -1.0034256  0.00   -0.0215826    0.0431121    0.0206574
n     0.1547199   -2.4530441   -0.8111929  0.00    0.0076306    0.0041580    0.0099263
h     0.5667451   -1.2992483   -2.5729549  0.00   -0.0004797    0.0011481   -0.0015086
h    -0.7447346   -1.9023552   -0.8345513  0.00   -0.0097651    0.0070267   -0.0024309
h    -0.0985194   -3.4268142   -1.1386136  0.00   -0.0009768   -0.0131848   -0.0028828
    24
 Energy =       0.0742519652
c    -0.2959647    1.3102855    1.1565796  0.00   -0.0007696   -0.0013095    0.0018113
c    -0.4009816    2.4501489    0.4180955  0.00   -0.0003926    0.0009706    0.0000026
c     0.2563837    2.5476231   -0.7615172  0.00    0.0003439    0.0019127   -0.0014198
c     0.4687924    0.2783373    0.7135612  0.00   -0.0004398   -0.0018444    0.0013705
c     1.1359020    0.3780308   -0.4706481  0.00    0.0009388   -0.0016703    0.0003289
c     1.0186001    1.5171840   -1.2110344  0.00    0.0006420    0.0013120   -0.0018016
o    -1.1776794    3.5324596    0.8455210  0.00   -0.0001062    0.0019969   -0.0012514
h    -1.6373767    3.3843099    1.7383930  0.00   -0.0006779   -0.0002433    0.0012892
h     1.5346834    1.6129720   -2.1644510  0.00    0.0005532    0.0005360   -0.0011651
h     0.5408049   -0.6334124    1.3061799  0.00   -0.0001653   -0.0017967    0.0010434
h    -0.8241055    1.2212508    2.1011996  0.00   -0.0005955   -0.0004514    0.0011255
h     0.1618837    3.4616634   -1.3415337  0.00    0.0001228    0.0017833   -0.0012524
c     1.9756613   -0.7760795   -0.9746135  0.00    0.0027330   -0.0052197    0.0016030
c     1.1377662   -1.7933850   -1.7777721  0.00    0.0018996    0.0034427   -0.0005073
h     2.4633085   -1.3034114   -0.1200196  0.00    0.0106813   -0.0185830   -0.0087110
h     2.8041271   -0.3811556   -1.6091563  0.00    0.0011819    0.0001815   -0.0006972
c     2.0289536   -2.7747301   -2.5492703  0.00    0.0010175    0.0004792    0.0020312
o     1.5992427   -3.2500466   -3.7862084  0.00   -0.0018795   -0.0038863   -0.0068770
o     3.2408340   -3.2388952   -2.0346185  0.00    0.0015170   -0.0045824   -0.0054722
h     3.4186917   -2.8524690   -1.1153714  0.00   -0.0124266    0.0276084    0.0150390
n     0.2185809   -2.4871325   -0.8471188  0.00    0.0059612    0.0015278    0.0096849
h     0.5584052   -1.2486575   -2.5655256  0.00   -0.0006242    0.0016519   -0.0017828
h    -0.6786002   -1.9362577   -0.7934972  0.00   -0.0088183    0.0067321   -0.0014681
h    -0.0508725   -3.4320834   -1.2352542  0.00   -0.0006967   -0.0105481   -0.0029234
    24
 Energy =       0.0726144715
c    -0.3251021    1.2452829    1.2083527  0.00   -0.0007102   -0.0010220    0.0017335
c    -0.4797735    2.3871400    0.4820025  0.00   -0.0002705    0.0007792   -0.0000544