    27
 Energy =       0.3470922882
c    -1.4235396    2.6054793   -0.0667700  0.00   -0.0463157    0.0383135    0.0025140
c    -1.3072796    1.2134697   -0.1072300  0.00   -0.0853158   -0.0325525    0.0017794
c    -0.0178900    0.6711998   -0.1697000  0.00   -0.0899832   -0.1874076    0.0001359
c    -0.2940599    3.4190890   -0.0891300  0.00   -0.0232619    0.0691007    0.0027233
c     0.9872197    2.8590292   -0.1560400  0.00    0.0103607    0.0638290    0.0007130
c     1.1340797    1.4562096   -0.1970299  0.00    0.0524171    0.0519936    0.0025642
n     0.3879399   -0.6395298   -0.2140799  0.00    0.1496762    0.1099968   -0.0091542
c     2.2666594    0.5727398   -0.2659299  0.00    0.1894901   -0.1349071   -0.0738563
c     1.7555995   -0.7123598   -0.2706899  0.00    0.0033717   -0.0955049   -0.1324763
h    -0.2400399   -1.4313496   -0.2047299  0.00    0.0355062    0.0473666    0.0010967
c     3.7030089    1.0223397   -0.3320099  0.00   -0.0354666   -0.0184783   -0.0652863
c     4.2197688    1.4064496   -1.7267995  0.00   -0.0620073    0.0290226    0.1254697
h     4.3261788    0.2093419    0.0639454  0.00   -0.0056883    0.0127835   -0.0058480
h     3.8370289    1.8640295    0.3610799  0.00   -0.0039369   -0.0125435   -0.0045046
c     3.7734089    0.3331939   -2.7369592  0.00    0.0886920   -0.0624014   -0.3694909
n     5.7205784    1.5052196   -1.8052095  0.00    0.0860996   -0.0292486   -0.0460275
h     3.7949889    2.3605393   -2.0604594  0.00    0.0161887   -0.0112459    0.0031784
h     6.0814483    1.3602996   -0.8566008  0.00   -0.0321405   -0.0063956   -0.0265929
h     6.0587583    0.6873448   -2.3244293  0.00   -0.0452340    0.0190232    0.0176922
h    -2.4108593    3.0588691   -0.0157800  0.00   -0.0009480    0.0003111    0.0002128
h    -2.1896094    0.5822398   -0.0890100  0.00   -0.0036198    0.0036977    0.0003227
h    -0.4052699    4.5000487   -0.0535400  0.00    0.0008745    0.0003383    0.0004792
h     1.8590495    3.5066790   -0.1715100  0.00   -0.0009264    0.0028984    0.0008374
h     2.2327294   -1.6813195   -0.3062999  0.00   -0.0315430   -0.0038360   -0.0139086
o     3.9573089    0.3724499   -3.9421789  0.00   -0.0483771   -0.0035156    0.2883379
o     3.1342991   -0.6931888   -2.1135494  0.00   -0.1167528    0.1129518    0.2816240
h     3.6905189   -1.4931596   -2.3013493  0.00   -0.0011594    0.0364101    0.0174649
    27
 Energy =       0.2844759934
c    -1.3574630    2.7294585   -0.1487760  0.00   -0.0320533    0.0253245    0.0018623
c    -1.2858666    1.3467234   -0.1807139  0.00   -0.0580816   -0.0228936    0.0014397
c    -0.0323700    0.7664091   -0.2323344  0.00   -0.0586387   -0.1246119    0.0009639
c    -0.2054249    3.4972604   -0.1683466  0.00   -0.0165546    0.0470155    0.0020363
c     1.0461857    2.8939970   -0.2207166  0.00    0.0068591    0.0440177    0.0005993
c     1.1291304    1.5024296   -0.2511985  0.00    0.0342456    0.0358703    0.0020707
n     0.2928284   -0.5785573   -0.2534715  0.00    0.0972634    0.0729727   -0.0088443
c     2.2139443    0.6006440   -0.2755290  0.00    0.1289573   -0.0920534   -0.0570344
c     1.6823512   -0.6579530   -0.2299344  0.00    0.0072369   -0.0608929   -0.0892114
h    -0.3719118   -1.3558971   -0.2599569  0.00    0.0226769    0.0311128    0.0002610
c     3.6763588    0.9508078   -0.2877470  0.00   -0.0228662   -0.0156678   -0.0476079
c     4.2261661    1.2888308   -1.6773188  0.00   -0.0421189    0.0198541    0.0838177
h     4.2408275    0.0941339    0.1236050  0.00   -0.0029194    0.0062286   -0.0033601
h     3.8491055    1.7964860    0.3997485  0.00   -0.0023918   -0.0077990   -0.0027331
c     3.7569230    0.2394961   -2.6912691  0.00    0.0654859   -0.0424049   -0.2459207
n     5.7218388    1.3665261   -1.7033322  0.00    0.0591817   -0.0185072   -0.0309347
h     3.8250987    2.2553240   -2.0257559  0.00    0.0106621   -0.0071478    0.0019720
h     6.0800634    1.2305186   -0.7444493  0.00   -0.0216298   -0.0044038   -0.0177009
h     6.0834409    0.5593470   -2.2383101  0.00   -0.0312332    0.0119808    0.0115053
h    -2.3296539    3.2163784   -0.1070589  0.00   -0.0013620    0.0004542    0.0001840
h    -2.1865179    0.7409930   -0.1631237  0.00   -0.0028037    0.0020358    0.0002438
h    -0.2784870    4.5824359   -0.1402064  0.00    0.0004270    0.0010385    0.0003559
h     1.9453925    3.5046834   -0.2283246  0.00    0.0002102    0.0026614    0.0005377
h     2.1879084   -1.6160351   -0.1738720  0.00   -0.0184257   -0.0055946   -0.0077079
o     3.9752666    0.3534871   -3.9432726  0.00   -0.0303257    0.0004512    0.1915773
o     3.0459325   -0.8075004   -2.1504971  0.00   -0.1147085    0.0952910    0.2035512
h     3.7009568   -1.5850732   -2.1798272  0.00    0.0229070    0.0056677    0.0080772
    27
 Energy =       0.2842324706
c    -1.3580316    2.7254258   -0.1549460  0.00   -0.0310435    0.0245261    0.0018035
c    -1.2873010    1.3433321   -0.1849465  0.00   -0.0562530   -0.0221760    0.0013924
c    -0.0353177    0.7623816   -0.2368490  0.00   -0.0567845   -0.1206749    0.0009187
c    -0.2058572    3.4919713   -0.1762399  0.00   -0.0160341    0.0455354    0.0019733
c     1.0443995    2.8878374   -0.2287087  0.00    0.0066442    0.0426326    0.0005809
c     1.1252519    1.4973162   -0.2577413  0.00    0.0331661    0.0347457    0.0020066
n     0.2878896   -0.5842058   -0.2532916  0.00    0.0941900    0.0706697   -0.0085545
c     2.2087204    0.5973176   -0.2821175  0.00    0.1249336   -0.0891982   -0.0552584
c     1.6788823   -0.6614546   -0.2376685  0.00    0.0072019   -0.0590017   -0.0865124
h    -0.3772188   -1.3622701   -0.2534048  0.00    0.0219360    0.0301092    0.0002621
c     3.6713065    0.9486547   -0.2934356  0.00   -0.0221475   -0.0152996   -0.0461947
c     4.2212309    1.2906623   -1.6829110  0.00   -0.0409336    0.0191928    0.0811952
h     4.2368852    0.0926091    0.1179677  0.00   -0.0028399    0.0059449   -0.0033528
h     3.8430013    1.7939489    0.3953158  0.00   -0.0023150   -0.0075557   -0.0026455
c     3.7459211    0.2499547   -2.7033332  0.00    0.0640074   -0.0415252   -0.2377787
n     5.7166744    1.3627534   -1.7073459  0.00    0.0573350   -0.0179045   -0.0299869
h     3.8241050    2.2611696   -2.0259705  0.00    0.0103185   -0.0068915    0.0019061
h     6.0766470    1.2273873   -0.7485645  0.00   -0.0209554   -0.0042779   -0.0171362
h     6.0774708    0.5564484   -2.2452529  0.00   -0.0302492    0.0115955    0.0111593
h    -2.3298288    3.2130642   -0.1131360  0.00   -0.0013197    0.0004400    0.0001783
h    -2.1881702    0.7380137   -0.1652699  0.00   -0.0027177    0.0019701    0.0002365
h    -0.2780462    4.5772287   -0.1495372  0.00    0.0004135    0.0010076    0.0003451
h     1.9442176    3.4975320   -0.2379369  0.00    0.0002061    0.0025786    0.0005216
h     2.1864534   -1.6181901   -0.1822612  0.00   -0.0176944   -0.0053795   -0.0075323
o     3.9892539    0.3595354   -3.9546077  0.00   -0.0291024    0.0002615    0.1853263
o     3.0415814   -0.8049526   -2.1687227  0.00   -0.1359819    0.1151325    0.1929610
h     3.7719037   -1.5281175   -2.0210741  0.00    0.0460195   -0.0164578    0.0121857
    27
 Energy =       0.2798187143
c    -1.3313569    2.8023828   -0.1777542  0.00   -0.0298522    0.0234551    0.0017317
c    -1.2852887    1.4206086   -0.2068055  0.00   -0.0538642   -0.0213026    0.0013421
c    -0.0456540    0.8176598   -0.2553446  0.00   -0.0541843   -0.1149454    0.0008894
c    -0.1655557    3.5470009   -0.1961311  0.00   -0.0153388    0.0436758    0.0018877
c     1.0731466    2.9199969   -0.2440965  0.00    0.0065199    0.0408191    0.0005426
c     1.1274828    1.5295091   -0.2724059  0.00    0.0316308    0.0332504    0.0018856
n     0.2461755   -0.5359525   -0.2664945  0.00    0.0897302    0.0671958   -0.0081905
c     2.1919074    0.6093329   -0.2879211  0.00    0.1189590   -0.0849824   -0.0526042
c     1.6372378   -0.6378180   -0.2402453  0.00    0.0069822   -0.0564930   -0.0822721
h    -0.4376100   -1.2994619   -0.2687945  0.00    0.0205856    0.0283765    0.0002383
c     3.6638538    0.9198724   -0.2797391  0.00   -0.0216994   -0.0145835   -0.0438812
c     4.2492790    1.2304056   -1.6632436  0.00   -0.0403612    0.0180938    0.0773417
h     4.1961082    0.0505990    0.1507111  0.00   -0.0024201    0.0049603   -0.0028891
h     3.8501232    1.7674308    0.4031331  0.00   -0.0022062   -0.0070449   -0.0024911
c     3.7373745    0.2168733   -2.6937183  0.00    0.0603574   -0.0396623   -0.2270415
n     5.7483594    1.2322262   -1.6649445  0.00    0.0569643   -0.0156825   -0.0288716
h     3.9046766    2.2215792   -2.0114186  0.00    0.0093859   -0.0051361    0.0013560
h     6.0900690    1.0686342   -0.7023699  0.00   -0.0190293   -0.0043760   -0.0156697
h     6.0782635    0.4100384   -2.2019296  0.00   -0.0279898    0.0101991    0.0103964
h    -2.2943505    3.3077027   -0.1388363  0.00   -0.0014494    0.0005105    0.0001778
h    -2.1969574    0.8312604   -0.1887097  0.00   -0.0027550    0.0017615    0.0002289
h    -0.2177925    4.6335753   -0.1701349  0.00    0.0003800    0.0011737    0.0003340
h     1.9846053    3.5124245   -0.2499427  0.00    0.0003902    0.0025916    0.0004917
h     2.1294483   -1.6023698   -0.1737654  0.00   -0.0167637   -0.0053351   -0.0071236
o     3.9920492    0.3350718   -3.9472222  0.00   -0.0276198    0.0003163    0.1765643
o     2.9984711   -0.8259706   -2.1769567  0.00   -0.1306657    0.1092914    0.1839249
h     3.7079590   -1.5672582   -2.0269086  0.00    0.0443134   -0.0161271    0.0117017
    27
 Energy =       0.2470621982
c    -1.2747558    2.8368216   -0.1920886  0.00   -0.0200673    0.0156134    0.0011972
c    -1.2602801    1.4606965   -0.2012961  0.00   -0.0358588   -0.0144023    0.0007793
c    -0.0456676    0.8304723   -0.2435242  0.00   -0.0347593   -0.0750671   -0.0007376
c    -0.0951530    3.5491278   -0.2205837  0.00   -0.0104553    0.0294206    0.0014120
c     1.1195322    2.8925959   -0.2608750  0.00    0.0046552    0.0275437    0.0004491
c     1.1299488    1.5120046   -0.2724187  0.00    0.0210138    0.0218948    0.0011242
n     0.2025479   -0.5434285   -0.2139703  0.00    0.0586732    0.0434288   -0.0037556
c     2.1650484    0.5912138   -0.2789393  0.00    0.0802982   -0.0581356   -0.0379797
c     1.6078309   -0.6466173   -0.2354566  0.00    0.0100572   -0.0370642   -0.0610595
h    -0.4980086   -1.3013785   -0.1749097  0.00    0.0122708    0.0178814    0.0005793
c     3.6420328    0.8816525   -0.2611843  0.00   -0.0153399   -0.0101390   -0.0296035
c     4.2099227    1.2164524   -1.6472494  0.00   -0.0288666    0.0117420    0.0514994
h     4.1718664   -0.0058910    0.1414787  0.00   -0.0015027    0.0025839   -0.0018127
h     3.8423621    1.7160116    0.4383070  0.00   -0.0012819   -0.0045343   -0.0014057
c     3.7330707    0.1999256   -2.6863929  0.00    0.0403652   -0.0273403   -0.1483362
n     5.7025918    1.2889217   -1.6311080  0.00    0.0380008   -0.0073417   -0.0177391
h     3.8193503    2.1971033   -1.9867281  0.00    0.0059888   -0.0025361    0.0008112
h     6.0633185    1.1547108   -0.6656970  0.00   -0.0117921   -0.0034525   -0.0095773
h     6.0973655    0.5007047   -2.1874586  0.00   -0.0167042    0.0032536    0.0048826
h    -2.2249917    3.3661306   -0.1591130  0.00   -0.0012459    0.0007284    0.0000802
h    -2.1843422    0.8915849   -0.1699740  0.00   -0.0021388    0.0010872    0.0001043
h    -0.1196458    4.6372591   -0.2097264  0.00    0.0003245    0.0014409    0.0002160
h     2.0476590    3.4587238   -0.2763546  0.00    0.0008192    0.0020334    0.0002771
h     2.1193338   -1.6019459   -0.1751498  0.00   -0.0108416   -0.0033561   -0.0050937
o     3.9912431    0.3715147   -3.9700821  0.00   -0.0182376    0.0025877    0.1153314
o     2.9983099   -0.8778360   -2.2258330  0.00   -0.0998091    0.0816429    0.1275715
h     3.6715342   -1.6611773   -2.1856617  0.00    0.0364345   -0.0195135    0.0107857
    27
 Energy =       0.2417920483
c    -1.2941613    2.7668959   -0.1700995  0.00   -0.0187568    0.0145751    0.0011108
c    -1.2586710    1.3915744   -0.1753995  0.00   -0.0334211   -0.0134373    0.0007157
c    -0.0357454    0.7800426   -0.2200949  0.00   -0.0324104   -0.0695720   -0.0007167
c    -0.1262060    3.4967825   -0.2051588  0.00   -0.0096560    0.0274758    0.0013109
c     1.0966723    2.8590192   -0.2487044  0.00    0.0045227    0.0256215    0.0004055
c     1.1266018    1.4803272   -0.2563516  0.00    0.0194582    0.0204655    0.0010153
n     0.2360402   -0.5924951   -0.1899980  0.00    0.0541483    0.0402186   -0.0034286
c     2.1760732    0.5816518   -0.2689463  0.00    0.0742881   -0.0539452   -0.0351411
c     1.6453213   -0.6667909   -0.2250586  0.00    0.0096585   -0.0345999   -0.0568286
h    -0.4485508   -1.3660047   -0.1435344  0.00    0.0111020    0.0162293    0.0005616
c     3.6470996    0.9079494   -0.2700230  0.00   -0.0147785   -0.0093619   -0.0271823
c     4.1803137    1.2705673   -1.6643202  0.00   -0.0283923    0.0106093    0.0475912
h     4.2078817    0.0304385    0.1148458  0.00   -0.0010837    0.0018252   -0.0014453
h     3.8365296    1.7422253    0.4332275  0.00   -0.0012016   -0.0040984   -0.0012868
c     3.7402482    0.2287339   -2.6946672  0.00    0.0370472   -0.0258264   -0.1374908
n     5.6682629    1.4188965   -1.6642191  0.00    0.0372371   -0.0049657   -0.0165079
h     3.7350013    2.2307501   -2.0000671  0.00    0.0049118   -0.0009024    0.0003025
h     6.0493139    1.3134639   -0.7019236  0.00   -0.0099110   -0.0033701   -0.0081743
h     6.1013481    0.6531378   -2.2254718  0.00   -0.0142551    0.0019065    0.0039573
h    -2.2522765    3.2817629   -0.1351181  0.00   -0.0012835    0.0007457    0.0000784
h    -2.1736330    0.8081558   -0.1393215  0.00   -0.0021214    0.0009235    0.0001011
h    -0.1671313    4.5844960   -0.1975028  0.00    0.0003056    0.0014852    0.0002012
h     2.0161640    3.4389926   -0.2704230  0.00    0.0009102    0.0019572    0.0002441
h     2.1801649   -1.6101668   -0.1744169  0.00   -0.0098218   -0.0034435   -0.0047262
o     3.9722560    0.4113953   -3.9871782  0.00   -0.0167566    0.0028543    0.1064518
o     3.0465694   -0.8743591   -2.2288628  0.00   -0.0952420    0.0765010    0.1187737
h     3.7265373   -1.6520885   -2.2432011  0.00    0.0355022   -0.0198711    0.0101077
    27
 Energy =       0.2337086085
c    -1.3067859    2.6968325   -0.1416924  0.00   -0.0163215    0.0126925    0.0009577
c    -1.2513007    1.3234251   -0.1426898  0.00   -0.0290331   -0.0116729    0.0006021
c    -0.0219960    0.7300044   -0.1898679  0.00   -0.0282457   -0.0601013   -0.0006649
c    -0.1505752    3.4425939   -0.1839905  0.00   -0.0082852    0.0239154    0.0011373
c     1.0786936    2.8227385   -0.2309323  0.00    0.0041284    0.0221955    0.0003383
c     1.1259489    1.4474140   -0.2341687  0.00    0.0167389    0.0178784    0.0008462
n     0.2708422   -0.6422893   -0.1615025  0.00    0.0464795    0.0347365   -0.0028823
c     2.1876720    0.5725867   -0.2541706  0.00    0.0640537   -0.0468360   -0.0304648
c     1.6847651   -0.6856541   -0.2108590  0.00    0.0089758   -0.0301088   -0.0497632
h    -0.3977223   -1.4315901   -0.1080470  0.00    0.0093373    0.0136591    0.0005174
c     3.6520525    0.9338667   -0.2778963  0.00   -0.0133479   -0.0080670   -0.0231492
c     4.1455428    1.3230441   -1.6819509  0.00   -0.0263630    0.0088772    0.0407803
h     4.2436993    0.0668088    0.0870097  0.00   -0.0005717    0.0009862   -0.0010090
h     3.8334966    1.7679186    0.4286547  0.00   -0.0010630   -0.0034618   -0.0011014
c     3.7419263    0.2605068   -2.7055272  0.00    0.0322403   -0.0230038   -0.1180776
n     5.6237826    1.5490818   -1.6990637  0.00    0.0340800   -0.0022292   -0.0143071
h     3.6452190    2.2602453   -2.0108036  0.00    0.0034988    0.0007018   -0.0002036
h     6.0264820    1.4722170   -0.7413369  0.00   -0.0074957   -0.0030335   -0.0063462
h     6.0955663    0.8114845   -2.2696670  0.00   -0.0108634    0.0004353    0.0026911
h    -2.2720473    3.1979281   -0.1047565  0.00   -0.0012225    0.0007087    0.0000712
h    -2.1572065    0.7264079   -0.1019709  0.00   -0.0019614    0.0007220    0.0000914
h    -0.2068791    4.5296008   -0.1800910  0.00    0.0002720    0.0014167    0.0001748
h     1.9898914    3.4152897   -0.2596928  0.00    0.0009326    0.0017447    0.0001936
h     2.2456858   -1.6150204   -0.1739245  0.00   -0.0081349   -0.0033917   -0.0041278
o     3.9330588    0.4649585   -4.0110248  0.00   -0.0143320    0.0034827    0.0907044
o     3.0992137   -0.8743894   -2.2395954  0.00   -0.0896103    0.0705675    0.1047045
h     3.7729986   -1.6506568   -2.3524315  0.00    0.0361138   -0.0228142    0.0082869
    27
 Energy =       0.2243643798
c    -1.3102599    2.6338779   -0.1044794  0.00   -0.0131035    0.0102164    0.0007570
c    -1.2377331    1.2632149   -0.1027789  0.00   -0.0233095   -0.0093535    0.0004573
c    -0.0044688    0.6855473   -0.1534057  0.00   -0.0228140   -0.0479967   -0.0005608
c    -0.1646462    3.3923591   -0.1537052  0.00   -0.0065623    0.0192270    0.0009102
c     1.0687930    2.7877806   -0.2050699  0.00    0.0034861    0.0177533    0.0002538
c     1.1296611    1.4166929   -0.2053695  0.00    0.0132577    0.0144635    0.0006455
n     0.3044748   -0.6876276   -0.1319090  0.00    0.0368419    0.0277430   -0.0022306
c     2.2001629    0.5643590   -0.2355741  0.00    0.0511314   -0.0378341   -0.0246417
c     1.7228932   -0.7017644   -0.1955121  0.00    0.0080976   -0.0241831   -0.0409000
h    -0.3500956   -1.4909894   -0.0738699  0.00    0.0072853    0.0106330    0.0004380
c     3.6581249    0.9547472   -0.2852811  0.00   -0.0111495   -0.0064464   -0.0181259
c     4.1096708    1.3686141   -1.6993078  0.00   -0.0226591    0.0069489    0.0320619
h     4.2767982    0.0961162    0.0569722  0.00   -0.0000969    0.0002729   -0.0005988
h     3.8373246    1.7869608    0.4251151  0.00   -0.0008884   -0.0027317   -0.0008570
c     3.7325262    0.2965347   -2.7218356  0.00    0.0272979   -0.0190913   -0.0923334
n     5.5748430    1.6613670   -1.7351418  0.00    0.0285415   -0.0001577   -0.0114715
h     3.5623662    2.2853722   -2.0148729  0.00    0.0021763    0.0016916   -0.0005174
h     5.9998509    1.6043738   -0.7841138  0.00   -0.0052192   -0.0024970   -0.0045698
h     6.0769908    0.9547668   -2.3216963  0.00   -0.0074042   -0.0006528    0.0014287
h    -2.2812880    3.1231790   -0.0649271  0.00   -0.0010594    0.0006145    0.0000590
h    -2.1355521    0.6545643   -0.0585445  0.00   -0.0016628    0.0005246    0.0000749
h    -0.2338144    4.4784914   -0.1525862  0.00    0.0002259    0.0012244    0.0001404
h     1.9728172    3.3905701   -0.2408269  0.00    0.0008624    0.0014222    0.0001357
h     2.3089272   -1.6168474   -0.1780249  0.00   -0.0060755   -0.0031534   -0.0033790
o     3.8606220    0.5367338   -4.0420384  0.00   -0.0114029    0.0047465    0.0693501
o     3.1525323   -0.8763118   -2.2620210  0.00   -0.0850645    0.0658447    0.0898928
h     3.8005031   -1.6473289   -2.5111847  0.00    0.0392679   -0.0292289    0.0035804
    27
 Energy =       0.2166660139
c    -1.3044441    2.5876703   -0.0597175  0.00   -0.0100697    0.0078787    0.0005635
c    -1.2208391    1.2196519   -0.0606454  0.00   -0.0179347   -0.0071682    0.0003304
c     0.0137717    0.6525750   -0.1171936  0.00   -0.0176764   -0.0367014   -0.0004103
c    -0.1661846    3.3539028   -0.1132333  0.00   -0.0050160    0.0147976    0.0006843
c     1.0689362    2.7593526   -0.1714120  0.00    0.0027689    0.0136116    0.0001706
c     1.1377176    1.3920417   -0.1740623  0.00    0.0100381    0.0112192    0.0004712
n     0.3313864   -0.7222422   -0.1102940  0.00    0.0281039    0.0212101   -0.0016841
c     2.2124156    0.5559760   -0.2185977  0.00    0.0392231   -0.0294090   -0.0191952
c     1.7530411   -0.7150427   -0.1871491  0.00    0.0070838   -0.0185796   -0.0325490
h    -0.3140448   -1.5353300   -0.0523879  0.00    0.0055212    0.0080309    0.0003381
c     3.6656980    0.9644367   -0.2937452  0.00   -0.0088326   -0.0049692   -0.0135695
c     4.0792461    1.4019802   -1.7151007  0.00   -0.0182278    0.0053295    0.0242996
h     4.3031553    0.1091599    0.0235913  0.00    0.0002203   -0.0001546   -0.0003126
h     3.8498794    1.7912235    0.4227626  0.00   -0.0007274   -0.0020732   -0.0005806
c     3.7076084    0.3363653   -2.7451878  0.00    0.0235457   -0.0151096   -0.0672218
n     5.5331132    1.7354405   -1.7703157  0.00    0.0222174    0.0007284   -0.0088780
h     3.5021618    2.3082097   -2.0089379  0.00    0.0013151    0.0018793   -0.0005769
h     5.9802858    1.6798703   -0.8281388  0.00   -0.0036610   -0.0019769   -0.0031505
h     6.0482788    1.0571347   -2.3805017  0.00   -0.0048739   -0.0011896    0.0004742
h    -2.2789638    3.0691724   -0.0156703  0.00   -0.0008551    0.0004974    0.0000453
h    -2.1131154    0.6032523   -0.0156220  0.00   -0.0013176    0.0003823    0.0000566
h    -0.2435262    4.4392956   -0.1108600  0.00    0.0001756    0.0009758    0.0001072
h     1.9681717    3.3685665   -0.2120510  0.00    0.0007188    0.0010941    0.0000898
h     2.3572508   -1.6190250   -0.1948531  0.00   -0.0042937   -0.0028160   -0.0026783
o     3.7474945    0.6252010   -4.0750291  0.00   -0.0089832    0.0066934    0.0471760
o     3.1999312   -0.8767233   -2.2976995  0.00   -0.0774079    0.0574462    0.0772105
h     3.8135989   -1.6267618   -2.6699378  0.00    0.0389452   -0.0316272   -0.0012104
    27
 Energy =       0.2127478488
c    -1.2909982    2.5714269   -0.0200183  0.00   -0.0082208    0.0064794    0.0004450
c    -1.2066123    1.2047938   -0.0318920  0.00   -0.0146406   -0.0058730    0.0002671
c     0.0262543    0.6391994   -0.0952744  0.00   -0.0144854   -0.0297443   -0.0002776
c    -0.1538717    3.3376990   -0.0704820  0.00   -0.0041134    0.0121081    0.0005362
c     1.0797348    2.7442371   -0.1361276  0.00    0.0022601    0.0111449    0.0001165
c     1.1474015    1.3789298   -0.1493926  0.00    0.0081111    0.0092233    0.0003693
n     0.3421374   -0.7378719   -0.1098363  0.00    0.0229950    0.0171184   -0.0014087
c     2.2205453    0.5478501   -0.2089738  0.00    0.0320389   -0.0241007   -0.0158214
c     1.7654598   -0.7240066   -0.1937386  0.00    0.0061399   -0.0152109   -0.0271745
h    -0.3020428   -1.5538468   -0.0595088  0.00    0.0044836    0.0065045    0.0002657
c     3.6729523    0.9595310   -0.2988764  0.00   -0.0072600   -0.0040808   -0.0109063
c     4.0641319    1.4169270   -1.7220532  0.00   -0.0150021    0.0042156    0.0202875
h     4.3159704    0.1003984   -0.0029607  0.00    0.0003373   -0.0003055   -0.0001911
h     3.8670693    1.7774545    0.4258792  0.00   -0.0006060   -0.0016265   -0.0003589
c     3.6700097    0.3726053   -2.7650428  0.00    0.0219347   -0.0135115   -0.0480416
n     5.5156871    1.7502691   -1.7934231  0.00    0.0175693    0.0011786   -0.0074057
h     3.4836875    2.3293223   -1.9898977  0.00    0.0008326    0.0017961   -0.0005409
h     5.9815217    1.6711283   -0.8609037  0.00   -0.0026379   -0.0016884   -0.0018523
h     6.0211100    1.0898526   -2.4319054  0.00   -0.0035290   -0.0015686   -0.0002369
h    -2.2655281    3.0520945    0.0293027  0.00   -0.0007083    0.0004203    0.0000365
h    -2.0982190    0.5872827    0.0081928  0.00   -0.0010816    0.0002957    0.0000456
h    -0.2314692    4.4229180   -0.0602676  0.00    0.0001375    0.0008288    0.0000863
h     1.9786477    3.3536996   -0.1754461  0.00    0.0005886    0.0008954    0.0000688
h     2.3755282   -1.6238882   -0.2254468  0.00   -0.0033288   -0.0025636   -0.0022289
o     3.5887414    0.7203073   -4.0913699  0.00   -0.0082196    0.0098369    0.0277380
o     3.2374229   -0.8767565   -2.3326447  0.00   -0.0699624    0.0486200    0.0697565
h     3.8267526   -1.5962032   -2.7898814  0.00    0.0363672   -0.0303922   -0.0035744
    27
 Energy =       0.2135116455
c    -1.2700513    2.6146638   -0.0229089  0.00   -0.0080025    0.0062329    0.0004295
c    -1.2047796    1.2473835   -0.0485761  0.00   -0.0140536   -0.0057694    0.0002601
c     0.0200480    0.6652602   -0.1091241  0.00   -0.0137942   -0.0281820   -0.0002368
c    -0.1218875    3.3651797   -0.0577485  0.00   -0.0038436    0.0117353    0.0005034
c     1.1035940    2.7549895   -0.1206154  0.00    0.0022888    0.0107790    0.0000985
c     1.1517596    1.3892998   -0.1471161  0.00    0.0078182    0.0088207    0.0003402
n     0.3147799   -0.7164403   -0.1416705  0.00    0.0217519    0.0159973   -0.0013639
c     2.2129633    0.5439499   -0.2083915  0.00    0.0306075   -0.0227230   -0.0151446
c     1.7393289   -0.7215115   -0.2137356  0.00    0.0058624   -0.0146731   -0.0258528
h    -0.3421905   -1.5235990   -0.1072134  0.00    0.0040110    0.0058633    0.0002608
c     3.6727185    0.9341749   -0.2870155  0.00   -0.0069648   -0.0038848   -0.0103518
c     4.0780776    1.3929794   -1.7062038  0.00   -0.0149828    0.0032553    0.0203046
h     4.2992759    0.0620628    0.0069827  0.00    0.0004399   -0.0004679   -0.0001117
h     3.8775095    1.7446856    0.4433121  0.00   -0.0005173   -0.0014553   -0.0002993
c     3.6387431    0.3761998   -2.7586242  0.00    0.0221042   -0.0154949   -0.0367582
n     5.5411695    1.6741450   -1.7787300  0.00    0.0170971    0.0024210   -0.0073506
h     3.5298116    2.3302761   -1.9598749  0.00    0.0003014    0.0024726   -0.0006536
h     6.0102760    1.5520980   -0.8513129  0.00   -0.0014545   -0.0017404   -0.0005848
h     6.0179273    1.0114273   -2.4374139  0.00   -0.0028559   -0.0021635   -0.0008213
h    -2.2381510    3.1085218    0.0240737  0.00   -0.0007841    0.0004451    0.0000405
h    -2.1053449    0.6419224   -0.0226101  0.00   -0.0012027    0.0001372    0.0000488
h    -0.1842413    4.4513550   -0.0374710  0.00    0.0001424    0.0009671    0.0000843
h     2.0114258    3.3519610   -0.1479992  0.00    0.0007154    0.0009805    0.0000593
h     2.3370320   -1.6295874   -0.2518919  0.00   -0.0031240   -0.0025854   -0.0020884
o     3.4299883    0.7780755   -4.0644293  0.00   -0.0095041    0.0130154    0.0147450
o     3.2540703   -0.8934944   -2.3379355  0.00   -0.0668998    0.0453874    0.0682621
h     3.8581715   -1.5906247   -2.8077456  0.00    0.0348437   -0.0293705   -0.0038195
    27
 Energy =       0.2105204147
c    -1.2922200    2.5425191    0.0104638  0.00   -0.0083214    0.0062395    0.0004437
c    -1.1987485    1.1762646   -0.0027308  0.00   -0.0142193   -0.0059784    0.0002684
c     0.0374872    0.6190605   -0.0734992  0.00   -0.0137358   -0.0278279   -0.0002282
c    -0.1602748    3.3167095   -0.0461385  0.00   -0.0036862    0.0120277    0.0004915
c     1.0768254    2.7315998   -0.1196320  0.00    0.0026277    0.0109108    0.0000733
c     1.1530384    1.3667970   -0.1343652  0.00    0.0079073    0.0088159    0.0003253
n     0.3623130   -0.7572176   -0.0929488  0.00    0.0209854    0.0154929   -0.0013134
c     2.2312728    0.5443245   -0.2040816  0.00    0.0303930   -0.0222154   -0.0149428
c     1.7860848   -0.7314443   -0.1885186  0.00    0.0059401   -0.0147754   -0.0253634
h    -0.2758139   -1.5789643   -0.0392147  0.00    0.0034838    0.0051748    0.0002969
c     3.6801024    0.9677646   -0.3094757  0.00   -0.0070398   -0.0037729   -0.0099996
c     4.0500080    1.4388111   -1.7348561  0.00   -0.0162312    0.0022423    0.0206833
h     4.3339753    0.1111123   -0.0277291  0.00    0.0007694   -0.0008897    0.0000706
h     3.8772057    1.7825256    0.4183845  0.00   -0.0004647   -0.0013673   -0.0002870
c     3.6544629    0.3962739   -2.7816745  0.00    0.0215173   -0.0174962   -0.0282209
n     5.4992375    1.7888863   -1.8186192  0.00    0.0182545    0.0040282   -0.0079295
h     3.4561002    2.3483692   -1.9906760  0.00   -0.0004384    0.0035907   -0.0009392
h     5.9784833    1.7108511   -0.8906026  0.00   -0.0000758   -0.0017728    0.0006147
h     6.0055044    1.1355926   -2.4655580  0.00   -0.0021955   -0.0027197   -0.0012375
h    -2.2699893    3.0166329    0.0656922  0.00   -0.0010542    0.0005368    0.0000556
h    -2.0862832    0.5522593    0.0417870  0.00   -0.0015530   -0.0001304    0.0000661
h    -0.2449962    4.4017675   -0.0347761  0.00    0.0001547    0.0012673    0.0000843
h     1.9717453    3.3474399   -0.1641433  0.00    0.0010567    0.0012221    0.0000355
h     2.4041948   -1.6258223   -0.2323400  0.00   -0.0028886   -0.0028358   -0.0020086
o     3.5560947    0.7519789   -4.1186272  0.00   -0.0098093    0.0147047    0.0052579
o     3.2471450   -0.8634709   -2.3522690  0.00   -0.0675420    0.0470568    0.0699316
h     3.7990695   -1.5752672   -2.8658407  0.00    0.0361652   -0.0315286   -0.0062289
    27
 Energy =       0.2056763162
c    -1.3044230    2.4644858    0.0697055  0.00   -0.0076215    0.0055058    0.0003968
c    -1.1847991    1.1006488    0.0583007  0.00   -0.0127468   -0.0053376    0.0002316
c     0.0601615    0.5672138   -0.0294036  0.00   -0.0121664   -0.0242853   -0.0002132
c    -0.1886697    3.2598388   -0.0052103  0.00   -0.0031906    0.0108397    0.0004231
c     1.0574268    2.6984636   -0.0963521  0.00    0.0026745    0.0096282    0.0000369
c     1.1586918    1.3362290   -0.1099387  0.00    0.0069360    0.0078015    0.0002924
n     0.4114986   -0.8041505   -0.0518850  0.00    0.0176565    0.0133662   -0.0010332
c     2.2507408    0.5375649   -0.1996183  0.00    0.0265821   -0.0193552   -0.0128503
c     1.8340711   -0.7469931   -0.1751095  0.00    0.0054775   -0.0129458   -0.0219487
h    -0.2083259   -1.6398972    0.0145173  0.00    0.0026930    0.0040468    0.0002995
c     3.6876172    0.9923196   -0.3375045  0.00   -0.0065775   -0.0033231   -0.0082723
c     4.0137181    1.4897248   -1.7664171  0.00   -0.0159433    0.0009130    0.0184876
h     4.3685595    0.1478982   -0.0817694  0.00    0.0011565   -0.0013501    0.0002566
h     3.8830159    1.8032163    0.3955037  0.00   -0.0004492   -0.0011467   -0.0002018
c     3.6613813    0.4361384   -2.8193745  0.00    0.0174877   -0.0166628   -0.0170250