    13
 Energy =       0.1321806785
c    -3.7133889    1.6950595    0.3173519  0.00   -0.0504528    0.0566898    0.1555839
c    -2.4962693    2.6345192    0.2419999  0.00    0.2048556    0.1068198   -0.3142386
c    -4.9565486    2.3924193   -0.2155699  0.00    0.0073394    0.0114706    0.0016197
h    -5.2099685    3.2528291    0.4143399  0.00    0.0023812   -0.0126354   -0.0101616
h    -5.8205883    1.7190695   -0.2147749  0.00    0.0080712    0.0157326    0.0006811
h    -4.8083986    2.7651692   -1.2348596  0.00   -0.0070334    0.0003162    0.0188416
n    -3.4097890    0.4519539   -0.4549189  0.00    0.0795136   -0.0562244   -0.0170515
h    -3.8575589    1.4177196    1.3669296  0.00    0.1153775    0.0897206    0.0395839
h    -2.5963493    0.6418898   -1.0496997  0.00   -0.0234609    0.0186557    0.0455331
h    -3.0749291   -0.2623099    0.1989099  0.00   -0.0099141    0.0309664   -0.0224323
o    -1.9513094    3.0041591   -0.7839488  0.00   -0.1324897   -0.0959448    0.2466501
o    -2.1005994    3.0267291    1.4825496  0.00   -0.0702053   -0.0527743    0.0087360
h    -2.6645092    2.5096893    2.1108994  0.00   -0.1239825   -0.1127928   -0.1533454
    13
 Energy =       0.1221124041
c    -3.6904376    1.6879635    0.3034394  0.00   -0.0444136    0.0514303    0.1375050
c    -2.5263434    2.6901934    0.2337802  0.00    0.1805111    0.0917069   -0.2792505
c    -4.9919173    2.3500457   -0.1384983  0.00    0.0056434    0.0132998    0.0034994
h    -5.2150307    3.2141498    0.5020412  0.00    0.0021242   -0.0110106   -0.0083862
h    -5.8378635    1.6511899   -0.0560218  0.00    0.0039624    0.0120347    0.0010110
h    -4.9353223    2.7087085   -1.1783383  0.00   -0.0060457    0.0015119    0.0125416
n    -3.3758446    0.4947298   -0.5414224  0.00    0.0704202   -0.0507873   -0.0191986
h    -3.7720762    1.3531598    1.3494324  0.00    0.1018215    0.0783516    0.0387908
h    -2.5613425    0.7232365   -1.1279178  0.00   -0.0197686    0.0172689    0.0393772
h    -3.0530503   -0.2750997    0.0613170  0.00   -0.0074004    0.0237759   -0.0172650
o    -1.9522695    3.0457725   -0.8049638  0.00   -0.1176949   -0.0854840    0.2178030
o    -2.1782377    3.1518070    1.4695985  0.00   -0.0379338   -0.0044192   -0.0179673
h    -2.5704713    2.4530401    2.1067622  0.00   -0.1312255   -0.1376789   -0.1084603
    13
 Energy =       0.0860703665
c    -3.6907630    1.6906537    0.3081024  0.00   -0.0202706    0.0296510    0.0765573
c    -2.4971371    2.6441539    0.2731767  0.00    0.0923915    0.0466725   -0.1436270
c    -4.9647303    2.3909004   -0.1605752  0.00    0.0025388    0.0075544    0.0028414
h    -5.1959124    3.2534185    0.4898365  0.00    0.0010789   -0.0057041   -0.0042076
h    -5.8233137    1.6931599   -0.1305191  0.00    0.0010770    0.0053216    0.0002861
h    -4.8521545    2.7567250   -1.2006872  0.00   -0.0028559    0.0012545    0.0051874
n    -3.4506900    0.4911111   -0.5329335  0.00    0.0321363   -0.0218310   -0.0121466
h    -3.8019607    1.3792684    1.3644757  0.00    0.0640033    0.0502269    0.0263893
h    -2.6209987    0.6482686   -1.1425600  0.00   -0.0065415    0.0100759    0.0187415
h    -3.2118034   -0.3240796    0.0711111  0.00   -0.0027079    0.0059748   -0.0055384
o    -1.9029448    2.9979197   -0.8419131  0.00   -0.0615975   -0.0459022    0.1110925
o    -2.0800731    3.1095675    1.4982857  0.00   -0.0084709    0.0114924   -0.0186244
h    -2.5677252    2.5178296    2.1834084  0.00   -0.0907815   -0.0947866   -0.0569514
    13
 Energy =       0.0781452006
c    -3.6831606    1.6819798    0.2956065  0.00   -0.0133394    0.0254585    0.0598541
c    -2.4631789    2.6018862    0.2663607  0.00    0.0691921    0.0351480   -0.1064004
c    -4.9540983    2.4393420   -0.0965022  0.00   -0.0000450    0.0056871    0.0006844
h    -5.1329181    3.2862035    0.5961589  0.00    0.0004529   -0.0025353   -0.0016359
h    -5.8322052    1.7640872   -0.0609186  0.00    0.0002913    0.0037890    0.0000002
h    -4.8681977    2.8375415   -1.1295263  0.00   -0.0024002    0.0012104    0.0029233
n    -3.5229978    0.5114867   -0.6041567  0.00    0.0208521   -0.0134811   -0.0160934
h    -3.7622000    1.3330037    1.3473734  0.00    0.0502521    0.0393403    0.0225682
h    -2.6727857    0.6275782   -1.1998702  0.00   -0.0032030    0.0080989    0.0131895
h    -3.3705565   -0.3615589   -0.0417876  0.00   -0.0003290   -0.0046572    0.0003570
o    -1.8588939    2.9480759   -0.8690965  0.00   -0.0456787   -0.0342987    0.0825948
o    -2.0173735    3.0640710    1.4863943  0.00   -0.0050627    0.0102003   -0.0146007
h    -2.5216404    2.5152001    2.1891727  0.00   -0.0709824   -0.0739604   -0.0434411
    13
 Energy =       0.0736066915
c    -3.6921695    1.6912056    0.3078836  0.00   -0.0086243    0.0225162    0.0507794
c    -2.4837846    2.6258057    0.2918098  0.00    0.0568875    0.0287556   -0.0864782
c    -4.9519888    2.4110868   -0.1894560  0.00   -0.0027951    0.0033905    0.0004281
h    -5.1700844    3.3041812    0.4374058  0.00   -0.0006606    0.0010185    0.0007752
h    -5.8247456    1.7284613   -0.1474518  0.00    0.0001716    0.0029857   -0.0000422
h    -4.8218400    2.7388085   -1.2463234  0.00   -0.0019950    0.0019699   -0.0011181
n    -3.4779156    0.4795173   -0.5258348  0.00    0.0164988   -0.0121119   -0.0174901
h    -3.8302911    1.3977180    1.3740114  0.00    0.0413556    0.0325268    0.0220861
h    -2.6032744    0.5745838   -1.0930211  0.00   -0.0012199    0.0058050    0.0097731
h    -3.3369019   -0.3617122    0.0880511  0.00    0.0003575   -0.0064347    0.0018905
o    -1.8726647    2.9760998   -0.8511971  0.00   -0.0372805   -0.0279103    0.0672213
o    -2.0448852    3.1057992    1.5098419  0.00   -0.0039568    0.0087317   -0.0119665
h    -2.5496610    2.5773419    2.2234889  0.00   -0.0587388   -0.0612428   -0.0358586
    13
 Energy =       0.0679132432
c    -3.6999717    1.7034989    0.3084441  0.00   -0.0035092    0.0142340    0.0325318
c    -2.4899708    2.6364665    0.3092932  0.00    0.0342667    0.0183781   -0.0519081
c    -4.9363896    2.4042708   -0.2672314  0.00   -0.0032982    0.0016952    0.0006254
h    -5.1787753    3.3230654    0.3136476  0.00   -0.0009888    0.0018985    0.0013483
h    -5.8109502    1.7220866   -0.2346312  0.00   -0.0000433    0.0018547    0.0000090
h    -4.7589231    2.6865488   -1.3318994  0.00   -0.0010795    0.0016933   -0.0026857
n    -3.4660825    0.4644952   -0.4731392  0.00   -0.0062978    0.0039646   -0.0154753
h    -3.8919277    1.4531457    1.3797001  0.00    0.0271281    0.0219915    0.0172263
h    -2.5117544    0.4782595   -0.9342680  0.00    0.0167949    0.0028403   -0.0027866
h    -3.4656397   -0.3730403    0.1755089  0.00    0.0001980   -0.0166103    0.0121877
o    -1.8577211    2.9746782   -0.8477794  0.00   -0.0222512   -0.0173576    0.0404203
o    -2.0416593    3.1299928    1.5229499  0.00   -0.0016158    0.0065303   -0.0082772
h    -2.5504414    2.6454286    2.2586133  0.00   -0.0393039   -0.0411126   -0.0232161
    13
 Energy =       0.0610228126
c    -3.7189761    1.6924935    0.3354039  0.00    0.0034015    0.0028777    0.0056002
c    -2.4836036    2.5983698    0.3196551  0.00    0.0018204   -0.0000614   -0.0035869
c    -4.9189881    2.3913355   -0.3060965  0.00   -0.0011349   -0.0000416    0.0009185
h    -5.1569804    3.3415698    0.2225594  0.00   -0.0007247    0.0015631    0.0008826
h    -5.8078298    1.7254944   -0.2667943  0.00   -0.0001703   -0.0001484    0.0002660
h    -4.7018129    2.6163504   -1.3767019  0.00    0.0003493    0.0006908   -0.0022907
n    -3.5197562    0.4148283   -0.3787455  0.00   -0.0294030    0.0117372   -0.0066648
h    -3.9625338    1.4950173    1.4092876  0.00    0.0084809    0.0075462    0.0090989
h    -2.6633629    0.4669314   -1.0190425  0.00    0.0289701    0.0053813   -0.0179839
h    -3.3475204   -0.3649001    0.3257709  0.00   -0.0000347   -0.0215720    0.0209846
o    -1.8727027    2.9176253   -0.8865852  0.00   -0.0016304   -0.0010060   -0.0000677
o    -1.9891079    3.1495995    1.5000376  0.00    0.0100364    0.0105693   -0.0110289
h    -2.5170317    2.8041817    2.3004598  0.00   -0.0199607   -0.0175363    0.0038721
    13
 Energy =       0.0613784192
c    -3.7067674    1.6992279    0.3462523  0.00    0.0026061    0.0014134    0.0053690
c    -2.4790256    2.6156896    0.2312336  0.00    0.0007407   -0.0017701   -0.0028317
c    -4.9541062    2.3768581   -0.2296871  0.00   -0.0021260    0.0005892    0.0014471
h    -5.1670376    3.3334176    0.2986587  0.00   -0.0007468    0.0017123    0.0012338
h    -5.8345245    1.7037458   -0.1239023  0.00   -0.0021289   -0.0011956    0.0003971
h    -4.8062420    2.5867110   -1.3175414  0.00    0.0005474    0.0010979   -0.0047524
n    -3.5434443    0.4115924   -0.3609398  0.00   -0.0288422    0.0107156   -0.0069537
h    -3.8801389    1.5185548    1.4398008  0.00    0.0074307    0.0067559    0.0113305
h    -2.6923388    0.4391223   -1.0088553  0.00    0.0282211    0.0050081   -0.0177077
h    -3.3826330   -0.3677755    0.3456803  0.00    0.0000719   -0.0209295    0.0200978
o    -1.9654202    2.9352770   -1.0242542  0.00    0.0010496    0.0006488   -0.0068862
o    -1.8902498    3.1687173    1.3711856  0.00    0.0137611    0.0136546   -0.0084197
h    -2.3582786    2.8277586    2.2115770  0.00   -0.0205847   -0.0177006    0.0076762
    13
 Energy =       0.0601382993
c    -3.7083499    1.6844671    0.3431282  0.00    0.0015591    0.0009254    0.0031103
c    -2.4884189    2.6176263    0.2926834  0.00   -0.0010097   -0.0035560   -0.0040348
c    -4.9368525    2.3500191   -0.2839741  0.00   -0.0019832    0.0002669    0.0010096
h    -5.1812755    3.3030927    0.2366037  0.00   -0.0006281    0.0015018    0.0011945
h    -5.8141177    1.6680482   -0.2159061  0.00   -0.0021151   -0.0010612    0.0002587
h    -4.7464256    2.5627740   -1.3637742  0.00    0.0004452    0.0007604   -0.0040435
n    -3.4975441    0.4040931   -0.3626004  0.00   -0.0205050    0.0080338   -0.0061821
h    -3.9309679    1.4889426    1.4234548  0.00    0.0045754    0.0043541    0.0086370
h    -2.6690335    0.4659474   -1.0274822  0.00    0.0199790    0.0032018   -0.0123221
h    -3.2813759   -0.3606928    0.3385970  0.00    0.0001892   -0.0159968    0.0145544
o    -1.8922912    2.9112628   -0.9342320  0.00    0.0019739    0.0008756   -0.0096142
o    -1.9965222    3.2266014    1.4547879  0.00    0.0122026    0.0126185   -0.0016501
h    -2.5170317    2.9267149    2.2779223  0.00   -0.0146834   -0.0119243    0.0090824
    13
 Energy =       0.0599660601
c    -3.7352364    1.6994372    0.3422047  0.00    0.0010312   -0.0002362    0.0027110
c    -2.4675514    2.5714162    0.3176291  0.00   -0.0015989   -0.0048483   -0.0081930
c    -4.9171485    2.4212003   -0.3174189  0.00   -0.0026739    0.0017066    0.0006780
h    -5.1302920    3.3863814    0.1959377  0.00   -0.0009586    0.0022189    0.0013323
h    -5.8277967    1.7798628   -0.2693297  0.00   -0.0035721   -0.0019542    0.0004409
h    -4.6908397    2.6237767   -1.3931398  0.00    0.0006425    0.0011539   -0.0049845
n    -3.5671644    0.4067572   -0.3537415  0.00   -0.0219796    0.0073578   -0.0064556
h    -3.9962364    1.5197292    1.4175903  0.00    0.0038821    0.0034873    0.0095881
h    -2.7460542    0.4467085   -1.0315670  0.00    0.0218597    0.0032712   -0.0137072
h    -3.3559553   -0.3560763    0.3525292  0.00    0.0002303   -0.0171897    0.0156639
o    -1.8706337    2.8840917   -0.9047692  0.00    0.0020607    0.0009509   -0.0106219
o    -1.9232037    3.0976499    1.5013270  0.00    0.0162842    0.0163495    0.0023899
h    -2.4320943    2.7679618    2.3219564  0.00   -0.0152077   -0.0122678    0.0111581
    13
 Energy =       0.0587911854
c    -3.7706733    1.7159800    0.3439906  0.00    0.0006688   -0.0025425    0.0013356
c    -2.4546474    2.5165119    0.3747694  0.00   -0.0009705   -0.0047062   -0.0087630
c    -4.8799578    2.4906220   -0.3849751  0.00   -0.0036742    0.0039693    0.0003822
h    -5.0714761    3.4702267    0.1088465  0.00   -0.0012037    0.0022434    0.0009457
h    -5.8240422    1.8951827   -0.3777315  0.00   -0.0048148   -0.0025519    0.0006185
h    -4.5890952    2.6728916   -1.4495465  0.00    0.0010157    0.0015814   -0.0058732
n    -3.6322933    0.4076200   -0.3256637  0.00   -0.0182205    0.0055435   -0.0053198
h    -4.1020911    1.5611827    1.4042794  0.00    0.0011159    0.0012277    0.0091745
h    -2.8530535    0.4417273   -1.0484518  0.00    0.0184985    0.0027137   -0.0123465
h    -3.3669401   -0.3297788    0.3866392  0.00    0.0005715   -0.0145589    0.0139576
o    -1.8228588    2.8413224   -0.8257435  0.00    0.0023607    0.0012190   -0.0087210
o    -1.8883335    2.9561998    1.5836588  0.00    0.0154167    0.0148677    0.0052758
h    -2.4047443    2.6092087    2.3891366  0.00   -0.0107640   -0.0090063    0.0093335
    13
 Energy =       0.0569135811
c    -3.8119751    1.7332468    0.3482332  0.00    0.0016476   -0.0037295   -0.0004086
c    -2.4585861    2.4573955    0.4627310  0.00   -0.0000326   -0.0035484   -0.0027075
c    -4.8213465    2.5480688   -0.4762527  0.00   -0.0035714    0.0043962    0.0001276
h    -5.0003703    3.5426599   -0.0117439  0.00   -0.0009290    0.0009767    0.0001827
h    -5.7913782    2.0007051   -0.5316713  0.00   -0.0038801   -0.0017543    0.0004648
h    -4.4434882    2.6997936   -1.5170376  0.00    0.0012161    0.0012355   -0.0050415
n    -3.6890095    0.4081918   -0.2800686  0.00   -0.0181741    0.0091750   -0.0051440
h    -4.2367783    1.6106766    1.3770058  0.00   -0.0023806   -0.0011553    0.0056089
h    -3.0118067    0.4600659   -1.0955792  0.00    0.0132955    0.0029999   -0.0126797
h    -3.2771938   -0.2711542    0.4228771  0.00    0.0053842   -0.0140512    0.0165632
o    -1.7646876    2.7908959   -0.6977328  0.00    0.0023959    0.0012645   -0.0039274
o    -1.9013226    2.8020891    1.7000210  0.00    0.0068645    0.0065664    0.0037807
h    -2.4522640    2.4662621    2.4784264  0.00   -0.0018362   -0.0023755    0.0031809
    13
 Energy =       0.0558998137
c    -3.8409896    1.7520053    0.3463309  0.00    0.0000292   -0.0001585    0.0001323
c    -2.4765207    2.4211452    0.5488467  0.00   -0.0018972   -0.0015045   -0.0012889
c    -4.7508235    2.5844167   -0.5612099  0.00   -0.0000441   -0.0000580    0.0005383
h    -4.9297598    3.5886277   -0.1208426  0.00    0.0000969   -0.0003567    0.0000555
h    -5.7283772    2.0708588   -0.6904244  0.00   -0.0004632    0.0000134   -0.0001385
h    -4.2884414    2.7123198   -1.5659675  0.00    0.0001990   -0.0000678   -0.0007631
n    -3.7207515    0.4109842   -0.2407713  0.00    0.0025787   -0.0002352   -0.0007516
h    -4.3419463    1.6650747    1.3371262  0.00   -0.0001941   -0.0004182   -0.0002138
h    -3.1411448    0.4608793   -1.1135965  0.00   -0.0011494    0.0008257    0.0020027
h    -3.1993778   -0.2083624    0.4232342  0.00   -0.0010919    0.0013291   -0.0007088
o    -1.7214046    2.7765863   -0.5632191  0.00    0.0004576    0.0000803   -0.0007919
o    -1.9520805    2.6613125    1.8205981  0.00    0.0032600    0.0009492    0.0000228
h    -2.5685890    2.3530488    2.5591036  0.00   -0.0017814   -0.0003986    0.0019050
    13
 Energy =       0.0558858541
c    -3.8386059    1.7473491    0.3439165  0.00    0.0001538    0.0002321    0.0003186
c    -2.4768762    2.4206388    0.5519036  0.00   -0.0014615   -0.0009503   -0.0005933
c    -4.7620619    2.5971609   -0.5340834  0.00   -0.0003086   -0.0000637    0.0002466
h    -4.9459475    3.5882060   -0.0653092  0.00   -0.0000622    0.0002612    0.0002093
h    -5.7360821    2.0789009   -0.6696893  0.00   -0.0002604   -0.0000394   -0.0000488
h    -4.3083129    2.7562923   -1.5384286  0.00    0.0002716    0.0000535   -0.0008500
n    -3.7155964    0.4211151   -0.2774506  0.00    0.0006623   -0.0004022   -0.0004770
h    -4.3299696    1.6331575    1.3371946  0.00   -0.0002661   -0.0002431    0.0002783
h    -3.1507297    0.4965376   -1.1593696  0.00   -0.0001764    0.0004270    0.0003134
h    -3.1770935   -0.2102025    0.3627466  0.00   -0.0001291    0.0001139    0.0000833
o    -1.7379664    2.8191411   -0.5570597  0.00    0.0007533    0.0003209   -0.0015944
o    -1.9395696    2.6220967    1.8249447  0.00    0.0023139    0.0007938    0.0001398
h    -2.5413950    2.2785033    2.5598928  0.00   -0.0014907   -0.0005038    0.0019741
    13
 Energy =       0.0558692664
c    -3.8483343    1.7651398    0.3453919  0.00   -0.0003816    0.0005635   -0.0001561
c    -2.4653015    2.3965361    0.5497169  0.00   -0.0012195   -0.0005371   -0.0020971
c    -4.7440498    2.6351353   -0.5421595  0.00   -0.0000809    0.0001681    0.0001443
h    -4.8977979    3.6362664   -0.0831696  0.00   -0.0001756    0.0006685    0.0002750
h    -5.7338416    2.1458411   -0.6743201  0.00   -0.0006452   -0.0002476   -0.0000183
h    -4.2839424    2.7710866   -1.5469101  0.00    0.0003566    0.0001122   -0.0007196
n    -3.7671097    0.4283647   -0.2615327  0.00    0.0000035   -0.0011106   -0.0002411
h    -4.3446874    1.6783800    1.3392491  0.00   -0.0006606   -0.0002699    0.0003135
h    -3.2001225    0.4762489   -1.1444988  0.00    0.0002889    0.0002418   -0.0003303
h    -3.2485846   -0.2132877    0.3852972  0.00    0.0001705   -0.0003403    0.0001937
o    -1.7336250    2.8069828   -0.5592670  0.00    0.0003947    0.0001397   -0.0011519
o    -1.8989935    2.5400492    1.8190932  0.00    0.0026971    0.0008962    0.0022098
h    -2.4938164    2.1821535    2.5523179  0.00   -0.0007479   -0.0002845    0.0015779
    13
 Energy =       0.0558406716
c    -3.8542965    1.7829789    0.3485583  0.00    0.0003683    0.0012449    0.0011763
c    -2.4801317    2.4331109    0.5522605  0.00   -0.0008586   -0.0001838   -0.0009389
c    -4.7440663    2.6091061   -0.5877694  0.00   -0.0008318    0.0000639   -0.0005642
h    -4.9127293    3.6272470   -0.1717038  0.00   -0.0002923    0.0013717    0.0005600
h    -5.7274847    2.1063479   -0.7149048  0.00   -0.0004443   -0.0001774   -0.0001212
h    -4.2705069    2.7087072   -1.5908162  0.00    0.0003064    0.0001489   -0.0011209
n    -3.7522175    0.4226953   -0.2027256  0.00   -0.0009146   -0.0016997   -0.0013768
h    -4.3652222    1.7340090    1.3382518  0.00   -0.0005944   -0.0000453    0.0009424
h    -3.1727565    0.4397292   -1.0791410  0.00    0.0006380   -0.0000091   -0.0010215
h    -3.2381257   -0.1883198    0.4778497  0.00    0.0008823   -0.0012261    0.0012034
o    -1.7662672    2.8830800   -0.5534426  0.00    0.0007211    0.0003325   -0.0016136
o    -1.8992313    2.5431508    1.8175581  0.00    0.0020647    0.0008243    0.0008904
h    -2.4771709    2.1470541    2.5452333  0.00   -0.0010449   -0.0006448    0.0019847
    13
 Energy =       0.0558010440
c    -3.8628283    1.8051956    0.3504170  0.00    0.0001413   -0.0000975   -0.0001452
c    -2.4892949    2.4546159    0.5552766  0.00   -0.0013388   -0.0001723   -0.0009088
c    -4.7384377    2.6042762   -0.6196345  0.00   -0.0000974   -0.0000164    0.0000863
h    -4.9065216    3.6342933   -0.2376387  0.00   -0.0000135    0.0000087    0.0000257
h    -5.7221173    2.1020482   -0.7412816  0.00    0.0001614    0.0000454    0.0000468
h    -4.2540295    2.6715538   -1.6190479  0.00    0.0000382    0.0000487   -0.0001005
n    -3.7601897    0.4297595   -0.1567119  0.00   -0.0000996    0.0000377    0.0001988
h    -4.3844254    1.7901787    1.3349013  0.00   -0.0001922    0.0000211    0.0001025
h    -3.1730878    0.4178495   -1.0274013  0.00    0.0001433    0.0000136   -0.0002588
h    -3.2552472   -0.1611681    0.5463811  0.00    0.0000351   -0.0000505    0.0000146
o    -1.8027319    2.9683896   -0.5403360  0.00    0.0006265    0.0005343   -0.0022868
o    -1.8775332    2.4902012    1.8101960  0.00    0.0011904    0.0003235    0.0015047
h    -2.4337623    2.0417033    2.5240882  0.00   -0.0005947   -0.0006964    0.0017207
    13
 Energy =       0.0557914196
c    -3.8680899    1.8187428    0.3522846  0.00    0.0002051    0.0005071    0.0000580
c    -2.4883194    2.4564607    0.5534574  0.00   -0.0003779    0.0000364   -0.0003751
c    -4.7256676    2.6016605   -0.6474998  0.00   -0.0003107   -0.0000354    0.0000576
h    -4.8829390    3.6448578   -0.2963094  0.00   -0.0001306    0.0005712    0.0001513
h    -5.7151562    2.1090337   -0.7626586  0.00   -0.0000254   -0.0000504    0.0000610
h    -4.2324511    2.6341174   -1.6448709  0.00    0.0002678    0.0000660   -0.0005978
n    -3.7778389    0.4280453   -0.1159302  0.00   -0.0005685   -0.0006226    0.0001079
h    -4.3981123    1.8376466    1.3327689  0.00   -0.0003602    0.0000230    0.0005567
h    -3.1826907    0.3847960   -0.9805775  0.00    0.0005328   -0.0000793   -0.0008211
h    -3.2872632   -0.1500040    0.6082538  0.00    0.0003014   -0.0004582    0.0004329
o    -1.8010430    2.9681805   -0.5414935  0.00    0.0001989    0.0001417   -0.0006849
o    -1.8712261    2.4810536    1.8046815  0.00    0.0004389    0.0001183    0.0005256
h    -2.4294092    2.0343058    2.5171021  0.00   -0.0001715   -0.0002178    0.0005279
    13
 Energy =       0.0557882936
c    -3.8690324    1.8217736    0.3523784  0.00   -0.0000142   -0.0000457    0.0000093
c    -2.4899340    2.4607722    0.5541278  0.00   -0.0000199   -0.0000202    0.0000391
c    -4.7255296    2.5992043   -0.6518746  0.00    0.0000192    0.0000022   -0.0000109
h    -4.8830152    3.6435218   -0.3060585  0.00    0.0000108   -0.0000445   -0.0000080
h    -5.7148397    2.1060901   -0.7661196  0.00    0.0000022    0.0000041   -0.0000069
h    -4.2313133    2.6269383   -1.6481373  0.00   -0.0000249   -0.0000030    0.0000479
n    -3.7776887    0.4297135   -0.1093611  0.00    0.0000450    0.0000517   -0.0000222
h    -4.4000866    1.8448794    1.3314995  0.00    0.0000307   -0.0000025   -0.0000469
h    -3.1809963    0.3828245   -0.9719853  0.00   -0.0000466    0.0000093    0.0000670
h    -3.2886470   -0.1446928    0.6181242  0.00   -0.0000192    0.0000317   -0.0000307
o    -1.8079980    2.9852837   -0.5376406  0.00    0.0000278    0.0000156   -0.0000460
o    -1.8680013    2.4736419    1.8024617  0.00   -0.0000013    0.0000023    0.0000013
h    -2.4231246    2.0189463    2.5117938  0.00   -0.0000095   -0.0000011    0.0000071
    13
 Energy =       0.0557882454
c    -3.8693255    1.8225154    0.3524592  0.00    0.0000001    0.0000001    0.0000003
c    -2.4903519    2.4617474    0.5543260  0.00   -0.0000046   -0.0000009   -0.0000009
c    -4.7255723    2.5990521   -0.6527595  0.00   -0.0000004   -0.0000000   -0.0000002
h    -4.8831521    3.6437368   -0.3079549  0.00   -0.0000001    0.0000005    0.0000002
h    -5.7148531    2.1058250   -0.7667752  0.00   -0.0000000   -0.0000000   -0.0000000
h    -4.2310730    2.6258783   -1.6489596  0.00    0.0000001    0.0000000   -0.0000004
n    -3.7776896    0.4300156   -0.1080606  0.00   -0.0000004   -0.0000004   -0.0000004
h    -4.4006899    1.8464702    1.3314598  0.00   -0.0000004    0.0000002    0.0000003
h    -3.1806262    0.3824103   -0.9704424  0.00    0.0000004   -0.0000001   -0.0000005
h    -3.2889572   -0.1438031    0.6201335  0.00    0.0000004   -0.0000004    0.0000006
o    -1.8099204    2.9896993   -0.5366920  0.00    0.0000030    0.0000027   -0.0000084
o    -1.8669371    2.4712169    1.8019453  0.00    0.0000041    0.0000010    0.0000042
h    -2.4210584    2.0141327    2.5105286  0.00   -0.0000022   -0.0000026    0.0000052
    13
 Energy =       0.0557882453
c    -3.8693238    1.8225101    0.3524592  0.00    0.0000000    0.0000000    0.0000000
c    -2.4903493    2.4617405    0.5543260  0.00   -0.0000000    0.0000000   -0.0000000
c    -4.7255710    2.5990527   -0.6527537  0.00   -0.0000000   -0.0000000   -0.0000000
h    -4.8831499    3.6437350   -0.3079429  0.00    0.0000000    0.0000000   -0.0000000
h    -5.7148521    2.1058268   -0.7667714  0.00    0.0000000   -0.0000000   -0.0000000
h    -4.2310725    2.6258847   -1.6489535  0.00    0.0000000   -0.0000000   -0.0000000
n    -3.7776903    0.4300133   -0.1080683  0.00   -0.0000000   -0.0000000    0.0000000
h    -4.4006864    1.8464593    1.3314604  0.00   -0.0000000    0.0000000    0.0000000
h    -3.1806281    0.3824122   -0.9704508  0.00    0.0000000   -0.0000000    0.0000000
h    -3.2889581   -0.1438099    0.6201216  0.00   -0.0000000   -0.0000000    0.0000000
o    -1.8099118    2.9896763   -0.5366894  0.00    0.0000000    0.0000000   -0.0000000
o    -1.8669427    2.4712316    1.8019436  0.00    0.0000000    0.0000000    0.0000000
h    -2.4210705    2.0141643    2.5105276  0.00   -0.0000000   -0.0000000    0.0000000
