    27
 Energy =       0.3676003177
c    -1.4235396    2.6054793   -0.0667700  0.00   -0.0463150    0.0383747    0.0026517
c    -1.3072796    1.2134697   -0.1072300  0.00   -0.0852377   -0.0325917    0.0019395
c    -0.0178900    0.6711998   -0.1697000  0.00   -0.0885968   -0.1881964   -0.0011070
c    -0.2940599    3.4190890   -0.0891300  0.00   -0.0233761    0.0691333    0.0027283
c     0.9872197    2.8590292   -0.1560400  0.00    0.0392132    0.0661309    0.0069783
c     1.1340797    1.4562096   -0.1970299  0.00    0.0577899    0.0539868    0.0034692
n     0.3879399   -0.6395298   -0.2140799  0.00    0.1420922    0.1094348   -0.0034821
c     2.2666594    0.5727398   -0.2659299  0.00    0.1518305   -0.0944482   -0.0289497
c     1.7555995   -0.7123598   -0.2706899  0.00   -0.1010744   -0.0976072    0.0040064
h    -0.2400399   -1.4313496   -0.2047299  0.00    0.0367048    0.0477234   -0.0004737
c     3.7030089    1.0223397   -0.3320099  0.00    0.0455983    0.0577624   -0.0067546
c     4.0547688    2.2615794    0.5049969  0.00   -0.0740544   -0.0644240   -0.1101738
h     3.9407589    1.2278196   -1.3843196  0.00    0.0210215    0.0068615    0.0234635
h     4.3455988    0.1801669   -0.0411573  0.00   -0.0109536    0.0087417   -0.0063002
c     5.4270085    2.7951492    0.0535521  0.00    0.2344160    0.2909505    0.1066950
n     4.1412688    1.9836494    1.9826994  0.00    0.0081329    0.0193605    0.0928830
h     3.3277791    3.0673291    0.3491609  0.00   -0.4877279    0.1245767   -0.1499402
h     3.4971990    2.6310692    2.4486593  0.00    0.0157860   -0.0245788   -0.0263215
h     3.7254889    1.0605697    2.1497794  0.00    0.0090884    0.0310503   -0.0194028
h    -2.4108593    3.0588691   -0.0157800  0.00   -0.0007677    0.0002035    0.0000804
h    -2.1896094    0.5822398   -0.0890100  0.00   -0.0035956    0.0037562    0.0001041
h    -0.4052699    4.5000487   -0.0535400  0.00    0.0006345    0.0001248    0.0003893
h     1.8590495    3.5066790   -0.1715100  0.00    0.4765940   -0.1415327    0.1698462
h     2.2327294   -1.6813195   -0.3062999  0.00   -0.0407061   -0.0110310    0.0024795
o     5.9651583    3.8090989    0.4660999  0.00   -0.1331507   -0.2417468   -0.1004299
o     5.9866783    1.9824394   -0.8828527  0.00   -0.1048320   -0.0355284    0.0315441
h     6.8302381    1.6604295   -0.4713789  0.00   -0.0385142    0.0035130    0.0040769
    27
 Energy =       0.3558759766
c    -1.4244724    2.6231848   -0.0167062  0.00   -0.0442899    0.0367333    0.0025229
c    -1.3127433    1.2323046   -0.0709273  0.00   -0.0815086   -0.0312475    0.0018483
c    -0.0273086    0.6876789   -0.1401989  0.00   -0.0849856   -0.1790795   -0.0009245
c    -0.2927039    3.4328730   -0.0319298  0.00   -0.0223771    0.0661459    0.0025691
c     0.9847899    2.8688816   -0.1078875  0.00    0.0375379    0.0633208    0.0066421
c     1.1222856    1.4700199   -0.1682583  0.00    0.0547357    0.0518104    0.0031924
n     0.3737231   -0.6256765   -0.2220951  0.00    0.1358700    0.1040588   -0.0033665
c     2.2498231    0.5938334   -0.2721232  0.00    0.1440738   -0.0897452   -0.0270534
c     1.7439121   -0.6911424   -0.3002965  0.00   -0.0968818   -0.0926652    0.0039295
h    -0.2541401   -1.4196244   -0.2204797  0.00    0.0350711    0.0455721   -0.0004768
c     3.6777728    1.0560092   -0.3932782  0.00    0.0414412    0.0550616   -0.0053918
c     4.0658188    2.2430263    0.5045635  0.00   -0.0706689   -0.0602571   -0.1072473
h     3.8604131    1.3499238   -1.4422781  0.00    0.0202526    0.0078536    0.0172024
h     4.3430209    0.1959469   -0.1999104  0.00   -0.0071148    0.0047217   -0.0053420
c     5.4337652    2.7755874    0.0437766  0.00    0.2243706    0.2784538    0.1022316
n     4.1849591    1.8835391    1.9625792  0.00    0.0114154    0.0162894    0.0914075
h     3.3412960    3.0707289    0.4094659  0.00   -0.4682663    0.1211825   -0.1438604
h     3.5747456    2.5196813    2.4919296  0.00    0.0127336   -0.0206871   -0.0229030
h     3.7570618    0.9569152    2.0879499  0.00    0.0081727    0.0281195   -0.0182892
h    -2.4102235    3.0792943    0.0399591  0.00   -0.0007496    0.0002165    0.0000772
h    -2.1967380    0.6031507   -0.0619797  0.00   -0.0034648    0.0035420    0.0000945
h    -0.3996467    4.5137960    0.0176887  0.00    0.0005935    0.0002315    0.0003704
h     1.8644196    3.5056855   -0.1108230  0.00    0.4562501   -0.1354828    0.1625908
h     2.2282634   -1.6543908   -0.3911346  0.00   -0.0381137   -0.0119479    0.0022433
o     5.9769401    3.7965893    0.4537416  0.00   -0.1272846   -0.2311401   -0.0960695
o     5.9879397    1.9668243   -0.9026472  0.00   -0.1002243   -0.0343404    0.0299844
h     6.8267104    1.6274939   -0.4929405  0.00   -0.0365883    0.0032793    0.0040181
    27
 Energy =       0.3016010399
c    -1.4082489    2.6717221    0.0423229  0.00   -0.0312357    0.0258481    0.0016682
c    -1.3101411    1.2903526   -0.0260938  0.00   -0.0577019   -0.0224025    0.0012246
c    -0.0450774    0.7364915   -0.0983676  0.00   -0.0594434   -0.1247543    0.0007593
c    -0.2724564    3.4639309    0.0316264  0.00   -0.0161345    0.0467807    0.0016403
c     0.9880822    2.8876421   -0.0526969  0.00    0.0273009    0.0452040    0.0047184
c     1.0953543    1.5022078   -0.1224427  0.00    0.0379249    0.0372553    0.0021116
n     0.3187792   -0.5968926   -0.2357637  0.00    0.0961312    0.0712973   -0.0037597
c     2.1988635    0.6428146   -0.2542893  0.00    0.1004089   -0.0622415   -0.0180718
c     1.7065438   -0.6348346   -0.3139292  0.00   -0.0696530   -0.0636088    0.0037528
h    -0.3184234   -1.3959449   -0.2591515  0.00    0.0245886    0.0318946   -0.0007576
c     3.6266088    1.0836040   -0.4450059  0.00    0.0282620    0.0386424   -0.0055258
c     4.0963841    2.2030235    0.5066723  0.00   -0.0493847   -0.0409674   -0.0777054
h     3.7478652    1.4501656   -1.4878379  0.00    0.0149908    0.0072035    0.0080798
h     4.2926191    0.1974808   -0.3524562  0.00   -0.0015239   -0.0007218   -0.0037346
c     5.4543651    2.7109414    0.0129353  0.00    0.1600436    0.1972652    0.0756412
n     4.2452111    1.7492329    1.9289292  0.00    0.0127459    0.0083752    0.0670398
h     3.3916777    3.0641454    0.4755861  0.00   -0.3537864    0.0940691   -0.1090181
h     3.6736374    2.3666335    2.5353211  0.00    0.0058691   -0.0112015   -0.0122489
h     3.8239174    0.8091297    2.0241020  0.00    0.0057316    0.0188283   -0.0122226
h    -2.3890521    3.1378573    0.1020368  0.00   -0.0006034    0.0001648    0.0000536
h    -2.1987283    0.6675645   -0.0319299  0.00   -0.0025349    0.0023598    0.0000154
h    -0.3661242    4.5458593    0.0886100  0.00    0.0003785    0.0002853    0.0002581
h     1.8813416    3.5076427   -0.0575152  0.00    0.3427856   -0.1017107    0.1219354
h     2.2314630   -1.5718289   -0.4666511  0.00   -0.0256183   -0.0106460    0.0011781
o     6.0212677    3.7736138    0.4259057  0.00   -0.0897891   -0.1640837   -0.0690569
o     6.0058773    1.9308386   -0.9710207  0.00   -0.0858083   -0.0188065    0.0105419
h     6.7880771    1.4687408   -0.5331360  0.00   -0.0139438   -0.0043285    0.0114830
    27
 Energy =       0.3016527751
c    -1.4035605    2.7005100    0.0285781  0.00   -0.0309037    0.0256177    0.0016747
c    -1.3192140    1.3195038   -0.0602500  0.00   -0.0572528   -0.0226261    0.0011295
c    -0.0592087    0.7529509   -0.1121650  0.00   -0.0571478   -0.1196245    0.0014378
c    -0.2589999    3.4805092    0.0447738  0.00   -0.0157633    0.0465195    0.0016296
c     0.9965558    2.8910038   -0.0235434  0.00    0.0273494    0.0447470    0.0046639
c     1.0894149    1.5063019   -0.0966263  0.00    0.0379514    0.0374876    0.0021373
n     0.2888444   -0.5771296   -0.3216735  0.00    0.0909096    0.0680113   -0.0042773
c     2.1859985    0.6387184   -0.2129079  0.00    0.1002901   -0.0607714   -0.0177114
c     1.6819277   -0.6327539   -0.3103481  0.00   -0.0641607   -0.0613917    0.0041072
h    -0.3606720   -1.3647208   -0.4179046  0.00    0.0213824    0.0280355   -0.0012135
c     3.6169751    1.0668452   -0.3950365  0.00    0.0276834    0.0380384   -0.0056720
c     4.1089651    2.1945478    0.5400569  0.00   -0.0492524   -0.0404205   -0.0765921
h     3.7339981    1.4188364   -1.4435290  0.00    0.0149380    0.0071536    0.0078403
h     4.2747064    0.1750315   -0.2971224  0.00   -0.0014815   -0.0007952   -0.0037095
c     5.4650485    2.6819961    0.0116956  0.00    0.1575079    0.1944965    0.0752257
n     4.2799938    1.7494618    1.9625313  0.00    0.0127106    0.0083593    0.0664535
h     3.4086119    3.0624890    0.5202252  0.00   -0.3492242    0.0928998   -0.1074904
h     3.7150527    2.3675181    2.5747049  0.00    0.0057555   -0.0110435   -0.0120380
h     3.8656968    0.8073183    2.0698044  0.00    0.0055587    0.0184406   -0.0120244
h    -2.3805459    3.1767647    0.0718190  0.00   -0.0008302    0.0001583    0.0000565
h    -2.2149052    0.7071796   -0.1069968  0.00   -0.0032874    0.0017786   -0.0000430
h    -0.3418862    4.5631604    0.1054299  0.00    0.0003868    0.0003550    0.0002603
h     1.8983913    3.4973311   -0.0255112  0.00    0.3383887   -0.1003390    0.1202945
h     2.2027393   -1.5715839   -0.4669250  0.00   -0.0255217   -0.0106839    0.0011205
o     6.0644926    3.7405509    0.3948294  0.00   -0.0880457   -0.1609432   -0.0679953
o     5.9778026    1.8942035   -0.9910441  0.00   -0.0847295   -0.0188211    0.0091293
h     6.7634605    1.4155904   -0.5771047  0.00   -0.0132116   -0.0046389    0.0116063
    27
 Energy =       0.2950984720
c    -1.4049672    2.6829445    0.0482603  0.00   -0.0299090    0.0248216    0.0016265
c    -1.3114706    1.3020145   -0.0205471  0.00   -0.0555457   -0.0222957    0.0010113
c    -0.0491437    0.7449041   -0.0916165  0.00   -0.0538860   -0.1124561    0.0014276
c    -0.2666746    3.4713228    0.0372885  0.00   -0.0150543    0.0452248    0.0015842
c     0.9912577    2.8913048   -0.0471508  0.00    0.0267702    0.0433293    0.0045207
c     1.0929109    1.5070915   -0.1150367  0.00    0.0370570    0.0368815    0.0020923
n     0.3039438   -0.5956045   -0.2338609  0.00    0.0840165    0.0637720   -0.0038023
c     2.1929722    0.6480842   -0.2475953  0.00    0.0979671   -0.0581652   -0.0169603
c     1.6995177   -0.6289419   -0.3095020  0.00   -0.0577167   -0.0579682    0.0037156
h    -0.3398730   -1.3972034   -0.2591515  0.00    0.0179707    0.0237897   -0.0012111
c     3.6209068    1.0846018   -0.4467903  0.00    0.0267286    0.0367483   -0.0056776
c     4.1030547    2.1986552    0.5061473  0.00   -0.0479561   -0.0389598   -0.0739677
h     3.7362984    1.4541307   -1.4897415  0.00    0.0146845    0.0070163    0.0074212
h     4.2844420    0.1955691   -0.3620295  0.00   -0.0013711   -0.0008716   -0.0035876
c     5.4606421    2.7008147    0.0041899  0.00    0.1519192    0.1876014    0.0729244
n     4.2558505    1.7380909    1.9249776  0.00    0.0123654    0.0081383    0.0644811
h     3.4027778    3.0644252    0.4815133  0.00   -0.3374350    0.0897317   -0.1039485
h     3.6865006    2.3525560    2.5373031  0.00    0.0055436   -0.0106690   -0.0115988
h     3.8372294    0.7958171    2.0190293  0.00    0.0052716    0.0176649   -0.0116118
h    -2.3847760    3.1519558    0.1072150  0.00   -0.0009936    0.0001367    0.0000594
h    -2.2030541    0.6808217   -0.0282524  0.00   -0.0038657    0.0012270   -0.0000561
h    -0.3568061    4.5537103    0.0930027  0.00    0.0003956    0.0003886    0.0002545
h     1.8870426    3.5077582   -0.0554646  0.00    0.3270729   -0.0968596    0.1163297
h     2.2274636   -1.5633270   -0.4683381  0.00   -0.0247623   -0.0104377    0.0010198
o     6.0357303    3.7672541    0.4158302  0.00   -0.0847577   -0.1547116   -0.0653821
o     6.0069349    1.9226008   -0.9873067  0.00   -0.0825711   -0.0181341    0.0074642
h     6.7709730    1.4307835   -0.5466131  0.00   -0.0119386   -0.0049435    0.0118716
    27
 Energy =       0.2811188266
c    -1.4007535    2.6812456    0.0820947  0.00   -0.0262440    0.0217085    0.0013997
c    -1.3026706    1.3025509    0.0334589  0.00   -0.0487795   -0.0198512    0.0007289
c    -0.0437497    0.7504067   -0.0569836  0.00   -0.0461834   -0.0960660    0.0005459
c    -0.2671591    3.4719274    0.0406574  0.00   -0.0129601    0.0397994    0.0014098
c     0.9879745    2.8961086   -0.0617332  0.00    0.0237971    0.0380090    0.0040292
c     1.0900575    1.5149913   -0.1200044  0.00    0.0326756    0.0328498    0.0019268
n     0.3086538   -0.5998748   -0.1408589  0.00    0.0702502    0.0544404   -0.0020091
c     2.1866393    0.6651917   -0.2700778  0.00    0.0865355   -0.0504168   -0.0145307
c     1.7042991   -0.6140741   -0.2983619  0.00   -0.0471302   -0.0495594    0.0023229
h    -0.3295468   -1.4107654   -0.1003984  0.00    0.0134919    0.0180150   -0.0007060
c     3.6117743    1.1016088   -0.5014643  0.00    0.0238038    0.0323508   -0.0052621
c     4.1070832    2.1941333    0.4672721  0.00   -0.0420834   -0.0338510   -0.0647580
h     3.7107521    1.4916372   -1.5392166  0.00    0.0132775    0.0063459    0.0062155
h     4.2771880    0.2113542   -0.4433012  0.00   -0.0009113   -0.0010099   -0.0031285
c     5.4612998    2.7035842   -0.0252432  0.00    0.1330722    0.1636581    0.0639990
n     4.2533330    1.7079734    1.8753679  0.00    0.0109431    0.0070748    0.0566706
h     3.4125850    3.0638448    0.4500478  0.00   -0.2976680    0.0791587   -0.0920808
h     3.6858928    2.3144197    2.4995935  0.00    0.0047594   -0.0092526   -0.0100190
h     3.8376389    0.7615612    1.9576526  0.00    0.0045491    0.0153017   -0.0101492
h    -2.3809949    3.1471737    0.1570312  0.00   -0.0010419    0.0000909    0.0000548
h    -2.1907854    0.6763593    0.0638824  0.00   -0.0040112    0.0006191   -0.0000358
h    -0.3597662    4.5545225    0.0883997  0.00    0.0003872    0.0003835    0.0002247
h     1.8811500    3.5172955   -0.0845613  0.00    0.2887308   -0.0852455    0.1028555
h     2.2443182   -1.5401999   -0.4659779  0.00   -0.0216061   -0.0092189    0.0007391
o     6.0236483    3.7827785    0.4128191  0.00   -0.0740830   -0.1349729   -0.0567038
o     6.0344506    1.9388610   -1.0134750  0.00   -0.0786506   -0.0120402    0.0013099
h     6.7363716    1.3775192   -0.5408595  0.00   -0.0049207   -0.0083210    0.0149507
    27
 Energy =       0.2677142093
c    -1.3904462    2.7040312    0.1184734  0.00   -0.0217849    0.0178699    0.0011223
c    -1.2969547    1.3282510    0.0759464  0.00   -0.0404246   -0.0164499    0.0005036
c    -0.0459510    0.7726754   -0.0265665  0.00   -0.0381630   -0.0794555    0.0002158
c    -0.2562207    3.4883977    0.0595924  0.00   -0.0107293    0.0329665    0.0011760
c     0.9915964    2.9076016   -0.0557015  0.00    0.0198995    0.0314770    0.0034139
c     1.0834694    1.5310448   -0.1082089  0.00    0.0269942    0.0272539    0.0016551
n     0.2959455   -0.5844811   -0.1026658  0.00    0.0577153    0.0450353   -0.0012776
c     2.1705675    0.6866235   -0.2714101  0.00    0.0714924   -0.0416252   -0.0117979
c     1.6932325   -0.5906694   -0.2889038  0.00   -0.0387519   -0.0408807    0.0016828
h    -0.3430925   -1.3967340   -0.0441661  0.00    0.0109906    0.0147111   -0.0005119
c     3.5933472    1.1156360   -0.5350644  0.00    0.0199441    0.0268695   -0.0047369
c     4.1233579    2.1835640    0.4442723  0.00   -0.0346210   -0.0277920   -0.0536977
h     3.6675477    1.5249501   -1.5681928  0.00    0.0111767    0.0054166    0.0047156
h     4.2529236    0.2189322   -0.5106133  0.00   -0.0001027   -0.0012182   -0.0025845
c     5.4748370    2.6852589   -0.0589386  0.00    0.1107381    0.1348857    0.0534163
n     4.2758179    1.6677388    1.8376991  0.00    0.0094529    0.0057613    0.0471516
h     3.4415185    3.0655662    0.4473157  0.00   -0.2510123    0.0671780   -0.0778349
h     3.7147091    2.2624298    2.4815511  0.00    0.0036942   -0.0074464   -0.0079539
h     3.8682559    0.7149565    1.9101652  0.00    0.0037541    0.0124668   -0.0082665
h    -2.3679924    3.1737852    0.2032417  0.00   -0.0009316    0.0000756    0.0000450
h    -2.1855929    0.7042345    0.1216121  0.00   -0.0034229    0.0004441   -0.0000335
h    -0.3436765    4.5716117    0.1030005  0.00    0.0003272    0.0003439    0.0001874
h     1.8884033    3.5227375   -0.0933591  0.00    0.2433900   -0.0718546    0.0866780
h     2.2434081   -1.5089338   -0.4687996  0.00   -0.0177511   -0.0076755    0.0005269
o     6.0528845    3.7667721    0.4005340  0.00   -0.0609458   -0.1119214   -0.0464709
o     6.0553119    1.9273881   -1.0517579  0.00   -0.0848415    0.0124991   -0.0175386
h     6.6224769    1.2187660   -0.5532954  0.00    0.0139132   -0.0289351    0.0302144
    27
 Energy =       0.2498119221
c    -1.3859450    2.7168242    0.1899267  0.00   -0.0163845    0.0128525    0.0007835
c    -1.2953694    1.3447553    0.1673006  0.00   -0.0299407   -0.0123052    0.0001209
c    -0.0542463    0.7862332    0.0453896  0.00   -0.0280464   -0.0583102   -0.0004694
c    -0.2537192    3.4949614    0.0918596  0.00   -0.0076181    0.0244516    0.0009153
c     0.9850113    2.9099844   -0.0445853  0.00    0.0150161    0.0233262    0.0027233
c     1.0676302    1.5378041   -0.0753855  0.00    0.0199262    0.0201924    0.0014048
n     0.2759955   -0.5798774   -0.0085512  0.00    0.0414004    0.0329473   -0.0000343
c     2.1427293    0.6986614   -0.2541433  0.00    0.0521212   -0.0302450   -0.0082055
c     1.6731442   -0.5765543   -0.2415986  0.00   -0.0279725   -0.0299568    0.0006267
h    -0.3620411   -1.3939949    0.0857219  0.00    0.0074070    0.0100179   -0.0001426
c     3.5595069    1.1153691   -0.5756666  0.00    0.0155799    0.0199095   -0.0039503
c     4.1404974    2.1634111    0.3971086  0.00   -0.0253720   -0.0200936   -0.0393569
h     3.5876258    1.5362682   -1.6073317  0.00    0.0081926    0.0041993    0.0024958
h     4.2172137    0.2161359   -0.5914615  0.00    0.0008128   -0.0012837   -0.0019946
c     5.4724432    2.6691868   -0.1463426  0.00    0.0811784    0.0990652    0.0402509
n     4.3297266    1.6216499    1.7723971  0.00    0.0077188    0.0038123    0.0350474
h     3.4655392    3.0498671    0.4328409  0.00   -0.1932424    0.0518677   -0.0601777
h     3.7868809    2.2033196    2.4470228  0.00    0.0020961   -0.0049536   -0.0049645
h     3.9393783    0.6592964    1.8470614  0.00    0.0027639    0.0088324   -0.0056065
h    -2.3602587    3.1900752    0.2904671  0.00   -0.0008654    0.0000210    0.0000376
h    -2.1826707    0.7221764    0.2455192  0.00   -0.0029624    0.0000016   -0.0000090
h    -0.3371010    4.5791314    0.1190416  0.00    0.0003341    0.0004133    0.0001377
h     1.8820529    3.5235337   -0.1169522  0.00    0.1875692   -0.0545965    0.0665630
h     2.2352986   -1.4859635   -0.4325945  0.00   -0.0128949   -0.0056507    0.0002152
o     6.0583797    3.7718241    0.3129579  0.00   -0.0447017   -0.0819850   -0.0344117
o     6.0425792    1.9406013   -1.1721935  0.00   -0.0632512    0.0106365   -0.0155600
h     6.6494021    1.2474544   -0.7120485  0.00    0.0111355   -0.0231664    0.0235608
    27
 Energy =       0.2424909230
c    -1.3848787    2.7179086    0.2525053  0.00   -0.0140715    0.0106881    0.0006616
c    -1.2936518    1.3476152    0.2446088  0.00   -0.0254187   -0.0104934    0.0000271
c    -0.0572627    0.7886172    0.1071716  0.00   -0.0237665   -0.0492659   -0.0005617
c    -0.2559163    3.4940360    0.1239699  0.00   -0.0062404    0.0207823    0.0007758
c     0.9782141    2.9081158   -0.0291445  0.00    0.0128644    0.0197773    0.0023466
c     1.0588967    1.5377448   -0.0437973  0.00    0.0168964    0.0170924    0.0012456
n     0.2693867   -0.5809562    0.0647278  0.00    0.0344513    0.0278029    0.0002573
c     2.1280213    0.7011003   -0.2354512  0.00    0.0436397   -0.0253518   -0.0067208
c     1.6638058   -0.5734549   -0.2000859  0.00   -0.0234120   -0.0253107    0.0003406
h    -0.3659887   -1.3958870    0.1827167  0.00    0.0059416    0.0080956   -0.0000306
c     3.5363654    1.1128489   -0.6020455  0.00    0.0134339    0.0168300   -0.0035690
c     4.1520968    2.1529299    0.3581635  0.00   -0.0219021   -0.0167144   -0.0335136
h     3.5274516    1.5387797   -1.6324788  0.00    0.0067716    0.0036655    0.0014631
h     4.1935011    0.2138970   -0.6456545  0.00    0.0011261   -0.0012549   -0.0017346
c     5.4580875    2.6777479   -0.2289026  0.00    0.0682431    0.0839516    0.0349872
n     4.3909736    1.5952399    1.7182905  0.00    0.0073703    0.0025940    0.0303198
h     3.4735436    3.0343527    0.4272133  0.00   -0.1656869    0.0446035   -0.0516148
h     3.8645552    2.1620030    2.4200282  0.00    0.0012403   -0.0037662   -0.0034014
h     4.0199436    0.6243393    1.7966416  0.00    0.0022730    0.0070802   -0.0042912
h    -2.3573992    3.1920091    0.3654365  0.00   -0.0008346   -0.0000026    0.0000390
h    -2.1785516    0.7251916    0.3468682  0.00   -0.0027466   -0.0001713    0.0000107
h    -0.3390057    4.5785053    0.1391080  0.00    0.0003400    0.0004330    0.0001123
h     1.8729843    3.5223795   -0.1275551  0.00    0.1606776   -0.0463467    0.0568858
h     2.2296855   -1.4791560   -0.3991230  0.00   -0.0108112   -0.0047665    0.0001232
o     6.0460159    3.7925161    0.2249649  0.00   -0.0375215   -0.0689723   -0.0292517
o     6.0047950    1.9796854   -1.2916147  0.00   -0.0533837    0.0100110   -0.0157622
h     6.6440148    1.2940258   -0.8708016  0.00    0.0105265   -0.0209907    0.0208562
    27
 Energy =       0.2392760689
c    -1.3829542    2.7164373    0.3078294  0.00   -0.0129880    0.0096276    0.0006165
c    -1.2903693    1.3471227    0.3136008  0.00   -0.0232452   -0.0096514    0.0000027
c    -0.0569297    0.7878770    0.1637858  0.00   -0.0217151   -0.0448958   -0.0005737
c    -0.2572744    3.4915214    0.1532034  0.00   -0.0055311    0.0190367    0.0006976
c     0.9738367    2.9051663   -0.0133063  0.00    0.0118362    0.0180885    0.0021419
c     1.0546044    1.5355444   -0.0133787  0.00    0.0154482    0.0155955    0.0011537
n     0.2687433   -0.5833446    0.1322957  0.00    0.0310011    0.0253124    0.0003873
c     2.1196531    0.6995270   -0.2156762  0.00    0.0394512   -0.0229645   -0.0059930
c     1.6592024   -0.5746155   -0.1599585  0.00   -0.0211620   -0.0230750    0.0002158
h    -0.3636358   -1.3982361    0.2714846  0.00    0.0051624    0.0070813    0.0000387
c     3.5187500    1.1081065   -0.6212665  0.00    0.0122812    0.0152976   -0.0034142
c     4.1611863    2.1465477    0.3232163  0.00   -0.0206817   -0.0149289   -0.0308732
h     3.4776995    1.5350020   -1.6509238  0.00    0.0060371    0.0034372    0.0008410
h     4.1753958    0.2100610   -0.6856867  0.00    0.0012828   -0.0012313   -0.0016209
c     5.4373950    2.6957682   -0.3078310  0.00    0.0619121    0.0771460    0.0329389
n     4.4538455    1.5789409    1.6687408  0.00    0.0076515    0.0017290    0.0284887
h     3.4748969    3.0186415    0.4246607  0.00   -0.1518457    0.0410337   -0.0472471
h     3.9419859    2.1297867    2.3946930  0.00    0.0006766   -0.0030974   -0.0023958
h     4.1047097    0.5995469    1.7512070  0.00    0.0019662    0.0059941   -0.0034762
h    -2.3540764    3.1909418    0.4306186  0.00   -0.0008276   -0.0000189    0.0000425
h    -2.1727865    0.7248786    0.4365072  0.00   -0.0026799   -0.0002874    0.0000302
h    -0.3410321    4.5760770    0.1574148  0.00    0.0003538    0.0004629    0.0000967
h     1.8661454    3.5203059   -0.1336701  0.00    0.1469744   -0.0421015    0.0519173
h     2.2250229   -1.4790416   -0.3656911  0.00   -0.0097927   -0.0043379    0.0000824
o     6.0290142    3.8151197    0.1429108  0.00   -0.0340125   -0.0626785   -0.0267331
o     5.9517047    2.0296499   -1.4094653  0.00   -0.0481318    0.0095650   -0.0169795
h     6.6049503    1.3348019   -1.0295547  0.00    0.0105786   -0.0201389    0.0196146
    27
 Energy =       0.2383947016
c    -1.3770714    2.7230943    0.3518199  0.00   -0.0126465    0.0091952    0.0006179
c    -1.2861365    1.3541287    0.3770819  0.00   -0.0223934   -0.0094577    0.0000058
c    -0.0559422    0.7910315    0.2201869  0.00   -0.0209193   -0.0431281   -0.0005752
c    -0.2526541    3.4941186    0.1704428  0.00   -0.0051256    0.0184331    0.0006488
c     0.9749460    2.9036721   -0.0043796  0.00    0.0114462    0.0175518    0.0020472
c     1.0534089    1.5341593    0.0163862  0.00    0.0149106    0.0149905    0.0011029
n     0.2671316   -0.5816765    0.2076048  0.00    0.0294907    0.0242062    0.0004665
c     2.1134805    0.6942793   -0.1902916  0.00    0.0376596   -0.0219106   -0.0056690
c     1.6528829   -0.5782305   -0.1099447  0.00   -0.0202177   -0.0222560    0.0001578
h    -0.3639883   -1.3936685    0.3711810  0.00    0.0046481    0.0064165    0.0001221
c     3.5037565    1.0955168   -0.6321217  0.00    0.0116885    0.0145665   -0.0034480
c     4.1698150    2.1405082    0.2890004  0.00   -0.0206759   -0.0139073   -0.0298368
h     3.4346537    1.5148854   -1.6637515  0.00    0.0057061    0.0033897    0.0003885
h     4.1580759    0.1968068   -0.7075493  0.00    0.0013408   -0.0011941   -0.0016009
c     5.4157767    2.7079164   -0.3883389  0.00    0.0593021    0.0749189    0.0327999
n     4.5151833    1.5744331    1.6232670  0.00    0.0082262    0.0013104    0.0282889
h     3.4762138    3.0034789    0.4166373  0.00   -0.1461726    0.0395868   -0.0454152
h     4.0169037    2.1139858    2.3675263  0.00    0.0003674   -0.0028130   -0.0018302
h     4.1881399    0.5877938    1.7150726  0.00    0.0017554    0.0052632   -0.0029556
h    -2.3459087    3.2007623    0.4802492  0.00   -0.0008330   -0.0000335    0.0000461
h    -2.1675854    0.7348739    0.5213507  0.00   -0.0027534   -0.0004381    0.0000578
h    -0.3349527    4.5788398    0.1588085  0.00    0.0003911    0.0005831    0.0000822
h     1.8667388    3.5162587   -0.1483900  0.00    0.1413301   -0.0401947    0.0497673
h     2.2143634   -1.4851219   -0.3172508  0.00   -0.0093803   -0.0041748    0.0000651
o     6.0221174    3.8236651    0.0572099  0.00   -0.0325761   -0.0599725   -0.0256050
o     5.8857230    2.0681912   -1.5277394  0.00   -0.0459523    0.0096910   -0.0191579
h     6.5346120    1.3484318   -1.1883078  0.00    0.0113829   -0.0206227    0.0194291
    27
 Energy =       0.2269047730
c    -1.3673390    2.7455625    0.4512216  0.00   -0.0092088    0.0059514    0.0004672
c    -1.2791309    1.3791813    0.4636270  0.00   -0.0159242   -0.0058784    0.0000277
c    -0.0614484    0.8139882    0.2540570  0.00   -0.0138393   -0.0287965   -0.0003159
c    -0.2491490    3.5120060    0.2311306  0.00   -0.0037755    0.0127166    0.0004719
c     0.9663157    2.9186223    0.0060989  0.00    0.0087664    0.0113804    0.0013227
c     1.0370076    1.5530235    0.0138256  0.00    0.0105191    0.0099498    0.0009048
n     0.2518948   -0.5641969    0.2151549  0.00    0.0192546    0.0158568    0.0006990
c     2.0833195    0.7195412   -0.2341454  0.00    0.0261197   -0.0148699   -0.0033362
c     1.6323849   -0.5517534   -0.1424394  0.00   -0.0127729   -0.0149071   -0.0000873
h    -0.3758540   -1.3788582    0.3882527  0.00    0.0030514    0.0041851    0.0002259
c     3.4645501    1.1200129   -0.7057516  0.00    0.0064683    0.0092772   -0.0028276
c     4.1717135    2.1087058    0.2486205  0.00   -0.0138103   -0.0076798   -0.0206273
h     3.3756568    1.5873042   -1.7159858  0.00    0.0039986    0.0029282   -0.0012674
h     4.1053186    0.2164307   -0.8401585  0.00    0.0020333   -0.0021884   -0.0014926
c     5.4296765    2.6641214   -0.4080752  0.00    0.0388850    0.0496386    0.0237746
n     4.5042952    1.4790745    1.5544899  0.00    0.0074258    0.0006150    0.0204935
h     3.5050529    2.9882170    0.4095321  0.00   -0.1054641    0.0293815   -0.0332178
h     4.0243536    2.0019281    2.3238678  0.00    0.0000051   -0.0013323   -0.0004742
h     4.1586059    0.4939211    1.6098426  0.00    0.0009892    0.0020670   -0.0018836
h    -2.3291924    3.2256023    0.6218463  0.00   -0.0014604    0.0002326    0.0002786
h    -2.1555963    0.7611488    0.6384133  0.00   -0.0023469   -0.0004424    0.0002240
h    -0.3277089    4.5969774    0.2313594  0.00    0.0000988    0.0004417    0.0001432
h     1.8556007    3.5278307   -0.1640122  0.00    0.1020030   -0.0287602    0.0358946
h     2.2020073   -1.4510282   -0.3630373  0.00   -0.0061089   -0.0028464   -0.0000293
o     6.0037252    3.8180323    0.0290020  0.00   -0.0221974   -0.0381242   -0.0165408
o     5.9602588    1.9999504   -1.5079102  0.00   -0.0389302    0.0145049   -0.0203273
h     6.6933652    1.3767887   -1.1430664  0.00    0.0162205   -0.0233012    0.0174996
    27
 Energy =       0.2224708340
c    -1.3610065    2.7796020    0.4435448  0.00   -0.0078583    0.0049558    0.0004092
c    -1.2821397    1.4136441    0.4659918  0.00   -0.0134572   -0.0050144    0.0000184
c    -0.0718486    0.8386466    0.2498660  0.00   -0.0115953   -0.0241941   -0.0002930
c    -0.2400220    3.5355916    0.2065935  0.00   -0.0031248    0.0107765    0.0003973
c     0.9679849    2.9314002   -0.0234919  0.00    0.0074974    0.0096149    0.0011378
c     1.0281325    1.5675371   -0.0036757  0.00    0.0089191    0.0083640    0.0007730
n     0.2302846   -0.5432229    0.2195948  0.00    0.0161468    0.0132355    0.0006025
c     2.0668089    0.7282718   -0.2467837  0.00    0.0219407   -0.0123467   -0.0027443
c     1.6115762   -0.5393099   -0.1398231  0.00   -0.0107196   -0.0125611   -0.0000771
h    -0.4022124   -1.3532585    0.4001171  0.00    0.0025094    0.0034519    0.0002065
c     3.4534161    1.1143905   -0.7148292  0.00    0.0047995    0.0075835   -0.0022278
c     4.1736112    2.0940408    0.2401998  0.00   -0.0126792   -0.0052838   -0.0168236
h     3.3757317    1.5799882   -1.7261077  0.00    0.0035240    0.0025495   -0.0011313
h     4.0832591    0.2024398   -0.8443477  0.00    0.0017940   -0.0019142   -0.0012729
c     5.4658077    2.5909424   -0.3978036  0.00    0.0304163    0.0409194    0.0229484