    27
 Energy =       0.3420817823
c    -1.4235396    2.6054793   -0.0667700  0.00   -0.0463033    0.0382557    0.0025003
c    -1.3072796    1.2134697   -0.1072300  0.00   -0.0851870   -0.0326174    0.0017488
c    -0.0178900    0.6711998   -0.1697000  0.00   -0.0896224   -0.1875910    0.0002765
c    -0.2940599    3.4190890   -0.0891300  0.00   -0.0231879    0.0690208    0.0027147
c     0.9872197    2.8590292   -0.1560400  0.00    0.0103013    0.0638522    0.0006892
c     1.1340797    1.4562096   -0.1970299  0.00    0.0528499    0.0515844    0.0025376
n     0.3879399   -0.6395298   -0.2140799  0.00    0.1461431    0.1102101   -0.0083265
c     2.2666594    0.5727398   -0.2659299  0.00    0.1573268   -0.0885786   -0.0148844
c     1.7555995   -0.7123598   -0.2706899  0.00   -0.0968140   -0.0947609   -0.0031667
h    -0.2400399   -1.4313496   -0.2047299  0.00    0.0357987    0.0474998    0.0010582
c     3.7030089    1.0223397   -0.3320099  0.00   -0.0255360    0.0135781   -0.0347836
c     4.2197688    1.4064496   -1.7267995  0.00    0.0137341    0.0581538    0.0611862
h     4.3261788    0.2093419    0.0639454  0.00   -0.0060920    0.0135370   -0.0047317
h     3.8370289    1.8640295    0.3610799  0.00   -0.0042207   -0.0128137   -0.0047612
c     3.7734089    0.3331939   -2.7369592  0.00   -0.3011832   -0.1492484   -0.1028608
n     5.7205784    1.5052196   -1.8052095  0.00    0.0759380   -0.0652476   -0.0724233
h     3.7949889    2.3605393   -2.0604594  0.00    0.0158686   -0.0115741    0.0021529
h     6.0814483    1.3602996   -0.8566008  0.00   -0.0318706   -0.0043811   -0.0246752
h     6.0587583    0.6873448   -2.3244293  0.00   -0.2708620   -0.1363580   -0.1816197
h    -2.4108593    3.0588691   -0.0157800  0.00   -0.0009276    0.0003159    0.0002089
h    -2.1896094    0.5822398   -0.0890100  0.00   -0.0036493    0.0037148    0.0003458
h    -0.4052699    4.5000487   -0.0535400  0.00    0.0008677    0.0003712    0.0004597
h     1.8590495    3.5066790   -0.1715100  0.00   -0.0009058    0.0030951    0.0008524
h     2.2327294   -1.6813195   -0.3062999  0.00   -0.0412902   -0.0121618    0.0047909
o     2.6230993   -0.0215760   -2.9339992  0.00    0.2713052    0.0803454    0.0761547
o     4.8385586   -0.1871039   -3.4042990  0.00    0.2451889    0.2273380    0.2570100
h     4.6756787    0.0329305   -4.3580588  0.00    0.0023297    0.0144605    0.0375463
    27
 Energy =       0.3118776372
c    -1.4170734    2.6705937   -0.0817952  0.00   -0.0385750    0.0318199    0.0021048
c    -1.3074855    1.2842149   -0.1220925  0.00   -0.0710558   -0.0272556    0.0014945
c    -0.0296025    0.7371843   -0.1788865  0.00   -0.0743047   -0.1563405    0.0006491
c    -0.2859347    3.4745667   -0.1014158  0.00   -0.0194217    0.0575197    0.0022867
c     0.9862389    2.9079752   -0.1633837  0.00    0.0086525    0.0532920    0.0005758
c     1.1171498    1.5127133   -0.2007848  0.00    0.0439153    0.0431883    0.0020793
n     0.3547300   -0.5867186   -0.2315418  0.00    0.1208423    0.0916624   -0.0077421
c     2.2376038    0.6382813   -0.2573925  0.00    0.1309204   -0.0733374   -0.0111679
c     1.7343287   -0.6437525   -0.2516437  0.00   -0.0800492   -0.0789215   -0.0026639
h    -0.2776771   -1.3824701   -0.2380587  0.00    0.0297348    0.0394986    0.0007171
c     3.6806737    1.0717888   -0.3218818  0.00   -0.0280166    0.0100440   -0.0282083
c     4.2482744    1.3062136   -1.7439004  0.00    0.0130719    0.0475367    0.0461271
h     4.2811159    0.2960521    0.1918679  0.00   -0.0021613    0.0054809    0.0000915
h     3.8011608    1.9934366    0.2793204  0.00   -0.0038499   -0.0046158    0.0000984
c     3.7949501    0.1950224   -2.7064476  0.00   -0.2502050   -0.1259614   -0.0881665
n     5.7509645    1.3614412   -1.7833141  0.00    0.0650337   -0.0544810   -0.0617880
h     3.8627281    2.2516009   -2.1633585  0.00    0.0118381   -0.0057936   -0.0000638
h     6.0976783    1.2065931   -0.8270556  0.00   -0.0252131   -0.0035966   -0.0206262
h     6.0831392    0.5285917   -2.2975794  0.00   -0.2293532   -0.1170851   -0.1545406
h    -2.4020708    3.1293042   -0.0351605  0.00   -0.0008017    0.0002655    0.0001779
h    -2.1919089    0.6558077   -0.1096882  0.00   -0.0030559    0.0030755    0.0002844
h    -0.3906373    4.5562768   -0.0679559  0.00    0.0007118    0.0003332    0.0003859
h     1.8637337    3.5478159   -0.1773313  0.00   -0.0005778    0.0025107    0.0006927
h     2.2385348   -1.5996808   -0.2818807  0.00   -0.0341930   -0.0102985    0.0040366
o     2.6134760   -0.1621638   -2.8836167  0.00    0.2257807    0.0669282    0.0637779
o     4.8400478   -0.3443457   -3.3952555  0.00    0.2098458    0.1905434    0.2225564
h     4.7030958   -0.0528401   -4.3410357  0.00    0.0004867    0.0139877    0.0268310
    27
 Energy =       0.3068159927
c    -1.4046724    2.6057215   -0.0483216  0.00   -0.0379787    0.0313203    0.0020699
c    -1.2887292    1.2200728   -0.0890742  0.00   -0.0699498   -0.0268270    0.0014678
c    -0.0089890    0.6791550   -0.1500019  0.00   -0.0731528   -0.1538433    0.0006201
c    -0.2776369    3.4149371   -0.0712471  0.00   -0.0191172    0.0566259    0.0022494
c     0.9962539    2.8544403   -0.1379823  0.00    0.0085611    0.0524407    0.0005532
c     1.1325280    1.4606849   -0.1767513  0.00    0.0431751    0.0426002    0.0019734
n     0.3829980   -0.6440801   -0.2044777  0.00    0.1184471    0.0903535   -0.0075285
c     2.2565395    0.5949173   -0.2455582  0.00    0.1284353   -0.0717797   -0.0102736
c     1.7635159   -0.6897791   -0.2530755  0.00   -0.0782565   -0.0778124   -0.0028027
h    -0.2433310   -1.4453339   -0.2001647  0.00    0.0291600    0.0387604    0.0007061
c     3.6943498    1.0414456   -0.3260159  0.00   -0.0312704    0.0097045   -0.0264015
c     4.2049526    1.3738524   -1.7511473  0.00    0.0122077    0.0461267    0.0433040
h     4.3231155    0.2368016    0.1114422  0.00   -0.0004711    0.0025033    0.0015991
h     3.8246508    1.9252140    0.3319168  0.00   -0.0040054   -0.0027752    0.0017023
c     3.7643291    0.2852811   -2.7433003  0.00   -0.2461809   -0.1241892   -0.0865577
n     5.7028185    1.4860137   -1.8324612  0.00    0.0656971   -0.0530016   -0.0634293
h     3.7677438    2.3238141   -2.1118669  0.00    0.0104882   -0.0031159   -0.0010025
h     6.0875088    1.3653462   -0.8843975  0.00   -0.0229141   -0.0036895   -0.0186689
h     6.0508480    0.6661695   -2.3560659  0.00   -0.2253776   -0.1155904   -0.1519932
h    -2.3916759    3.0597790    0.0014353  0.00   -0.0008061    0.0002681    0.0001759
h    -2.1700328    0.5873891   -0.0739723  0.00   -0.0030225    0.0030170    0.0002793
h    -0.3873086    4.4961488   -0.0374613  0.00    0.0007003    0.0003410    0.0003801
h     1.8711825    3.4977833   -0.1563581  0.00   -0.0005205    0.0024600    0.0006647
h     2.2761010   -1.6402274   -0.3058607  0.00   -0.0334426   -0.0103693    0.0039352
o     2.5821541   -0.0727956   -2.9329044  0.00    0.2220138    0.0657608    0.0624251
o     4.8141807   -0.2206704   -3.4547705  0.00    0.2071574    0.1867975    0.2186971
h     4.6638394    0.0914220   -4.3928261  0.00    0.0004232    0.0139133    0.0258551
    27
 Energy =       0.2941394975
c    -1.3813615    2.5473081   -0.0094472  0.00   -0.0350223    0.0289331    0.0019008
c    -1.2614027    1.1643198   -0.0588545  0.00   -0.0645389   -0.0247892    0.0013611
c     0.0167586    0.6279940   -0.1204100  0.00   -0.0675669   -0.1414454    0.0007570
c    -0.2576284    3.3585803   -0.0272933  0.00   -0.0176284    0.0522668    0.0020527
c     1.0151782    2.8021448   -0.0968376  0.00    0.0079517    0.0483972    0.0004637
c     1.1517998    1.4122939   -0.1425758  0.00    0.0397232    0.0394699    0.0017309
n     0.4091934   -0.6976211   -0.2035333  0.00    0.1093046    0.0829154   -0.0070987
c     2.2754011    0.5579919   -0.2258128  0.00    0.1180413   -0.0657267   -0.0088782
c     1.7940135   -0.7278715   -0.2534458  0.00   -0.0723583   -0.0715730   -0.0024380
h    -0.2129346   -1.5049687   -0.2110423  0.00    0.0268410    0.0356261    0.0005989
c     3.7090670    1.0139416   -0.3321968  0.00   -0.0317873    0.0087366   -0.0228217
c     4.1542779    1.4284527   -1.7595876  0.00    0.0102570    0.0419059    0.0381800
h     4.3635841    0.1896374    0.0326342  0.00    0.0012530   -0.0000643    0.0024878
h     3.8571501    1.8639432    0.3680907  0.00   -0.0038999   -0.0014593    0.0028392
c     3.7203706    0.3642696   -2.7774266  0.00   -0.2270086   -0.1149090   -0.0800107
n     5.6427199    1.5963094   -1.8826896  0.00    0.0617737   -0.0483957   -0.0619553
h     3.6681871    2.3777188   -2.0630921  0.00    0.0084477   -0.0005431   -0.0016276
h     6.0662406    1.5240993   -0.9431515  0.00   -0.0188636   -0.0034552   -0.0147333
h     6.0075078    0.7843370   -2.4105704  0.00   -0.2085494   -0.1074141   -0.1408300
h    -2.3696702    2.9983799    0.0406815  0.00   -0.0007486    0.0002511    0.0001627
h    -2.1405887    0.5285406   -0.0534590  0.00   -0.0028277    0.0027433    0.0002538
h    -0.3700449    4.4393547    0.0113982  0.00    0.0006476    0.0003313    0.0003498
h     1.8892542    3.4466476   -0.1138833  0.00   -0.0004529    0.0022509    0.0005873
h     2.3217066   -1.6682621   -0.3376752  0.00   -0.0305713   -0.0101299    0.0035848
o     2.5282939    0.0022569   -2.9685876  0.00    0.2048109    0.0607128    0.0573796
o     4.7676086   -0.1183884   -3.5140616  0.00    0.1926505    0.1716990    0.2038674
h     4.6225520    0.2420930   -4.4384392  0.00    0.0001218    0.0136656    0.0218361
    27
 Energy =       0.2751403912
c    -1.3443955    2.4982325    0.0395320  0.00   -0.0293995    0.0245548    0.0016091
c    -1.2245449    1.1207703   -0.0452317  0.00   -0.0541279   -0.0215926    0.0011980
c     0.0478472    0.5860819   -0.0987746  0.00   -0.0556142   -0.1125853    0.0029741
c    -0.2217955    3.3064862    0.0546147  0.00   -0.0144673    0.0442097    0.0015742
c     1.0465630    2.7508319   -0.0118787  0.00    0.0067868    0.0410325    0.0001829
c     1.1764105    1.3679792   -0.0855497  0.00    0.0332581    0.0340145    0.0013187
n     0.4298999   -0.7423829   -0.2810131  0.00    0.0905288    0.0638892   -0.0086681
c     2.2946015    0.5281161   -0.1891492  0.00    0.0989464   -0.0534115   -0.0067473
c     1.8247718   -0.7560283   -0.2674998  0.00   -0.0589038   -0.0572989   -0.0003761
h    -0.1926311   -1.5539783   -0.3596595  0.00    0.0201580    0.0266054   -0.0002933
c     3.7254072    0.9894321   -0.3323030  0.00   -0.0287338    0.0068660   -0.0175246
c     4.0958843    1.4682891   -1.7645208  0.00    0.0072925    0.0344004    0.0304594
h     4.4012704    0.1518312   -0.0363788  0.00    0.0027192   -0.0019567    0.0027601
h     3.9008903    1.8115884    0.3960190  0.00   -0.0034277   -0.0005485    0.0034248
c     3.6569689    0.4307693   -2.8027159  0.00   -0.1898691   -0.0963192   -0.0684836
n     5.5705796    1.6857875   -1.9333618  0.00    0.0520600   -0.0403141   -0.0570057
h     3.5657513    2.4134515   -2.0113208  0.00    0.0058137    0.0015789   -0.0018892
h     6.0332025    1.6814684   -1.0041598  0.00   -0.0127464   -0.0026158   -0.0082885
h     5.9517917    0.8714355   -2.4553714  0.00   -0.1777755   -0.0925204   -0.1208419
h    -2.3330702    2.9490281    0.0830820  0.00   -0.0006845    0.0001650    0.0001382
h    -2.1038288    0.4848566   -0.0851347  0.00   -0.0031487    0.0015481    0.0001304
h    -0.3332467    4.3865802    0.1150090  0.00    0.0006042    0.0005362    0.0002945
h     1.9227602    3.3928843   -0.0070741  0.00   -0.0002086    0.0020806    0.0004657
h     2.3748111   -1.6791712   -0.4052749  0.00   -0.0254766   -0.0104376    0.0028495
o     2.4440670    0.0581303   -2.9763174  0.00    0.1715778    0.0508218    0.0484220
o     4.6907533   -0.0498132   -3.5643158  0.00    0.1662189    0.1415101    0.1816326
h     4.5865150    0.4008461   -4.4625197  0.00   -0.0013808    0.0157877    0.0106840
    27
 Energy =       0.2665127732
c    -1.3398362    2.4808339    0.0502844  0.00   -0.0272843    0.0227227    0.0014968
c    -1.2175169    1.1036069   -0.0078174  0.00   -0.0500806   -0.0204353    0.0009978
c     0.0529798    0.5721948   -0.0745660  0.00   -0.0503534   -0.1009165    0.0024815
c    -0.2198508    3.2912816    0.0326065  0.00   -0.0130715    0.0410863    0.0014934
c     1.0469229    2.7378640   -0.0453744  0.00    0.0064342    0.0380966    0.0002307
c     1.1765501    1.3565979   -0.0983333  0.00    0.0309496    0.0319021    0.0012553
n     0.4333519   -0.7681126   -0.1887649  0.00    0.0807770    0.0566825   -0.0074414
c     2.2929692    0.5230362   -0.2052811  0.00    0.0919902   -0.0488193   -0.0062241
c     1.8317777   -0.7636221   -0.2532498  0.00   -0.0508281   -0.0513810   -0.0010170
h    -0.1872218   -1.5894387   -0.2009064  0.00    0.0163976    0.0216502   -0.0001639
c     3.7226093    0.9850221   -0.3533556  0.00   -0.0265777    0.0063820   -0.0161218
c     4.0838268    1.4737592   -1.7820802  0.00    0.0066020    0.0316945    0.0281931
h     4.4010282    0.1462735   -0.0672118  0.00    0.0025359   -0.0018434    0.0025755
h     3.9020086    1.8027600    0.3790543  0.00   -0.0031630   -0.0004872    0.0031773
c     3.6539147    0.4402666   -2.8260104  0.00   -0.1754457   -0.0887795   -0.0625809
n     5.5540854    1.7111216   -1.9462383  0.00    0.0480204   -0.0368747   -0.0525308
h     3.5420804    2.4142894   -2.0219591  0.00    0.0053241    0.0015548   -0.0017449
h     6.0214915    1.6969488   -1.0186521  0.00   -0.0117558   -0.0024187   -0.0075462
h     5.9461630    0.9123582   -2.4858681  0.00   -0.1644660   -0.0860994   -0.1122917
h    -2.3288894    2.9297035    0.1044048  0.00   -0.0007270    0.0001075    0.0001272
h    -2.0951854    0.4632035   -0.0089994  0.00   -0.0035120    0.0009070    0.0001116
h    -0.3328716    4.3721487    0.0758804  0.00    0.0006275    0.0006614    0.0002781
h     1.9221364    3.3813636   -0.0664017  0.00    0.0000875    0.0021391    0.0004168
h     2.3907643   -1.6821416   -0.3869480  0.00   -0.0236780   -0.0097870    0.0025278
o     2.4311986    0.0782542   -3.0143100  0.00    0.1581213    0.0468879    0.0446124
o     4.6856438   -0.0199050   -3.6071313  0.00    0.1548552    0.1274343    0.1731899
h     4.6171033    0.5038344   -4.4740398  0.00   -0.0017795    0.0179331    0.0044973
    27
 Energy =       0.2632006283
c    -1.3384168    2.4711798    0.0519951  0.00   -0.0254553    0.0211972    0.0013940
c    -1.2168102    1.0952517   -0.0046141  0.00   -0.0467313   -0.0190714    0.0009242
c     0.0512144    0.5635167   -0.0737298  0.00   -0.0469654   -0.0941380    0.0022835
c    -0.2185910    3.2800383    0.0313567  0.00   -0.0121983    0.0383354    0.0013940
c     1.0461740    2.7257771   -0.0485262  0.00    0.0060066    0.0355477    0.0002164
c     1.1728331    1.3463462   -0.1007609  0.00    0.0288727    0.0297786    0.0011754
n     0.4282815   -0.7797109   -0.1820579  0.00    0.0753332    0.0528753   -0.0068896
c     2.2866138    0.5156864   -0.2089604  0.00    0.0858490   -0.0455516   -0.0058067
c     1.8284369   -0.7704452   -0.2556914  0.00   -0.0473832   -0.0479094   -0.0010003
h    -0.1924357   -1.6023756   -0.1869285  0.00    0.0152749    0.0201669   -0.0001423
c     3.7171711    0.9758100   -0.3561474  0.00   -0.0248104    0.0059463   -0.0150526
c     4.0762887    1.4686916   -1.7835103  0.00    0.0062255    0.0294976    0.0262572
h     4.3944193    0.1349613   -0.0740815  0.00    0.0023728   -0.0017271    0.0024103
h     3.8992093    1.7910619    0.3783606  0.00   -0.0029491   -0.0004472    0.0029710
c     3.6476842    0.4391210   -2.8312675  0.00   -0.1636803   -0.0822093   -0.0586365
n     5.5448722    1.7143277   -1.9431623  0.00    0.0442603   -0.0339301   -0.0492881
h     3.5300444    2.4079206   -2.0191002  0.00    0.0049723    0.0014785   -0.0016268
h     6.0172040    1.6745874   -1.0177015  0.00   -0.0107819   -0.0022693   -0.0065280
h     5.9424522    0.9344788   -2.5081613  0.00   -0.1541177   -0.0810981   -0.1067270
h    -2.3270461    2.9207052    0.1078022  0.00   -0.0006808    0.0001001    0.0001186
h    -2.0944042    0.4549425   -0.0021773  0.00   -0.0032826    0.0008420    0.0001039
h    -0.3306590    4.3610135    0.0737403  0.00    0.0005854    0.0006184    0.0002600
h     1.9221937    3.3679809   -0.0718756  0.00    0.0000866    0.0019970    0.0003885
h     2.3933421   -1.6852379   -0.3912220  0.00   -0.0220834   -0.0091430    0.0023506
o     2.4145379    0.0973451   -3.0330762  0.00    0.1472948    0.0439165    0.0412503
o     4.6735504   -0.0120590   -3.6272761  0.00    0.1445981    0.0947365    0.1885841
h     4.7190738    0.6625875   -4.4144952  0.00   -0.0006126    0.0404605   -0.0203838
    27
 Energy =       0.2400347133
c    -1.2976148    2.4293578    0.1055900  0.00   -0.0178304    0.0145612    0.0008952
c    -1.1751755    1.0586504    0.0688657  0.00   -0.0327003   -0.0135496    0.0003185
c     0.0832981    0.5289621   -0.0207889  0.00   -0.0319759   -0.0640899    0.0002543
c    -0.1814168    3.2349334    0.0500202  0.00   -0.0082727    0.0268263    0.0010438
c     1.0754291    2.6804676   -0.0498337  0.00    0.0045703    0.0247687    0.0002362
c     1.1933817    1.3087414   -0.0873449  0.00    0.0201091    0.0212634    0.0009514
n     0.4507302   -0.8272200   -0.0831663  0.00    0.0493539    0.0360914   -0.0025961
c     2.2970692    0.4937874   -0.2143919  0.00    0.0602714   -0.0311861   -0.0035688
c     1.8559323   -0.7921258   -0.2355083  0.00   -0.0300640   -0.0320014   -0.0023779
h    -0.1665656   -1.6584715   -0.0281753  0.00    0.0088567    0.0116904    0.0004448
c     3.7255319    0.9521221   -0.3944915  0.00   -0.0189766    0.0040705   -0.0094818
c     4.0269484    1.5045329   -1.8131841  0.00    0.0031434    0.0203315    0.0176985
h     4.4132906    0.0995871   -0.1757740  0.00    0.0029420   -0.0027241    0.0021900
h     3.9375039    1.7382996    0.3646794  0.00   -0.0020732    0.0003945    0.0030387
c     3.6042943    0.5119992   -2.8932952  0.00   -0.1134454   -0.0573165   -0.0411005
n     5.4781956    1.8075373   -1.9841961  0.00    0.0311827   -0.0234530   -0.0355159
h     3.4433029    2.4350085   -1.9965321  0.00    0.0024456    0.0028600   -0.0012484
h     5.9742781    1.7943848   -1.0674522  0.00   -0.0064360   -0.0014877   -0.0038669
h     5.9026605    1.0492748   -2.5678779  0.00   -0.1131851   -0.0617727   -0.0804082
h    -2.2851273    2.8790258    0.1775139  0.00   -0.0006472    0.0000310    0.0000795
h    -2.0501669    0.4158092    0.1078588  0.00   -0.0028452    0.0001668    0.0000787
h    -0.2923286    4.3164305    0.0795372  0.00    0.0004749    0.0005286    0.0001876
h     1.9523745    3.3199136   -0.1016393  0.00    0.0005381    0.0015239    0.0001241
h     2.4462679   -1.6890943   -0.3893578  0.00   -0.0149567   -0.0065924    0.0012869
o     2.3442736    0.1545426   -3.0849124  0.00    0.1019861    0.0303087    0.0295826
o     4.6146514    0.0799067   -3.7280545  0.00    0.1069573    0.0687400    0.1367351
h     4.6162153    0.7271395   -4.5293574  0.00    0.0005771    0.0300165   -0.0149816
    27
 Energy =       0.2250433807
c    -1.2512561    2.4055687    0.1832579  0.00   -0.0119544    0.0095477    0.0004863
c    -1.1314289    1.0393392    0.1437733  0.00   -0.0218789   -0.0088937    0.0000359
c     0.1177853    0.5084331    0.0309044  0.00   -0.0213040   -0.0424539    0.0000065
c    -0.1364555    3.2057418    0.1079493  0.00   -0.0055947    0.0178469    0.0006474
c     1.1122957    2.6485267   -0.0154784  0.00    0.0032726    0.0163514    0.0001031
c     1.2205100    1.2827258   -0.0571937  0.00    0.0131451    0.0142309    0.0007352
n     0.4731908   -0.8551447   -0.0423880  0.00    0.0322883    0.0239330   -0.0013076
c     2.3133086    0.4774752   -0.2124319  0.00    0.0398840   -0.0206600   -0.0018980
c     1.8812601   -0.8065365   -0.2269497  0.00   -0.0198096   -0.0209410   -0.0017624
h    -0.1439802   -1.6892120    0.0258819  0.00    0.0057622    0.0076505    0.0003505
c     3.7388856    0.9320024   -0.4353481  0.00   -0.0134988    0.0025005   -0.0055709
c     3.9814417    1.5261640   -1.8492986  0.00    0.0006377    0.0130787    0.0112549
h     4.4331120    0.0721627   -0.2722746  0.00    0.0030575   -0.0028626    0.0017324
h     3.9845642    1.6959712    0.3366201  0.00   -0.0013592    0.0007399    0.0028101
c     3.5533498    0.5622851   -2.9503355  0.00   -0.0729951   -0.0363365   -0.0283527
n     5.4151475    1.8792175   -2.0398858  0.00    0.0209730   -0.0155600   -0.0253879
h     3.3662571    2.4445867   -1.9885355  0.00    0.0008003    0.0031694   -0.0009230
h     5.9304995    1.9061676   -1.1315084  0.00   -0.0029472   -0.0008183   -0.0013943
h     5.8631355    1.1319862   -2.6271376  0.00   -0.0804296   -0.0456249   -0.0588290
h    -2.2363132    2.8573966    0.2733107  0.00   -0.0006061    0.0000607    0.0000564
h    -2.0055585    0.3972535    0.1978460  0.00   -0.0020052    0.0000703    0.0000402
h    -0.2437381    4.2874434    0.1401861  0.00    0.0002940    0.0003629    0.0001253
h     1.9905834    3.2842707   -0.0825829  0.00    0.0005341    0.0010079    0.0000018
h     2.4863132   -1.6899065   -0.4080124  0.00   -0.0095069   -0.0046494    0.0006713
o     2.2771989    0.1590354   -3.0995210  0.00    0.0652908    0.0186801    0.0211407
o     4.5396635    0.1496043   -3.8277875  0.00    0.0768125    0.0434733    0.1013942
h     4.4574622    0.7409445   -4.6643287  0.00    0.0011378    0.0260959   -0.0161664
    27
 Energy =       0.2187176771
c    -1.2097284    2.4056699    0.2679264  0.00   -0.0096959    0.0072496    0.0003599
c    -1.0929844    1.0410245    0.2332619  0.00   -0.0174538   -0.0069071   -0.0000480
c     0.1495823    0.5077498    0.0922973  0.00   -0.0167459   -0.0332268   -0.0001408
c    -0.0962244    3.2019928    0.1606006  0.00   -0.0043480    0.0141396    0.0005017
c     1.1460981    2.6416769    0.0084115  0.00    0.0029469    0.0127068    0.0000659
c     1.2480763    1.2780459   -0.0293971  0.00    0.0103341    0.0112336    0.0006583
n     0.4972075   -0.8597949    0.0190361  0.00    0.0243849    0.0188375   -0.0006457
c     2.3321121    0.4750245   -0.2128914  0.00    0.0310761   -0.0161480   -0.0012140
c     1.9025026   -0.8079176   -0.2080749  0.00   -0.0149740   -0.0162553   -0.0015930
h    -0.1190838   -1.6940845    0.1114237  0.00    0.0041633    0.0056175    0.0003585
c     3.7516782    0.9254483   -0.4864567  0.00   -0.0102779    0.0017474   -0.0039800
c     3.9424017    1.5265868   -1.9059053  0.00   -0.0003903    0.0096978    0.0081927
h     4.4502956    0.0644868   -0.3542418  0.00    0.0028562   -0.0024683    0.0014010
h     4.0268633    1.6850865    0.2797412  0.00   -0.0009749    0.0007905    0.0026156
c     3.5046760    0.5624195   -3.0025560  0.00   -0.0527175   -0.0254226   -0.0224735
n     5.3618693    1.9114934   -2.1265613  0.00    0.0157633   -0.0113228   -0.0221367
h     3.3048870    2.4321799   -2.0251474  0.00    0.0003143    0.0028568   -0.0008618
h     5.8882499    1.9994343   -1.2258977  0.00   -0.0004736   -0.0002222    0.0014797
h     5.8247520    1.1513749   -2.6890458  0.00   -0.0643516   -0.0378877   -0.0479729
h    -2.1915561    2.8598727    0.3803200  0.00   -0.0007583    0.0000748    0.0000675
h    -1.9662211    0.4003721    0.3132498  0.00   -0.0018875   -0.0001002    0.0000497
h    -0.2002775    4.2840650    0.1899694  0.00    0.0002434    0.0003019    0.0000977
h     2.0241927    3.2747280   -0.0839948  0.00    0.0007254    0.0009287   -0.0000240
h     2.5084506   -1.6867748   -0.4100574  0.00   -0.0071631   -0.0037173    0.0004133
o     2.2333480    0.0889867   -3.0872524  0.00    0.0455183    0.0121476    0.0173639
o     4.4673571    0.1746495   -3.9190557  0.00    0.0638496    0.0296794    0.0872460
h     4.2987090    0.7097060   -4.7809707  0.00    0.0000367    0.0256690   -0.0197811
    27
 Energy =       0.2155531845
c    -1.1631118    2.4382351    0.3434843  0.00   -0.0084471    0.0056344    0.0003343
c    -1.0587114    1.0735176    0.3242264  0.00   -0.0146694   -0.0057717   -0.0000575
c     0.1733703    0.5280442    0.1564151  0.00   -0.0136940   -0.0270942   -0.0002452
c    -0.0463414    3.2225718    0.1952257  0.00   -0.0033170    0.0119027    0.0003901
c     1.1854104    2.6493926    0.0160863  0.00    0.0028980    0.0104672    0.0000223
c     1.2728141    1.2860772   -0.0069796  0.00    0.0087318    0.0093046    0.0005701
n     0.5047244   -0.8454278    0.0961964  0.00    0.0189509    0.0152993   -0.0001725
c     2.3424785    0.4741583   -0.2114597  0.00    0.0254056   -0.0127935   -0.0007936
c     1.9054067   -0.8048482   -0.1735832  0.00   -0.0116956   -0.0134168   -0.0015357
h    -0.1159387   -1.6739589    0.2202233  0.00    0.0028154    0.0039222    0.0004444
c     3.7583255    0.9068866   -0.5345430  0.00   -0.0077348    0.0012889   -0.0032335
c     3.9107162    1.4988152   -1.9630908  0.00   -0.0008448    0.0076415    0.0063406
h     4.4525196    0.0405305   -0.4202451  0.00    0.0025663   -0.0020336    0.0011050
h     4.0649562    1.6678294    0.2185141  0.00   -0.0006136    0.0009850    0.0025302
c     3.4650399    0.5259205   -3.0505556  0.00   -0.0368242   -0.0155547   -0.0175091
n     5.3187775    1.9083630   -2.2076564  0.00    0.0131181   -0.0089489   -0.0184079
h     3.2568234    2.3930908   -2.0744555  0.00    0.0001349    0.0024578   -0.0008400
h     5.8594186    2.0164538   -1.3174812  0.00   -0.0000031   -0.0000962    0.0016233
h     5.7903518    1.1546534   -2.7734582  0.00   -0.0528021   -0.0316840   -0.0397293
h    -2.1377701    2.9024587    0.4770792  0.00   -0.0009603    0.0000834    0.0000920
h    -1.9346235    0.4411184    0.4379200  0.00   -0.0020672   -0.0004050    0.0001075
h    -0.1399381    4.3059456    0.2134430  0.00    0.0002576    0.0003952    0.0000603
h     2.0666869    3.2731409   -0.1082291  0.00    0.0010784    0.0010665   -0.0000815
h     2.5028294   -1.6878224   -0.3846003  0.00   -0.0056973   -0.0030376    0.0002729
o     2.2197023   -0.0492669   -3.0502687  0.00    0.0261467    0.0053236    0.0159933
o     4.3933616    0.1987425   -4.0288084  0.00    0.0583837    0.0208305    0.0738493
h     4.1399559    0.7088807   -4.8846676  0.00   -0.0011169    0.0242331   -0.0211299
    27
 Energy =       0.2152196121
c    -1.1130719    2.4949262    0.4103871  0.00   -0.0078562    0.0043404    0.0004063
c    -1.0223990    1.1298050    0.4205638  0.00   -0.0127668   -0.0053103   -0.0000112
c     0.1975264    0.5685160    0.2279684  0.00   -0.0115790   -0.0226351   -0.0003108
c     0.0062374    3.2639872    0.2089485  0.00   -0.0021766    0.0105526    0.0002532
c     1.2254837    2.6742858    0.0045567  0.00    0.0030377    0.0091481   -0.0000315
c     1.2974232    1.3109069    0.0114249  0.00    0.0077794    0.0079455    0.0004642
n     0.5118842   -0.8109980    0.1947897  0.00    0.0146605    0.0124834    0.0002381
c     2.3508786    0.4858325   -0.2078349  0.00    0.0211248   -0.0099302   -0.0001933
c     1.9053544   -0.7878655   -0.1217094  0.00   -0.0093266   -0.0117135   -0.0014222
h    -0.1123943   -1.6310996    0.3613748  0.00    0.0013550    0.0020628    0.0006376
c     3.7601482    0.8956159   -0.5910046  0.00   -0.0056108    0.0004960   -0.0024108
c     3.8708498    1.4469820   -2.0409552  0.00   -0.0004768    0.0063068    0.0050296
h     4.4495881    0.0261586   -0.4763462  0.00    0.0022161   -0.0016724    0.0008546
h     4.0986058    1.6731345    0.1316557  0.00   -0.0001556    0.0015201    0.0028197
c     3.4058252    0.4416796   -3.0915027  0.00   -0.0253328   -0.0087385   -0.0156160
n     5.2716962    1.8480223   -2.3301543  0.00    0.0046716   -0.0012450   -0.0205198
h     3.2121948    2.3363367   -2.1607914  0.00    0.0001962    0.0021433   -0.0008059
h     5.8089356    2.0678056   -1.4516118  0.00    0.0043871    0.0024395    0.0101869
h     5.7493958    1.0321435   -2.8109575  0.00   -0.0413724   -0.0346662   -0.0373885
h    -2.0788440    2.9719368    0.5633882  0.00   -0.0011734    0.0000452    0.0001332
h    -1.9003872    0.5084705    0.5773098  0.00   -0.0025377   -0.0009387    0.0002231
h    -0.0759615    4.3486927    0.2045100  0.00    0.0003665    0.0006904    0.0000214
h     2.1091810    3.2857829   -0.1624584  0.00    0.0017184    0.0014845   -0.0001899
h     2.4905674   -1.6789088   -0.3348544  0.00   -0.0046067   -0.0025886    0.0001432
o     2.1914456   -0.2080200   -3.0028329  0.00    0.0135222    0.0001106    0.0138004
o     4.2969526    0.1277156   -4.1088068  0.00    0.0544160    0.0118855    0.0690454
h     4.0801180    0.7316580   -4.9163257  0.00   -0.0044798    0.0257840   -0.0253569
    27
 Energy =       0.2147618047
c    -1.0634326    2.5618007    0.4585238  0.00   -0.0070400    0.0033531    0.0004486
c    -0.9955459    1.1964354    0.4905045  0.00   -0.0108510   -0.0046250    0.0000582
c     0.2082758    0.6111132    0.2774159  0.00   -0.0094217   -0.0183222   -0.0003114
c     0.0633249    3.3073030    0.2159013  0.00   -0.0014785    0.0091026    0.0001606
c     1.2661685    2.6929547   -0.0084865  0.00    0.0030144    0.0076955   -0.0001005
c     1.3137422    1.3298072    0.0203714  0.00    0.0067204    0.0065310    0.0003466
n     0.4962854   -0.7754676    0.2638128  0.00    0.0111865    0.0097558    0.0004395
c     2.3463316    0.4846455   -0.2081245  0.00    0.0172849   -0.0074463    0.0000450
c     1.8841943   -0.7795337   -0.0832244  0.00   -0.0072077   -0.0099857   -0.0012368
h    -0.1378158   -1.5823865    0.4603566  0.00    0.0004792    0.0009378    0.0006933
c     3.7549686    0.8606761   -0.6294089  0.00   -0.0040348    0.0002900   -0.0021678
c     3.8479765    1.3879326   -2.0902349  0.00   -0.0003261    0.0051218    0.0038896
h     4.4294387   -0.0201820   -0.5161196  0.00    0.0019382   -0.0014430    0.0006126
h     4.1236779    1.6417429    0.0744159  0.00    0.0000653    0.0016562    0.0026390
c     3.3602548    0.3739177   -3.1234673  0.00   -0.0183811   -0.0023514   -0.0121120