    24
 Energy =       3.5701407306
c     0.0448833    2.3534058   -1.3813971  0.00   -0.0491465    0.0740050   -0.0492943
c     0.1418476    2.9248573   -0.1206726  0.00   -0.0484220    0.0976915   -0.0126310
c     0.7555652    2.2402731    0.9181560  0.00   -0.0005267    0.0524452    0.0795547
c     0.5800579    1.0803682   -1.5985351  0.00   -0.0536691   -0.2419087   -0.2361025
c     1.2047783    0.3610782   -0.5608861  0.00    0.0731189   -0.1008336    0.0438386
c     1.2772621    0.9610456    0.7017654  0.00    0.0232069   -0.0358809    0.0370927
o    -0.3596449    4.1638607    0.1435223  0.00   -0.0062408   -0.0137043   -0.0387371
h    -0.7857423    4.5034896   -0.6604687  0.00    0.0400244   -0.0560512    0.0424180
h     1.7275121    0.4624698    1.5506282  0.00   -0.0058321    0.0139372    0.0065797
h     0.4997167    0.6426498   -2.5929302  0.00   -7.8777579  -32.8640874   -7.7927591
h    -0.4370006    2.8749235   -2.2021886  0.00   -0.0004475   -0.0018105   -0.0017938
h     0.8245662    2.6993933    1.9006814  0.00    0.0033914   -0.0021320    0.0034876
c     1.7669373   -1.0073413   -0.8964724  0.00   -0.0723550   -0.0288328    0.0014632
c     0.8861134   -2.0194266   -1.6556448  0.00    0.1442508    0.0558235    0.0267602
h     2.1212937   -1.4658931    0.0371405  0.00   -0.0054726    0.0114844   -0.0100010
h     2.6645729   -0.8285312   -1.5058794  0.00   -0.0103987    0.0008231    0.0068731
c    -0.2550706   -2.4993401   -0.7313897  0.00   -0.2670534   -0.2947065   -0.0409253
o    -0.8587891   -3.5562519   -0.8247086  0.00    0.1463161    0.2476797    0.0296311
o    -0.5457168   -1.5582366    0.2075950  0.00    0.0700013    0.0339145   -0.0558894
h    -1.4556182   -1.2376649   -0.0182350  0.00    0.0361265   -0.0088814   -0.0131717
n     0.2410616   -1.4915667   -2.9017470  0.00   -0.0843540    0.0719936   -0.0205906
h     1.4642165   -2.9122299   -1.9206526  0.00   -0.0132799    0.0143584   -0.0018754
h    -0.7513888   -1.7528500   -2.8797219  0.00    0.0406200    0.0031786    0.0386356
h     0.2327904   -0.4700704   -2.8568985  0.00    7.9178998   32.9714948    7.9574365
    24
 Energy =       1.9351197922
c     0.1174933    2.3803706   -1.3872106  0.00   -0.0171027    0.0231784   -0.0138463
c     0.1723869    2.9043389   -0.1232200  0.00   -0.0150213    0.0298190   -0.0050590
c     0.7328536    2.1878014    0.8920888  0.00    0.0016431    0.0166570    0.0245649
c     0.6341355    1.1343532   -1.6256636  0.00   -0.0317410   -0.0972645   -0.0897385
c     1.1683049    0.3856653   -0.5944172  0.00    0.0219616   -0.0350323    0.0183710
c     1.2220822    0.9312918    0.6634671  0.00    0.0090309   -0.0103496    0.0118350
o    -0.3263358    4.1633691    0.1665193  0.00    0.0033146   -0.0075946   -0.0073592
h    -0.8161473    4.5681690   -0.6094843  0.00    0.0089067   -0.0162826    0.0107223
h     1.6467674    0.3760629    1.4958959  0.00   -0.0006559    0.0025389    0.0027264
h     0.6412682    0.6894982   -2.6686365  0.00   -4.0270060  -16.8378474   -4.0127511
h    -0.3110490    2.9513405   -2.2062138  0.00   -0.0009424    0.0006924   -0.0022303
h     0.7757319    2.6206211    1.8875417  0.00    0.0019078   -0.0008112    0.0022135
c     1.7580592   -0.9817654   -0.8891261  0.00   -0.0335373   -0.0102551    0.0054755
c     0.8356509   -2.0110826   -1.5784399  0.00    0.0442295    0.0104620    0.0122939
h     2.1442860   -1.4300035    0.0489837  0.00   -0.0025713    0.0036967   -0.0026220
h     2.6403160   -0.8244206   -1.5429831  0.00   -0.0026878    0.0005954    0.0008865
c    -0.2669810   -2.4787947   -0.6548226  0.00   -0.0865822   -0.0762593   -0.0199691
o    -0.8406618   -3.6734472   -0.8628584  0.00    0.0505499    0.0654200   -0.0042866
o    -0.7044699   -1.6150459    0.3302871  0.00    0.0739934   -0.0010743    0.0247888
h    -1.5330911   -1.1556302   -0.0933351  0.00   -0.0298926    0.0165255   -0.0386438
n     0.2663695   -1.5273094   -2.8626323  0.00   -0.0239595    0.0100357   -0.0022611
h     1.4282314   -2.9238446   -1.7952778  0.00   -0.0042759    0.0033220   -0.0011562
h    -0.7607558   -1.7210063   -2.8937798  0.00    0.0064623    0.0008249    0.0164753
h     0.3597585   -0.4821194   -2.9456217  0.00    4.0539761   16.9090031    4.0695701
    24
 Energy =       1.3610072100
c     0.1725321    2.4036792   -1.4045863  0.00   -0.0105345    0.0130614   -0.0110262
c     0.1602339    2.8856171   -0.1237323  0.00   -0.0096362    0.0181465   -0.0035270
c     0.6722355    2.1380293    0.8906493  0.00    0.0015968    0.0101666    0.0163894
c     0.7012502    1.1715855   -1.6587231  0.00   -0.0198667   -0.0613012   -0.0587579
c     1.1913187    0.3979793   -0.6324048  0.00    0.0127571   -0.0221657    0.0090990
c     1.1813372    0.8976369    0.6431376  0.00    0.0054528   -0.0055781    0.0088984
o    -0.3690797    4.1340949    0.1849721  0.00    0.0060746   -0.0097402    0.0099749
h    -0.7550717    4.6093642   -0.6250948  0.00    0.0004092   -0.0044351   -0.0050796
h     1.5626889    0.3100018    1.4760936  0.00   -0.0002120    0.0011072    0.0034145
h     0.7109392    0.7282479   -2.7064784  0.00   -2.7033884  -11.3030864   -2.6962779
h    -0.2327465    2.9937008   -2.2210450  0.00   -0.0005362    0.0006278   -0.0016391
h     0.6547305    2.5343413    1.9040085  0.00    0.0009282    0.0000790    0.0042500
c     1.7823152   -0.9687883   -0.9383127  0.00   -0.0202245   -0.0056033    0.0035627
c     0.8179482   -1.9970887   -1.5834994  0.00    0.0267057    0.0068480    0.0070189
h     2.2079476   -1.4141748   -0.0130890  0.00   -0.0011410    0.0017446   -0.0008833
h     2.6402325   -0.8173600   -1.6283924  0.00   -0.0007463    0.0005904    0.0001530
c    -0.2416148   -2.4785414   -0.6114526  0.00   -0.0516433   -0.0454058   -0.0123864
o    -0.8235476   -3.6936025   -0.7974495  0.00    0.0304004    0.0383899   -0.0025349
o    -0.6703343   -1.6373926    0.3999041  0.00    0.0553716   -0.0080123    0.0215052
h    -1.5713663   -1.2541120    0.0654181  0.00   -0.0296690    0.0166258   -0.0300127
n     0.2104042   -1.5091803   -2.8489814  0.00   -0.0010173   -0.0059580   -0.0038933
h     1.4058910   -2.9088853   -1.8261880  0.00   -0.0019477    0.0019773   -0.0011938
h    -0.8445335   -1.5766457   -2.8024891  0.00   -0.0143436   -0.0004521    0.0105122
h     0.4204936   -0.4800943   -2.9912041  0.00    2.7252103   11.3623735    2.7324336
    24
 Energy =       0.9029565629
c     0.1793806    2.4316213   -1.4094047  0.00   -0.0055085    0.0069514   -0.0055636
c     0.1692926    2.9068665   -0.1302807  0.00   -0.0052049    0.0091912   -0.0018715
c     0.6578576    2.1422029    0.8784955  0.00    0.0008220    0.0049342    0.0087654
c     0.6898896    1.1973093   -1.6687416  0.00   -0.0102652   -0.0349100   -0.0331927
c     1.1796957    0.4197116   -0.6541399  0.00    0.0061560   -0.0114603    0.0047128
c     1.1605299    0.9038912    0.6232302  0.00    0.0025551   -0.0028191    0.0048239
o    -0.3358044    4.1694701    0.1794514  0.00    0.0037215   -0.0051429    0.0064007
h    -0.6888868    4.6728932   -0.6288511  0.00   -0.0001237   -0.0012843   -0.0035552
h     1.5334838    0.3039396    1.4502773  0.00   -0.0004628    0.0003903    0.0019915
h     0.6614009    0.7485493   -2.7057914  0.00   -1.6827752   -7.0303524   -1.6770796
h    -0.2212148    3.0294764   -2.2214497  0.00   -0.0000314    0.0005935   -0.0007896
h     0.6347678    2.5297173    1.8934338  0.00    0.0002294   -0.0000725    0.0024268
c     1.7905030   -0.9382228   -0.9695292  0.00   -0.0108424   -0.0024422    0.0020110
c     0.8212730   -1.9902773   -1.5738311  0.00    0.0141325    0.0034437    0.0040114
h     2.2541197   -1.3704222   -0.0546178  0.00   -0.0004248    0.0004829    0.0002192
h     2.6247049   -0.7773347   -1.6875286  0.00    0.0001785    0.0006728   -0.0001255
c    -0.2146969   -2.4761050   -0.5746640  0.00   -0.0223577   -0.0011466   -0.0094942
o    -0.6674984   -3.7868405   -0.6386964  0.00    0.0106683   -0.0055746   -0.0024438
o    -0.7087057   -1.6197468    0.3971184  0.00    0.0591250   -0.0120782    0.0251146
h    -1.6928638   -1.4082140    0.1314176  0.00   -0.0446840    0.0173639   -0.0265389
n     0.2098389   -1.5404811   -2.8505088  0.00    0.0024796   -0.0046855   -0.0026720
h     1.4242042   -2.8981862   -1.8009316  0.00   -0.0005914    0.0010247   -0.0010461
h    -0.8371813   -1.6763840   -2.8330432  0.00   -0.0118374    0.0002877    0.0057139
h     0.3601137   -0.5050217   -3.0003536  0.00    1.6950415    7.0666323    1.6981814
    24
 Energy =       0.7904279832
c     0.1646797    2.4370045   -1.4313867  0.00   -0.0046083    0.0058410   -0.0046810
c     0.1523969    2.9080359   -0.1513775  0.00   -0.0043487    0.0077070   -0.0015810
c     0.6439928    2.1419141    0.8543723  0.00    0.0006876    0.0041694    0.0073563
c     0.6805768    1.2066775   -1.6941317  0.00   -0.0086640   -0.0295471   -0.0280899
c     1.1751611    0.4297882   -0.6840195  0.00    0.0050070   -0.0095924    0.0039225
c     1.1530165    0.9074375    0.5946801  0.00    0.0021560   -0.0023037    0.0040638
o    -0.3595279    4.1676098    0.1618536  0.00    0.0031212   -0.0042687    0.0053791
h    -0.7135645    4.6735698   -0.6441890  0.00   -0.0000891   -0.0010683   -0.0029988
h     1.5296345    0.3051624    1.4183431  0.00   -0.0004084    0.0003137    0.0016809
h     0.6515517    0.7568739   -2.7283674  0.00   -1.4335757   -5.9895834   -1.4286157
h    -0.2402137    3.0347307   -2.2412519  0.00   -0.0000149    0.0005099   -0.0006746
h     0.6188300    2.5258083    1.8703296  0.00    0.0001924   -0.0000526    0.0020392
c     1.7938111   -0.9209568   -1.0095941  0.00   -0.0090085   -0.0018102    0.0015519
c     0.8147564   -1.9849841   -1.5778758  0.00    0.0162572    0.0052464    0.0057979
h     2.2937144   -1.3417572   -0.1074301  0.00    0.0000527    0.0001223    0.0007999
h     2.6033616   -0.7546641   -1.7550937  0.00    0.0006172    0.0007135   -0.0005389
c    -0.1399047   -2.5226060   -0.5194267  0.00   -0.0188418   -0.0004540   -0.0052164
o    -0.5311687   -3.8561624   -0.5523412  0.00    0.0070880   -0.0077821   -0.0008739
o    -0.6255048   -1.6895781    0.4777575  0.00    0.0494299   -0.0106502    0.0223210
h    -1.6143718   -1.4905314    0.2408173  0.00   -0.0381477    0.0148474   -0.0225377
n     0.1076296   -1.5249864   -2.8065044  0.00    0.0126729   -0.0118529   -0.0104077
h     1.4289968   -2.8710790   -1.8632854  0.00    0.0012311   -0.0003178   -0.0012338
h    -0.9500444   -1.5565991   -2.6742901  0.00   -0.0294401   -0.0008400    0.0060470
h     0.3463945   -0.5122957   -3.0265275  0.00    1.4486338    6.0306527    1.4464898
    24
 Energy =       0.7559246543
c     0.1174333    2.4377770   -1.4154423  0.00   -0.0044641    0.0057379   -0.0045450
c     0.1151513    2.8978735   -0.1314982  0.00   -0.0041306    0.0073103   -0.0015968
c     0.6327366    2.1310424    0.8609411  0.00    0.0006747    0.0039463    0.0071534
c     0.6488991    1.2179550   -1.6951419  0.00   -0.0082048   -0.0278683   -0.0267653
c     1.1705971    0.4413722   -0.6992515  0.00    0.0047019   -0.0091832    0.0038336
c     1.1583026    0.9070812    0.5837451  0.00    0.0021520   -0.0023954    0.0039565
o    -0.4141996    4.1461296    0.1994105  0.00    0.0028606   -0.0037904    0.0053075
h    -0.7866045    4.6538506   -0.5973680  0.00   -0.0002334   -0.0007778   -0.0030724
h     1.5564509    0.3035553    1.3966370  0.00   -0.0002731    0.0001001    0.0017952
h     0.6086623    0.7727993   -2.7303704  0.00   -1.3554229   -5.6630070   -1.3507980
h    -0.3095375    3.0350508   -2.2145607  0.00   -0.0001432    0.0006833   -0.0008486
h     0.6149483    2.5058517    1.8804497  0.00    0.0001823   -0.0000357    0.0020109
c     1.8070626   -0.8950846   -1.0478486  0.00   -0.0085622   -0.0017987    0.0014047
c     0.8333702   -1.9737164   -1.5978959  0.00    0.0167617    0.0059447    0.0063189
h     2.3385984   -1.3110704   -0.1608855  0.00    0.0003800   -0.0001912    0.0011827
h     2.5948179   -0.7092576   -1.8126965  0.00    0.0010400    0.0007932   -0.0008761
c    -0.0663500   -2.5506621   -0.5104926  0.00   -0.0172001    0.0032288   -0.0044044
o    -0.3724156   -3.9101563   -0.5070992  0.00    0.0047694   -0.0128902   -0.0001765
o    -0.5713592   -1.7327237    0.4899395  0.00    0.0486112   -0.0097646    0.0219793
h    -1.5446381   -1.5008013    0.2216688  0.00   -0.0378745    0.0139426   -0.0218869
n     0.0708121   -1.5128140   -2.7941894  0.00    0.0121389   -0.0103870   -0.0119692
h     1.4596468   -2.8401571   -1.9188320  0.00    0.0019451   -0.0008357   -0.0013026
h    -0.9803073   -1.5436047   -2.6183291  0.00   -0.0294259   -0.0007922    0.0057548
h     0.3021260   -0.5018779   -3.0298290  0.00    1.3697170    5.7020301    1.3675440
    24
 Energy =       0.7067305140
c     0.0700817    2.4344254   -1.3997130  0.00   -0.0042143    0.0054887   -0.0043267
c     0.0811669    2.8852747   -0.1127434  0.00   -0.0038305    0.0067599   -0.0015850
c     0.6271136    2.1195210    0.8655382  0.00    0.0006613    0.0035875    0.0068008
c     0.6159447    1.2252553   -1.6963029  0.00   -0.0075695   -0.0254808   -0.0248444
c     1.1673760    0.4510543   -0.7157455  0.00    0.0043013   -0.0086147    0.0037041
c     1.1684188    0.9063794    0.5707503  0.00    0.0020966   -0.0024303    0.0037851
o    -0.4645946    4.1221293    0.2356869  0.00    0.0025466   -0.0032843    0.0051102
h    -0.8569862    4.6304902   -0.5512057  0.00   -0.0003990   -0.0004565   -0.0031047
h     1.5899084    0.3029484    1.3722168  0.00   -0.0001237   -0.0001254    0.0018917
h     0.5616665    0.7837416   -2.7309259  0.00   -1.2464884   -5.2078492   -1.2422776
h    -0.3809074    3.0297105   -2.1873994  0.00   -0.0002864    0.0008525   -0.0010355
h     0.6192269    2.4864734    1.8880014  0.00    0.0001610   -0.0000281    0.0019424
c     1.8185050   -0.8717478   -1.0874250  0.00   -0.0079242   -0.0017074    0.0013135
c     0.8471993   -1.9644196   -1.6137508  0.00    0.0165728    0.0064060    0.0064761
h     2.3832849   -1.2811924   -0.2172978  0.00    0.0007417   -0.0004775    0.0015796
h     2.5813544   -0.6693664   -1.8738470  0.00    0.0014466    0.0008684   -0.0012172
c     0.0027078   -2.5704704   -0.4966484  0.00   -0.0154980    0.0072729   -0.0038682
o    -0.2136624   -3.9497123   -0.4512289  0.00    0.0027624   -0.0180345    0.0006076
o    -0.5228387   -1.7633762    0.5025649  0.00    0.0494903   -0.0093395    0.0221521
h    -1.4682436   -1.4744021    0.1905367  0.00   -0.0392924    0.0134288   -0.0218030
n     0.0332937   -1.5082754   -2.7788142  0.00    0.0110644   -0.0090032   -0.0128159
h     1.4805749   -2.8144285   -1.9652545  0.00    0.0024163   -0.0010852   -0.0013206
h    -1.0094484   -1.5424119   -2.5635372  0.00   -0.0283111   -0.0007481    0.0053951
h     0.2530615   -0.4991883   -3.0323951  0.00    1.2596763    5.2439999    1.2574407
    24
 Energy =       0.6277833874
c     0.0220742    2.4264257   -1.3862994  0.00   -0.0037297    0.0049365   -0.0038697
c     0.0473866    2.8697038   -0.0973642  0.00   -0.0033329    0.0058422   -0.0015031
c     0.6236263    2.1075424    0.8663289  0.00    0.0006064    0.0030101    0.0060699
c     0.5830331    1.2288560   -1.6990859  0.00   -0.0065359   -0.0217665   -0.0216655
c     1.1662231    0.4598892   -0.7346672  0.00    0.0036765   -0.0076508    0.0034255
c     1.1817545    0.9063061    0.5543967  0.00    0.0019170   -0.0023440    0.0034103
o    -0.5160150    4.0943610    0.2677624  0.00    0.0020784   -0.0026310    0.0046217
h    -0.9300324    4.6015926   -0.5088269  0.00   -0.0005770   -0.0001034   -0.0029899
h     1.6278533    0.3047003    1.3441044  0.00    0.0000238   -0.0003419    0.0018873
h     0.5140354    0.7901328   -2.7310907  0.00   -1.0764038   -4.4974609   -1.0727135
h    -0.4545068    3.0175462   -2.1622795  0.00   -0.0004265    0.0009798   -0.0011809
h     0.6261597    2.4678074    1.8910673  0.00    0.0001060   -0.0000272    0.0017535
c     1.8297886   -0.8497561   -1.1285845  0.00   -0.0068556   -0.0014189    0.0012401
c     0.8583241   -1.9571456   -1.6233180  0.00    0.0150950    0.0063965    0.0060441
h     2.4302441   -1.2495173   -0.2772245  0.00    0.0011290   -0.0007146    0.0019540
h     2.5636353   -0.6342867   -1.9394964  0.00    0.0018060    0.0009315   -0.0015355
c     0.0691841   -2.5805959   -0.4743994  0.00   -0.0134295    0.0108483   -0.0034818
o    -0.0549093   -3.9714788   -0.3812325  0.00    0.0012233   -0.0221479    0.0014164
o    -0.4801671   -1.7798336    0.5179236  0.00    0.0502563   -0.0095488    0.0225092
h    -1.3816521   -1.4153257    0.1561697  0.00   -0.0409191    0.0134575   -0.0219194
n    -0.0027977   -1.5130515   -2.7592712  0.00    0.0091861   -0.0075598   -0.0125088
h     1.4944702   -2.7948734   -1.9989990  0.00    0.0025470   -0.0010525   -0.0012321
h    -1.0352289   -1.5532339   -2.5084496  0.00   -0.0252760   -0.0006736    0.0047447
h     0.2017206   -0.5073527   -3.0361033  0.00    1.0878353    4.5290393    1.0855234
    24
 Energy =       0.3602344975
c     0.0162907    2.4024968   -1.4247809  0.00   -0.0009817    0.0013851   -0.0010732
c     0.0259788    2.8540148   -0.1410410  0.00   -0.0008621    0.0014484   -0.0004330
c     0.6118180    2.1091309    0.8272880  0.00   -0.0000078    0.0008681    0.0016691
c     0.5980761    1.2151357   -1.7268925  0.00   -0.0024479   -0.0094010   -0.0092590
c     1.1907731    0.4655989   -0.7605909  0.00    0.0010157   -0.0022752    0.0009503
c     1.1939921    0.9186553    0.5241102  0.00    0.0004196   -0.0009860    0.0009413
o    -0.5660601    4.0702389    0.2120599  0.00    0.0001344   -0.0003256    0.0013785
h    -0.9904956    4.5644210   -0.5661778  0.00   -0.0004415    0.0001264   -0.0010197
h     1.6447515    0.3271970    1.3174872  0.00   -0.0001283   -0.0001359    0.0005817
h     0.5390975    0.7748945   -2.7454478  0.00   -0.5228912   -2.1902237   -0.5192138
h    -0.4690547    2.9783096   -2.2057244  0.00   -0.0001769    0.0003653   -0.0004817
h     0.6006526    2.4746516    1.8490629  0.00   -0.0002411    0.0000612    0.0005463
c     1.8530855   -0.8474091   -1.1410115  0.00   -0.0017945    0.0011276    0.0007514
c     0.8618918   -1.9684878   -1.5645636  0.00    0.0037996    0.0013092    0.0020121
h     2.4831108   -1.2190737   -0.2995366  0.00    0.0007441   -0.0002987    0.0013539
h     2.5560475   -0.6551280   -1.9837268  0.00    0.0012835    0.0007376   -0.0011671
c     0.0741626   -2.5207253   -0.3783494  0.00   -0.0027508    0.0018377   -0.0006704
o    -0.0663687   -3.8965881   -0.2224794  0.00    0.0001749   -0.0085461   -0.0000438
o    -0.4999332   -1.6731488    0.5626053  0.00    0.0143749   -0.0001838    0.0074519
h    -1.3601158   -1.2913363    0.1764296  0.00   -0.0129432    0.0033890   -0.0050910
n     0.0086484   -1.5771542   -2.7213945  0.00    0.0016389   -0.0039824   -0.0045366
h     1.4832786   -2.8347590   -1.8964262  0.00    0.0012435   -0.0014448   -0.0010471
h    -1.0129637   -1.6059268   -2.4721409  0.00   -0.0066151   -0.0001717    0.0011775
h     0.2075400   -0.5965955   -3.0676985  0.00    0.5274527    2.2053192    0.5252224
    24
 Energy =       0.2489853754
c     0.0909324    2.4122977   -1.4467612  0.00   -0.0006987    0.0010801   -0.0004878
c     0.1228237    2.8693021   -0.1656364  0.00   -0.0003175    0.0004072   -0.0002507
c     0.6871286    2.1087594    0.8024771  0.00   -0.0002196    0.0008756    0.0009651
c     0.6295725    1.2039203   -1.7476191  0.00   -0.0011174   -0.0063094   -0.0056402
c     1.2018399    0.4391166   -0.7805424  0.00    0.0005313   -0.0010227    0.0005490
c     1.2264831    0.8977491    0.5016691  0.00    0.0005203   -0.0010401    0.0003794
o    -0.4225329    4.1091748    0.1843135  0.00   -0.0004883    0.0011766    0.0011385
h    -0.8317425    4.6160571   -0.5936922  0.00   -0.0003939    0.0003875   -0.0005885
h     1.6609571    0.2945134    1.2952387  0.00    0.0000645   -0.0002912    0.0003313
h     0.5591723    0.7774159   -2.7655958  0.00   -0.3044940   -1.2745262   -0.3020070
h    -0.3755350    3.0033438   -2.2278196  0.00   -0.0002501    0.0004477   -0.0003357
h     0.6948189    2.4795166    1.8222838  0.00   -0.0001773    0.0002214    0.0003973
c     1.8156953   -0.8999809   -1.1525601  0.00    0.0001318    0.0004339    0.0008363
c     0.7776781   -1.9914048   -1.5383823  0.00    0.0014344    0.0013460    0.0005328
h     2.4491296   -1.2796857   -0.3182361  0.00    0.0004929   -0.0001029    0.0006375
h     2.5085969   -0.7450962   -2.0109271  0.00    0.0012212    0.0004032   -0.0011045
c    -0.0101473   -2.4937676   -0.3305824  0.00   -0.0016543    0.0009825   -0.0006648
o    -0.1763735   -3.8596831   -0.1338393  0.00   -0.0000534   -0.0053016    0.0001237
o    -0.5727694   -1.6097190    0.5831002  0.00    0.0071374   -0.0000104    0.0056485
h    -1.4490863   -1.2671731    0.2065551  0.00   -0.0068739    0.0021651   -0.0034396
n    -0.0823500   -1.5843849   -2.6817010  0.00    0.0121255   -0.0152887   -0.0035242
h     1.3600088   -2.8850031   -1.8683833  0.00    0.0011807   -0.0014657   -0.0009518
h    -1.0928809   -1.4740367   -2.3811336  0.00   -0.0197660    0.0006907    0.0059163
h     0.2127844   -0.6528192   -3.1011652  0.00    0.3116646    1.2947413    0.3015392
    24
 Energy =       0.1350004924
c     0.1448674    2.4332001   -1.4405681  0.00   -0.0000964    0.0000999   -0.0003844
c     0.1693364    2.8609114   -0.1496994  0.00   -0.0000423    0.0000672   -0.0000667
c     0.7032655    2.0678616    0.8086808  0.00    0.0002590   -0.0003857    0.0004007
c     0.6603862    1.2211797   -1.7624935  0.00   -0.0006512   -0.0024525   -0.0019249
c     1.2048915    0.4245746   -0.8036591  0.00   -0.0000549   -0.0001489    0.0000409
c     1.2204489    0.8540198    0.4886007  0.00    0.0001606   -0.0001505    0.0004422
o    -0.3509093    4.1052024    0.2191183  0.00    0.0001986   -0.0002022    0.0004387
h    -0.7370051    4.6386712   -0.5529455  0.00   -0.0003603    0.0005082   -0.0006318
h     1.6307399    0.2245940    1.2749914  0.00    0.0002373   -0.0003195    0.0004460
h     0.6055107    0.8443714   -2.7924226  0.00   -0.0956896   -0.3985585   -0.0948155
h    -0.2942008    3.0536142   -2.2149752  0.00   -0.0003011    0.0003564   -0.0005761
h     0.7059187    2.4156187    1.8363677  0.00    0.0000910   -0.0000275    0.0002576
c     1.7933911   -0.9203719   -1.1874939  0.00    0.0001627   -0.0000696    0.0003769
c     0.7293703   -1.9941179   -1.5365433  0.00    0.0000290    0.0012789    0.0001721
h     2.4458504   -1.3048787   -0.3708598  0.00    0.0001585    0.0000403    0.0001189
h     2.4629579   -0.7797598   -2.0648659  0.00    0.0001189   -0.0001015   -0.0001576
c    -0.0348359   -2.4712638   -0.3056450  0.00    0.0013375    0.0028463   -0.0012098
o    -0.1280707   -3.8315884   -0.0333888  0.00   -0.0005618   -0.0057656    0.0004909
o    -0.6471284   -1.5700781    0.5581554  0.00    0.0011881    0.0012134    0.0019495
h    -1.5388083   -1.2964995    0.1707876  0.00   -0.0019146    0.0013209   -0.0011304
n    -0.1529875   -1.5716403   -2.6526451  0.00    0.0102535   -0.0116731   -0.0018162
h     1.2839314   -2.8986462   -1.8784494  0.00    0.0002034    0.0000728   -0.0001667
h    -1.1162967   -1.3152836   -2.3011950  0.00   -0.0154786    0.0006241    0.0052939
h     0.2235803   -0.7212784   -3.1577918  0.00    0.1007524    0.4114267    0.0924516
    24
 Energy =       0.1233114280
c     0.1398562    2.4390174   -1.4600415  0.00   -0.0001132   -0.0002022   -0.0017736
c     0.0984464    2.8564187   -0.1644764  0.00   -0.0001093    0.0003609    0.0004629
c     0.5969452    2.0620249    0.8124474  0.00    0.0001904    0.0000687    0.0016341
c     0.6854091    1.2360019   -1.7678635  0.00   -0.0005564   -0.0023080   -0.0028566
c     1.1944918    0.4385135   -0.7896290  0.00   -0.0000578   -0.0007675   -0.0009430
c     1.1436347    0.8570027    0.5067493  0.00    0.0002153    0.0001936    0.0018578
o    -0.4547240    4.0910213    0.1903205  0.00    0.0001904    0.0001950    0.0019938
h    -0.8108372    4.6263020   -0.5953493  0.00   -0.0005808    0.0008061   -0.0012759
h     1.5244765    0.2255964    1.3069511  0.00    0.0002688   -0.0003277    0.0010361
h     0.6823480    0.8659701   -2.8029695  0.00   -0.0764952   -0.3194692   -0.0773083
h    -0.2708408    3.0602366   -2.2497077  0.00   -0.0003645    0.0003584   -0.0010808
h     0.5471655    2.4013943    1.8430878  0.00    0.0000297    0.0003943    0.0016269
c     1.8154841   -0.8960120   -1.1576128  0.00    0.0002719    0.0001707   -0.0000422
c     0.7772134   -1.9839698   -1.5398390  0.00    0.0000904    0.0013635   -0.0002017
h     2.4518158   -1.2710580   -0.3235089  0.00    0.0004417   -0.0000317    0.0002958
h     2.5075426   -0.7432226   -2.0158601  0.00    0.0004353   -0.0001154   -0.0004997
c     0.0261821   -2.5144586   -0.3219630  0.00    0.0014448    0.0026961   -0.0012189
o    -0.0079020   -3.8823111   -0.0706994  0.00   -0.0005078   -0.0069370    0.0008014
o    -0.6194617   -1.6531078    0.5595723  0.00    0.0001751    0.0020920    0.0026552
h    -1.5140365   -1.3928985    0.1704038  0.00   -0.0016206    0.0011257   -0.0008256
n    -0.1190447   -1.5431584   -2.6368651  0.00    0.0108651   -0.0121087   -0.0025967
h     1.3505278   -2.8656512   -1.9118804  0.00    0.0005846   -0.0006087   -0.0004950
h    -1.0508838   -1.2175865   -2.2568572  0.00   -0.0166313    0.0020284    0.0057942
h     0.2903953   -0.7276532   -3.1733488  0.00    0.0818336    0.3310227    0.0729599
    24
 Energy =       0.1034906236
c     0.1364779    2.4489439   -1.4687081  0.00   -0.0000419   -0.0002843   -0.0015658
c     0.0498854    2.8494797   -0.1701791  0.00   -0.0000944    0.0003333    0.0005060
c     0.5228403    2.0467560    0.8121336  0.00    0.0000980    0.0002005    0.0014177
c     0.7016774    1.2544809   -1.7744926  0.00   -0.0004546   -0.0018478   -0.0023121
c     1.1860936    0.4491876   -0.7896903  0.00   -0.0001836   -0.0007900   -0.0011836
c     1.0886372    0.8500890    0.5092823  0.00    0.0001004    0.0003189    0.0016946
o    -0.5242771    4.0750243    0.1820403  0.00    0.0001428    0.0002046    0.0017172
h    -0.8594057    4.6173315   -0.6076952  0.00   -0.0004053    0.0005409   -0.0009562
h     1.4480975    0.2112214    1.3132914  0.00    0.0001554   -0.0001662    0.0008330
h     0.7355846    0.9028118   -2.8135540  0.00   -0.0450641   -0.1883499   -0.0461350
h    -0.2532427    3.0772881   -2.2629844  0.00   -0.0002268    0.0001766   -0.0008241
h     0.4370785    2.3725807    1.8446833  0.00   -0.0000025    0.0003923    0.0014867
c     1.8268334   -0.8765143   -1.1524133  0.00    0.0000658    0.0001660   -0.0002494
c     0.8034827   -1.9742204   -1.5431395  0.00    0.0008759    0.0014680    0.0003030
h     2.4622220   -1.2437266   -0.3141763  0.00    0.0002803   -0.0000759    0.0001218
h     2.5232660   -0.7147717   -2.0051469  0.00    0.0002470   -0.0000484   -0.0002712
c     0.0839460   -2.5443185   -0.3244575  0.00    0.0011844    0.0047828   -0.0015691
o     0.1508511   -3.9093568   -0.0558380  0.00   -0.0000220   -0.0096567    0.0013363
o    -0.6117254   -1.7193491    0.5545396  0.00    0.0001322    0.0025483    0.0025620
h    -1.5125170   -1.4967328    0.1565210  0.00   -0.0018403    0.0009890   -0.0005973
n    -0.1220436   -1.5170241   -2.6072172  0.00    0.0103903   -0.0129994   -0.0041345
h     1.3834932   -2.8370046   -1.9485696  0.00    0.0008007   -0.0007401   -0.0005343
h    -0.9961008   -1.0937544   -2.1858782  0.00   -0.0172120    0.0047277    0.0072899
h     0.3230493   -0.7600093   -3.1972905  0.00    0.0510742    0.1981099    0.0410645
    24
 Energy =       0.0885783806
c     0.1331931    2.4610265   -1.4703757  0.00    0.0000170   -0.0002567   -0.0011359
c     0.0068599    2.8401522   -0.1691628  0.00   -0.0000606    0.0002253    0.0004275
c     0.4593424    2.0261891    0.8129191  0.00   -0.0000008    0.0002564    0.0009911
c     0.7172443    1.2765148   -1.7795878  0.00   -0.0002953   -0.0015687   -0.0017483
c     1.1829291    0.4607016   -0.7938173  0.00   -0.0001468   -0.0006505   -0.0011682
c     1.0443476    0.8396980    0.5074845  0.00    0.0000041    0.0002627    0.0012114
o    -0.5878424    4.0549252    0.1858258  0.00    0.0000445    0.0002223    0.0012456
h    -0.9054864    4.6068256   -0.6041257  0.00   -0.0002278    0.0003008   -0.0005975
h     1.3859367    0.1908325    1.3110616  0.00    0.0000594   -0.0000551    0.0005565
h     0.7825778    0.9486917   -2.8222784  0.00   -0.0234143   -0.0968123   -0.0241091
h    -0.2396637    3.0989496   -2.2647415  0.00   -0.0001039    0.0000499   -0.0005149
h     0.3412685    2.3344883    1.8473444  0.00   -0.0000415    0.0003281    0.0011329
c     1.8402472   -0.8563915   -1.1559034  0.00   -0.0000243    0.0000561   -0.0002122
c     0.8283060   -1.9657630   -1.5401466  0.00    0.0005424    0.0010262    0.0003819
h     2.4834323   -1.2130859   -0.3190482  0.00    0.0001860   -0.0001102    0.0000475
h     2.5317592   -0.6880054   -2.0111070  0.00    0.0001151    0.0000132   -0.0000963
c     0.1337863   -2.5525040   -0.3161585  0.00    0.0008577    0.0062586   -0.0027106
o     0.3096042   -3.8991609   -0.0009645  0.00    0.0011743   -0.0118384    0.0013757
o    -0.6302915   -1.7556206    0.5326297  0.00    0.0012766    0.0035513    0.0035313
h    -1.5339549   -1.5928245    0.1099621  0.00   -0.0036401    0.0010660   -0.0012997
n    -0.1185927   -1.5090440   -2.5828080  0.00    0.0061043   -0.0091739   -0.0025719
h     1.4121983   -2.8176570   -1.9614542  0.00    0.0004687   -0.0002819   -0.0002965
h    -0.9383053   -1.0119910   -2.1430181  0.00   -0.0107887    0.0037456    0.0053950
h     0.3453079   -0.8085350   -3.2214689  0.00    0.0278938    0.1033852    0.0201649
    24
 Energy =       0.0800333648
c     0.1152438    2.4708057   -1.4715794  0.00    0.0000030   -0.0001043   -0.0005898
c    -0.0354201    2.8303683   -0.1680174  0.00   -0.0000101    0.0000775    0.0002849