    24
 Energy =       0.1943157412
c     1.6703672    2.6182922    0.2614132  0.00    0.0361830    0.0888851    0.0344142
c     0.3248649    2.9356558    0.1418766  0.00   -0.0042048    0.1040655    0.0344632
c    -0.5827484    1.9945952   -0.3219261  0.00   -0.0879242    0.0363598   -0.0019412
c     2.1038063    1.3347474   -0.0833024  0.00    0.0674989   -0.0118707    0.0076427
c     1.2047783    0.3610782   -0.5608861  0.00    0.0162852   -0.0994304   -0.0300883
c    -0.1441045    0.7159142   -0.6796715  0.00   -0.0404595   -0.0672139   -0.0509984
o    -0.1504797    4.1703171    0.4675790  0.00    0.0417063   -0.0055080    0.0029842
h     0.5965194    4.7277081    0.7407382  0.00   -0.0328173   -0.0688063   -0.0261190
h    -0.8895274    0.0262790   -1.0546636  0.00   -0.0163847   -0.2290703   -0.4403708
h     3.1621727    1.0964802    0.0165124  0.00    0.0025434   -0.0002763   -0.0005099
h     2.3926004    3.3457758    0.6178375  0.00    0.0024774   -0.0013851   -0.0005781
h    -1.6336796    2.2563998   -0.4108671  0.00   -0.0035646   -0.0039881   -0.0000757
c     1.7669373   -1.0073413   -0.8964724  0.00   -0.0303777    0.0253207   -0.0000673
c     0.8861134   -2.0194266   -1.6556448  0.00   -0.0063490    0.0153794    0.1445161
h     2.1212937   -1.4658931    0.0371405  0.00   -0.0011558    0.0106551   -0.0090300
h     2.6645729   -0.8285312   -1.5058794  0.00   -0.0117407    0.0077479    0.0124216
c     0.2877588   -1.3395944   -2.9073099  0.00    0.1307507    0.0233887   -0.3778152
o     0.8327661   -1.2278598   -3.9939237  0.00   -0.1239911   -0.0262414    0.2638785
o    -0.9441121   -0.8279107   -2.6380200  0.00    0.0560445    0.2274972    0.4869506
h    -1.5388787   -1.1994019   -3.3379720  0.00    0.0291482   -0.0080618    0.0341366
n     1.5974427   -3.2508470   -2.1301054  0.00   -0.0370244   -0.0766712   -0.0837672
h     0.0358579   -2.3311629   -1.0380560  0.00    0.0151437   -0.0061639   -0.0210357
h     1.2905400   -4.0382287   -1.5473940  0.00    0.0014461    0.0286053   -0.0216354
h     1.2573657   -3.4835548   -3.0659095  0.00   -0.0032338    0.0367828    0.0426245
    24
 Energy =       0.1694770940
c     1.5878041    2.6359992    0.2741824  0.00    0.0319214    0.0773807    0.0299245
c     0.2378381    2.9128142    0.1468856  0.00   -0.0031060    0.0899121    0.0297488
c    -0.6345572    1.9503721   -0.3277372  0.00   -0.0766413    0.0317769   -0.0017015
c     2.0594544    1.3723087   -0.0720063  0.00    0.0589539   -0.0105293    0.0066268
c     1.1952872    0.3806265   -0.5591806  0.00    0.0134387   -0.0857705   -0.0261445
c    -0.1591367    0.6908552   -0.6878662  0.00   -0.0357714   -0.0585703   -0.0445092
o    -0.2835742    4.1322456    0.4800566  0.00    0.0338927   -0.0049851    0.0023739
h     0.4377662    4.7349498    0.7479001  0.00   -0.0270176   -0.0581082   -0.0220551
h    -0.8748605   -0.0257452   -1.0774229  0.00   -0.0145122   -0.2015472   -0.3855403
h     3.1244070    1.1652944    0.0312147  0.00    0.0027453   -0.0004008   -0.0004007
h     2.2831720    3.3846263    0.6412200  0.00    0.0025714   -0.0007441   -0.0002764
h    -1.6918175    2.1838223   -0.4238536  0.00   -0.0035636   -0.0033010   -0.0000967
c     1.8096405   -0.9573106   -0.9237818  0.00   -0.0271387    0.0212308   -0.0001263
c     0.9400570   -2.0002937   -1.6493887  0.00   -0.0063482    0.0144934    0.1257739
h     2.2275170   -1.4086278   -0.0084120  0.00   -0.0000402    0.0079462   -0.0063099
h     2.6729574   -0.7336146   -1.5751963  0.00   -0.0082601    0.0074478    0.0093715
c     0.3199096   -1.3643708   -2.9109091  0.00    0.1128016    0.0204246   -0.3272560
o     0.8941813   -1.2566320   -4.0083529  0.00   -0.1066341   -0.0226186    0.2283554
o    -0.9360551   -0.8792571   -2.6824318  0.00    0.0505947    0.2037579    0.4299775
h    -1.5154068   -1.3347986   -3.3565391  0.00    0.0215239   -0.0105284    0.0249703
n     1.6972706   -3.2142281   -2.0831392  0.00   -0.0301966   -0.0660039   -0.0711255
h     0.1010951   -2.3186270   -1.0155964  0.00    0.0128723   -0.0055283   -0.0181815
h     1.4230059   -4.0010995   -1.4780454  0.00    0.0010959    0.0235840   -0.0182139
h     1.3962720   -3.4858189   -3.0265065  0.00   -0.0031819    0.0306811    0.0348150
    24
 Energy =       0.1479775441
c     1.5262749    2.6486816    0.2747153  0.00    0.0268371    0.0646186    0.0249633
c     0.1757768    2.8970684    0.1412206  0.00   -0.0022186    0.0747956    0.0247527
c    -0.6692010    1.9199539   -0.3380525  0.00   -0.0639818    0.0266287   -0.0014197
c     2.0251432    1.4018494   -0.0699681  0.00    0.0492740   -0.0089916    0.0054928
c     1.1877820    0.3990122   -0.5616763  0.00    0.0110147   -0.0714763   -0.0217482
c    -0.1682698    0.6760718   -0.6957227  0.00   -0.0302186   -0.0489127   -0.0372941
o    -0.3765243    4.1082816    0.4757280  0.00    0.0270636   -0.0045863    0.0018248
h     0.3247093    4.7456115    0.7402611  0.00   -0.0217520   -0.0474318   -0.0180787
h    -0.8625044   -0.0602687   -1.0930705  0.00   -0.0122458   -0.1713677   -0.3263464
h     3.0938004    1.2175849    0.0376517  0.00    0.0025696   -0.0004206   -0.0003142
h     2.2015223    3.4125754    0.6479990  0.00    0.0023633   -0.0003855   -0.0001125
h    -1.7300396    2.1332430   -0.4405704  0.00   -0.0032131   -0.0026597   -0.0000942
c     1.8344212   -0.9213572   -0.9349575  0.00   -0.0223587    0.0173111   -0.0000479
c     0.9786843   -1.9819712   -1.6486903  0.00   -0.0057057    0.0133206    0.1050284
h     2.2719494   -1.3664479   -0.0235320  0.00    0.0000999    0.0064089   -0.0051409
h     2.6865035   -0.6795019   -1.5983967  0.00   -0.0066037    0.0063368    0.0076406
c     0.3455334   -1.3773026   -2.9157800  0.00    0.0936330    0.0166818   -0.2725820
o     0.9467073   -1.2701654   -4.0262529  0.00   -0.0884044   -0.0189172    0.1899378
o    -0.9302580   -0.9153138   -2.7239495  0.00    0.0504948    0.1840270    0.3740308
h    -1.5074856   -1.4935517   -3.3227092  0.00    0.0086878   -0.0193195    0.0101156
n     1.7748459   -3.1785058   -2.0458560  0.00   -0.0238992   -0.0545233   -0.0581230
h     0.1452167   -2.3067025   -1.0062771  0.00    0.0105695   -0.0046622   -0.0151464
h     1.5280361   -3.9639987   -1.4217979  0.00    0.0008727    0.0187751   -0.0147641
h     1.5096035   -3.4813558   -2.9952229  0.00   -0.0028784    0.0247501    0.0274257
    24
 Energy =       0.1422193889
c     1.5114807    2.6549309    0.2683940  0.00    0.0242456    0.0583770    0.0225441
c     0.1624990    2.8977613    0.1320001  0.00   -0.0019636    0.0675628    0.0223675
c    -0.6746913    1.9183990   -0.3486571  0.00   -0.0577865    0.0240637   -0.0012742
c     2.0164857    1.4135371   -0.0749721  0.00    0.0445052   -0.0081424    0.0049507
c     1.1865550    0.4098421   -0.5682180  0.00    0.0099268   -0.0645716   -0.0196407
c    -0.1685125    0.6794395   -0.7045686  0.00   -0.0273384   -0.0442170   -0.0337317
o    -0.3960088    4.1090566    0.4657642  0.00    0.0243601   -0.0042294    0.0016349
h     0.3003636    4.7573958    0.7271749  0.00   -0.0195825   -0.0427510   -0.0163246
h    -0.8579689   -0.0599665   -1.1058925  0.00   -0.0111058   -0.1557251   -0.2962943
h     3.0855604    1.2342925    0.0352929  0.00    0.0023380   -0.0003859   -0.0002832
h     2.1815018    3.4221660    0.6439626  0.00    0.0021495   -0.0003343   -0.0000947
h    -1.7356935    2.1281658   -0.4549682  0.00   -0.0029166   -0.0023918   -0.0000830
c     1.8395120   -0.9082459   -0.9412027  0.00   -0.0201833    0.0156023   -0.0000360
c     0.9860995   -1.9706013   -1.6544734  0.00   -0.0051773    0.0125470    0.0950002
h     2.2760308   -1.3530787   -0.0283068  0.00    0.0000899    0.0057817   -0.0046436
h     2.6925968   -0.6660903   -1.6046802  0.00   -0.0059565    0.0057240    0.0069042
c     0.3552324   -1.3731745   -2.9248997  0.00    0.0842085    0.0142687   -0.2469143
o     0.9681230   -1.2779621   -4.0427514  0.00   -0.0802762   -0.0176058    0.1714271
o    -0.9271258   -0.9171495   -2.7511360  0.00    0.0692874    0.1992655    0.3594742
h    -1.5226452   -1.6523048   -3.1842384  0.00   -0.0150143   -0.0485778   -0.0101945
n     1.7913735   -3.1646767   -2.0330624  0.00   -0.0214331   -0.0491926   -0.0523291
h     0.1514559   -2.2920780   -1.0099199  0.00    0.0094872   -0.0042192   -0.0137087
h     1.5489487   -3.9468648   -1.4009094  0.00    0.0007814    0.0168910   -0.0132861
h     1.5410546   -3.4793028   -2.9846384  0.00   -0.0026454    0.0222601    0.0245357
    24
 Energy =       0.1160796636
c     1.4389209    2.6586903    0.2777986  0.00    0.0179762    0.0427478    0.0164893
c     0.0891189    2.8665569    0.1435583  0.00   -0.0009541    0.0492345    0.0163207
c    -0.7164220    1.8694384   -0.3365405  0.00   -0.0423237    0.0178415   -0.0010387
c     1.9761368    1.4402603   -0.0697265  0.00    0.0326650   -0.0063209    0.0036301
c     1.1774141    0.4233918   -0.5648906  0.00    0.0069410   -0.0470972   -0.0142396
c    -0.1803437    0.6515848   -0.6943172  0.00   -0.0205937   -0.0323778   -0.0249435
o    -0.5030098    4.0680420    0.4818475  0.00    0.0157969   -0.0041804    0.0010470
h     0.1718681    4.7591150    0.7214622  0.00   -0.0129400   -0.0293837   -0.0116192
h    -0.8485513   -0.1090498   -1.0965339  0.00   -0.0086047   -0.1195539   -0.2259291
h     3.0500379    1.2906154    0.0376301  0.00    0.0021719   -0.0004243   -0.0001727
h     2.0859512    3.4437468    0.6570568  0.00    0.0018475    0.0000520    0.0000876
h    -1.7823476    2.0527008   -0.4414599  0.00   -0.0025112   -0.0016021   -0.0000849
c     1.8685675   -0.8712360   -0.9572992  0.00   -0.0143512    0.0109983    0.0000508
c     1.0320531   -1.9606154   -1.6496532  0.00   -0.0044118    0.0105053    0.0693461
h     2.3382633   -1.3065725   -0.0532963  0.00    0.0004153    0.0037233   -0.0030125
h     2.7008459   -0.6043319   -1.6421276  0.00   -0.0037121    0.0045114    0.0046228
c     0.3758187   -1.4073688   -2.9220991  0.00    0.0592113    0.0093627   -0.1792977
o     1.0192560   -1.2823398   -4.0549954  0.00   -0.0568931   -0.0119109    0.1245042
o    -0.9236533   -0.9736920   -2.7811049  0.00    0.0597647    0.1636951    0.2796855
h    -1.4979462   -1.6374369   -3.3429915  0.00   -0.0206089   -0.0475553   -0.0154710
n     1.8847180   -3.1295810   -1.9880420  0.00   -0.0141093   -0.0353617   -0.0367284
h     0.2084010   -2.2906973   -0.9893571  0.00    0.0065914   -0.0032887   -0.0099899
h     1.6721916   -3.9096021   -1.3362329  0.00    0.0006131    0.0112828   -0.0091815
h     1.6749383   -3.4781283   -2.9435924  0.00   -0.0019806    0.0151020    0.0159248
    24
 Energy =       0.0950737058
c     1.3968297    2.6617767    0.2642584  0.00    0.0119885    0.0280516    0.0110218
c     0.0482632    2.8470432    0.1342762  0.00   -0.0003654    0.0323112    0.0110720
c    -0.7375652    1.8337377   -0.3272869  0.00   -0.0279547    0.0117302   -0.0008212
c     1.9531854    1.4574965   -0.0756552  0.00    0.0215819   -0.0043354    0.0024511
c     1.1738530    0.4297706   -0.5583490  0.00    0.0046403   -0.0310568   -0.0094012
c    -0.1841197    0.6288328   -0.6758834  0.00   -0.0139915   -0.0214574   -0.0168792
o    -0.5599668    4.0517076    0.4559297  0.00    0.0070606   -0.0061852    0.0003109
h     0.1048358    4.7844384    0.6307858  0.00   -0.0054012   -0.0154003   -0.0074682
h    -0.8397664   -0.1488437   -1.0678709  0.00   -0.0059180   -0.0858056   -0.1608935
h     3.0296794    1.3280089    0.0278044  0.00    0.0016488   -0.0003229   -0.0000814
h     2.0299588    3.4623248    0.6341334  0.00    0.0014143    0.0001891    0.0001606
h    -1.8062276    1.9990823   -0.4297351  0.00   -0.0018351   -0.0010046   -0.0000870
c     1.8812192   -0.8594598   -0.9456911  0.00   -0.0092997    0.0071036    0.0000726
c     1.0523095   -1.9591532   -1.6317925  0.00   -0.0029086    0.0079943    0.0456447
h     2.3495551   -1.2884907   -0.0362466  0.00    0.0002820    0.0024029   -0.0019630
h     2.7144044   -0.5941085   -1.6324804  0.00   -0.0024244    0.0029476    0.0030417
c     0.3885698   -1.4313958   -2.9064993  0.00    0.0363494    0.0030814   -0.1167135
o     1.0740195   -1.2523965   -4.0411244  0.00   -0.0345032   -0.0061221    0.0807010
o    -0.9282623   -1.0232663   -2.8023940  0.00    0.0511487    0.1305098    0.2110322
h    -1.4652524   -1.5842194   -3.5017447  0.00   -0.0260965   -0.0461400   -0.0247259
n     1.9302173   -3.1155910   -1.9339891  0.00   -0.0087383   -0.0231617   -0.0233957
h     0.2302335   -2.2868886   -0.9631623  0.00    0.0042403   -0.0021614   -0.0065663
h     1.7246353   -3.8910584   -1.2697408  0.00    0.0004357    0.0072478   -0.0059113
h     1.7516190   -3.4858569   -2.8924484  0.00   -0.0013537    0.0095839    0.0093988
    24
 Energy =       0.0919702241
c     1.4674676    2.6347245    0.2828410  0.00    0.0117698    0.0263096    0.0103896
c     0.1262282    2.8622803    0.1419124  0.00   -0.0003527    0.0301566    0.0102699
c    -0.6835289    1.8794356   -0.3431185  0.00   -0.0267847    0.0106407   -0.0009342
c     1.9915682    1.4179661   -0.0633699  0.00    0.0207260   -0.0039342    0.0023875
c     1.1863534    0.4190543   -0.5626439  0.00    0.0045262   -0.0289115   -0.0088275
c    -0.1621640    0.6629188   -0.6975220  0.00   -0.0137759   -0.0201681   -0.0158260
o    -0.4493901    4.0801074    0.4799956  0.00    0.0017159   -0.0091808   -0.0011528
h     0.2350337    4.7771220    0.7332441  0.00   -0.0006816   -0.0098441   -0.0051841
h    -0.8346786   -0.0887928   -1.1084445  0.00   -0.0058514   -0.0801362   -0.1496507
h     3.0626097    1.2538451    0.0519287  0.00    0.0022599   -0.0003310    0.0000230
h     2.1209010    3.4116770    0.6688681  0.00    0.0017847    0.0005878    0.0003797
h    -1.7458552    2.0781211   -0.4565623  0.00   -0.0023793   -0.0008915   -0.0001756
c     1.8508267   -0.8953762   -0.9459440  0.00   -0.0081264    0.0065541    0.0000289
c     0.9834198   -1.9624626   -1.6396122  0.00   -0.0033802    0.0081020    0.0423297
h     2.2938873   -1.3435773   -0.0323832  0.00    0.0005132    0.0018500   -0.0015081
h     2.7001179   -0.6609825   -1.6252939  0.00   -0.0016855    0.0029872    0.0025744
c     0.3595827   -1.4093489   -2.9245884  0.00    0.0335237    0.0030092   -0.1073434
o     1.0870407   -1.2228231   -4.0371227  0.00   -0.0312334   -0.0052939    0.0735654
o    -0.9511969   -0.9684584   -2.8513177  0.00    0.0464987    0.1220126    0.1959275
h    -1.4823871   -1.5073987   -3.5686556  0.00   -0.0246981   -0.0431091   -0.0232638
n     1.8167917   -3.1570674   -1.9237227  0.00   -0.0062741   -0.0219652   -0.0226108
h     0.1383442   -2.2522146   -0.9800160  0.00    0.0030478   -0.0023395   -0.0056374
h     1.5658822   -3.9214484   -1.2598375  0.00    0.0000664    0.0052634   -0.0044673
h     1.6353731   -3.5238106   -2.8835412  0.00   -0.0012087    0.0086316    0.0087060
    24
 Energy =       0.0897796513
c     1.3878552    2.6430728    0.3069655  0.00    0.0117096    0.0255727    0.0101321
c     0.0389387    2.8290154    0.1770282  0.00   -0.0003851    0.0287204    0.0097284
c    -0.7415283    1.8268831   -0.3165299  0.00   -0.0262934    0.0104474   -0.0009032
c     1.9486276    1.4484869   -0.0576312  0.00    0.0205245   -0.0040470    0.0022865
c     1.1735329    0.4301153   -0.5647007  0.00    0.0043546   -0.0276502   -0.0085399
c    -0.1844250    0.6307919   -0.6877095  0.00   -0.0137489   -0.0197306   -0.0153313
o    -0.5757103    4.0224327    0.5386268  0.00    0.0002095   -0.0081419   -0.0009679
h     0.0847853    4.7350631    0.8138087  0.00   -0.0001367   -0.0084796   -0.0046132
h    -0.8386277   -0.1382804   -1.0997269  0.00   -0.0059809   -0.0768889   -0.1432022
h     3.0258467    1.3183610    0.0485924  0.00    0.0028420   -0.0004579    0.0000651
h     2.0182985    3.4359474    0.6996329  0.00    0.0019883    0.0008753    0.0005245
h    -1.8110301    1.9929871   -0.4195733  0.00   -0.0029103   -0.0006779   -0.0001990
c     1.8863413   -0.8523461   -0.9741098  0.00   -0.0074860    0.0057595    0.0000204
c     1.0549272   -1.9495884   -1.6641427  0.00   -0.0038366    0.0084414    0.0404417
h     2.3638699   -1.2919459   -0.0727801  0.00    0.0008175    0.0012009   -0.0010278
h     2.7149456   -0.5749052   -1.6648831  0.00   -0.0006481    0.0032684    0.0018583
c     0.3958001   -1.4164710   -2.9391410  0.00    0.0324561    0.0028890   -0.1024682
o     1.0985988   -1.2031570   -4.0656223  0.00   -0.0294002   -0.0049226    0.0695702
o    -0.9286370   -1.0225027   -2.8480613  0.00    0.0429960    0.1176999    0.1878030
h    -1.4475495   -1.5504073   -3.5806775  0.00   -0.0236463   -0.0415853   -0.0225798
n     1.9345499   -3.1084088   -1.9608999  0.00   -0.0044061   -0.0214510   -0.0224647
h     0.2281537   -2.2762247   -0.9968199  0.00    0.0021758   -0.0025827   -0.0049947
h     1.7246353   -3.8855715   -1.2960367  0.00   -0.0001227    0.0037613   -0.0034438
h     1.7600287   -3.4798572   -2.9205154  0.00   -0.0010725    0.0079795    0.0083053
    24
 Energy =       0.0838474889
c     1.3030937    2.6398420    0.3420416  0.00    0.0103633    0.0221822    0.0087750
c    -0.0509700    2.7834547    0.2223254  0.00   -0.0003047    0.0242496    0.0080781
c    -0.7991665    1.7649811   -0.2841562  0.00   -0.0229882    0.0091976   -0.0007982
c     1.9009721    1.4721899   -0.0445239  0.00    0.0181443   -0.0038325    0.0019315
c     1.1587973    0.4377235   -0.5636748  0.00    0.0037606   -0.0236010   -0.0072617
c    -0.2061860    0.5936257   -0.6751083  0.00   -0.0122908   -0.0172763   -0.0132431
o    -0.7042697    3.9501237    0.6117459  0.00   -0.0016214   -0.0065449   -0.0007851
h    -0.0701491    4.6747568    0.9210137  0.00    0.0006215   -0.0057915   -0.0032986
h    -0.8408979   -0.1908449   -1.0915810  0.00   -0.0057478   -0.0661623   -0.1228489
h     2.9828803    1.3770322    0.0539464  0.00    0.0031090   -0.0005398    0.0000895
h     1.9086900    3.4469267    0.7451405  0.00    0.0019817    0.0011033    0.0006289
h    -1.8744391    1.8978634   -0.3776992  0.00   -0.0031114   -0.0003844   -0.0001845
c     1.9187259   -0.8101810   -1.0008049  0.00   -0.0059201    0.0043251    0.0000365
c     1.1265222   -1.9313386   -1.6977026  0.00   -0.0037644    0.0081023    0.0341159
h     2.4226152   -1.2444181   -0.1104672  0.00    0.0009046    0.0005945   -0.0006521
h     2.7298133   -0.4906673   -1.6961951  0.00    0.0002759    0.0031440    0.0010153
c     0.4365636   -1.4132714   -2.9602825  0.00    0.0275912    0.0012187   -0.0862318
o     1.1274792   -1.1361213   -4.0900955  0.00   -0.0231498   -0.0034719    0.0570610
o    -0.9058909   -1.0840131   -2.8606229  0.00    0.0355484    0.1042577    0.1647935
h    -1.3958632   -1.5642063   -3.6408343  0.00   -0.0213714   -0.0378995   -0.0222876
n     2.0530828   -3.0496479   -2.0072558  0.00   -0.0021171   -0.0186909   -0.0199770
h     0.3174373   -2.2968732   -1.0263489  0.00    0.0010842   -0.0025626   -0.0037815
h     1.8833884   -3.8402138   -1.3446708  0.00   -0.0002153    0.0019152   -0.0021310
h     1.8899985   -3.4232321   -2.9690960  0.00   -0.0007825    0.0064673    0.0069559
    24
 Energy =       0.0766349446
c     1.2126075    2.6258806    0.3843970  0.00    0.0082716    0.0174426    0.0068704
c    -0.1440703    2.7265062    0.2694056  0.00   -0.0001834    0.0184879    0.0060162
c    -0.8568160    1.6928580   -0.2520328  0.00   -0.0182001    0.0073386   -0.0006466
c     1.8484088    1.4879002   -0.0216459  0.00    0.0145451   -0.0032953    0.0014735
c     1.1422919    0.4391293   -0.5558585  0.00    0.0030354   -0.0183151   -0.0054984
c    -0.2269661    0.5492129   -0.6608665  0.00   -0.0099880   -0.0137562   -0.0103642
o    -0.8355749    3.8660606    0.6814013  0.00   -0.0028590   -0.0046430   -0.0005569
h    -0.2289022    4.6026785    1.0207710  0.00    0.0011096   -0.0031565   -0.0019108
h    -0.8391922   -0.2493238   -1.0860522  0.00   -0.0052310   -0.0521326   -0.0965206
h     2.9331057    1.4283408    0.0740113  0.00    0.0030498   -0.0005321    0.0001067
h     1.7909511    3.4465350    0.8000279  0.00    0.0018235    0.0012675    0.0006947
h    -1.9360930    1.7918428   -0.3410662  0.00   -0.0029901   -0.0001276   -0.0001550
c     1.9470995   -0.7746460   -1.0138405  0.00   -0.0039962    0.0029929    0.0002154
c     1.1981552   -1.9094135   -1.7359614  0.00   -0.0034019    0.0074628    0.0256386
h     2.4603949   -1.2090005   -0.1286872  0.00    0.0007149    0.0003175   -0.0004639
h     2.7510313   -0.4164768   -1.7000072  0.00    0.0008433    0.0026460    0.0002920
c     0.4854120   -1.3931208   -2.9832568  0.00    0.0191208   -0.0039922   -0.0615853
o     1.1778287   -0.9905903   -4.0920614  0.00   -0.0107728    0.0009104    0.0361608
o    -0.8800207   -1.1582664   -2.8873237  0.00    0.0253500    0.0880817    0.1407898
h    -1.3239469   -1.5535046   -3.7385498  0.00   -0.0195694   -0.0345689   -0.0261631
n     2.1708843   -2.9818132   -2.0639324  0.00    0.0000760   -0.0148567   -0.0162951
h     0.4043570   -2.3193150   -1.0690999  0.00   -0.0000517   -0.0023656   -0.0022536
h     2.0379721   -3.7899058   -1.4121624  0.00   -0.0002568    0.0001889   -0.0008471
h     2.0233100   -3.3480775   -3.0325160  0.00   -0.0004397    0.0046049    0.0050024
    24
 Energy =       0.0770427143
c     1.1761270    2.6110176    0.4113536  0.00    0.0080137    0.0168441    0.0066381
c    -0.1799865    2.7013856    0.2854214  0.00   -0.0001621    0.0177979    0.0057945
c    -0.8795110    1.6660015   -0.2497062  0.00   -0.0175858    0.0070167   -0.0006459
c     1.8245669    1.4814843    0.0033040  0.00    0.0140805   -0.0031141    0.0014505
c     1.1322839    0.4310000   -0.5448483  0.00    0.0028956   -0.0176661   -0.0052725
c    -0.2372229    0.5306630   -0.6616330  0.00   -0.0096796   -0.0132969   -0.0100058
o    -0.8843622    3.8323437    0.7002112  0.00   -0.0029136   -0.0044664   -0.0005503
h    -0.2870607    4.5710429    1.0518898  0.00    0.0011699   -0.0028732   -0.0017600
h    -0.8409000   -0.2678593   -1.1000735  0.00   -0.0051283   -0.0501451   -0.0927840
h     2.9088026    1.4304298    0.1083360  0.00    0.0030175   -0.0005014    0.0001178
h     1.7440637    3.4334158    0.8377981  0.00    0.0018173    0.0013072    0.0007138
h    -1.9586583    1.7572955   -0.3477053  0.00   -0.0029484   -0.0001298   -0.0001604
c     1.9536297   -0.7720807   -1.0038445  0.00   -0.0039215    0.0032082    0.0004473
c     1.2273977   -1.9007328   -1.7586802  0.00   -0.0036899    0.0075141    0.0247484
h     2.4531515   -1.2159386   -0.1154963  0.00    0.0007332    0.0003186   -0.0002804
h     2.7677245   -0.3985902   -1.6702649  0.00    0.0010630    0.0026516    0.0000498
c     0.5096768   -1.3635192   -2.9927135  0.00    0.0144293   -0.0080295   -0.0520869
o     1.2038146   -0.8318371   -4.0551879  0.00   -0.0035823    0.0052180    0.0260705
o    -0.8666736   -1.1945736   -2.9003252  0.00    0.0216690    0.0847507    0.1369813
h    -1.2918033   -1.5814448   -3.7635704  0.00   -0.0188151   -0.0334395   -0.0255530
n     2.2192704   -2.9473862   -2.1120431  0.00    0.0006729   -0.0144742   -0.0162023
h     0.4385155   -2.3410520   -1.1042820  0.00   -0.0004194   -0.0024601   -0.0018082
h     2.1050280   -3.7707785   -1.4753688  0.00   -0.0003006   -0.0003573   -0.0004278
h     2.0743531   -3.2967958   -3.0874776  0.00   -0.0004151    0.0043267    0.0045257
    24
 Energy =       0.0728422451
c     1.1845407    2.6253787    0.3917086  0.00    0.0075860    0.0156926    0.0062073
c    -0.1732714    2.7081258    0.2829510  0.00   -0.0001963    0.0166140    0.0054149
c    -0.8736984    1.6670427   -0.2386052  0.00   -0.0164695    0.0064926   -0.0006468
c     1.8338042    1.4987853   -0.0213874  0.00    0.0132365   -0.0028611    0.0013954
c     1.1399467    0.4431791   -0.5559409  0.00    0.0027603   -0.0165000   -0.0049211
c    -0.2305598    0.5341210   -0.6534368  0.00   -0.0091371   -0.0123722   -0.0093613
o    -0.8780107    3.8375821    0.7018251  0.00   -0.0027943   -0.0042056   -0.0005438
h    -0.2806775    4.5803396    1.0452180  0.00    0.0011365   -0.0026255   -0.0016139
h    -0.8338382   -0.2723464   -1.0764687  0.00   -0.0047940   -0.0469330   -0.0865078
h     2.9195382    1.4537721    0.0694101  0.00    0.0029375   -0.0004619    0.0001303
h     1.7533496    3.4523521    0.8078717  0.00    0.0017574    0.0012499    0.0006888
h    -1.9545730    1.7515394   -0.3221958  0.00   -0.0028824   -0.0001302   -0.0001725
c     1.9582707   -0.7584987   -1.0210944  0.00   -0.0038509    0.0034401    0.0006167
c     1.2190239   -1.9015600   -1.7414010  0.00   -0.0038427    0.0071570    0.0233743
h     2.4808736   -1.1881659   -0.1384075  0.00    0.0008517    0.0002113    0.0000668
h     2.7549666   -0.3895252   -1.7109544  0.00    0.0012862    0.0026377   -0.0002131
c     0.4997855   -1.3944597   -2.9888013  0.00    0.0083240   -0.0104124   -0.0391206
o     1.1953513   -0.9905903   -4.1144332  0.00    0.0030840    0.0081633    0.0140553
o    -0.8713275   -1.1803394   -2.8962103  0.00    0.0197219    0.0790680    0.1294878
h    -1.3024676   -1.5231098   -3.7739832  0.00   -0.0183599   -0.0314318   -0.0253492
n     2.2029815   -2.9645384   -2.0672559  0.00    0.0010058   -0.0136125   -0.0153556
h     0.4298694   -2.3182738   -1.0717889  0.00   -0.0006307   -0.0024175   -0.0014069
h     2.0770965   -3.7741525   -1.4148858  0.00   -0.0003198   -0.0006957   -0.0001121
h     2.0612530   -3.3331670   -3.0366402  0.00   -0.0004103    0.0039328    0.0038870
    24
 Energy =       0.0658425413
c     1.1732392    2.6362975    0.3793964  0.00    0.0061734    0.0121180    0.0048492
c    -0.1865236    2.6973422    0.2973649  0.00   -0.0003276    0.0128596    0.0041665
c    -0.8785911    1.6461246   -0.2104121  0.00   -0.0130031    0.0050947   -0.0005808
c     1.8327134    1.5232829   -0.0485154  0.00    0.0105843   -0.0023341    0.0011326
c     1.1462810    0.4585164   -0.5693038  0.00    0.0024712   -0.0128520   -0.0038193
c    -0.2253683    0.5258641   -0.6370196  0.00   -0.0074131   -0.0095803   -0.0073471
o    -0.9006206    3.8165578    0.7302637  0.00   -0.0024903   -0.0031587   -0.0004184
h    -0.3103034    4.5671854    1.0696090  0.00    0.0009236   -0.0019321   -0.0011940
h    -0.8219683   -0.2928430   -1.0428592  0.00   -0.0037474   -0.0375543   -0.0684569
h     2.9203917    1.4958772    0.0209726  0.00    0.0026651   -0.0003961    0.0001357
h     1.7359699    3.4719867    0.7854926  0.00    0.0014964    0.0010005    0.0005685
h    -1.9620736    1.7123812   -0.2718910  0.00   -0.0026551   -0.0000593   -0.0001735
c     1.9700903   -0.7325570   -1.0492440  0.00   -0.0031636    0.0030767    0.0006561
c     1.2257201   -1.8945899   -1.7336454  0.00   -0.0034455    0.0056706    0.0185652
h     2.5230823   -1.1458470   -0.1763455  0.00    0.0009736   -0.0000605    0.0005409
h     2.7424525   -0.3603311   -1.7645910  0.00    0.0014314    0.0022883   -0.0005171
c     0.4971325   -1.4262521   -2.9921383  0.00    0.0015317   -0.0090876   -0.0204582
o     1.1809241   -1.1493434   -4.1715950  0.00    0.0075658    0.0080463    0.0006026
o    -0.8701455   -1.1852374   -2.9057768  0.00    0.0179173    0.0634023    0.1083762
h    -1.2925637   -1.4333407   -3.8175625  0.00   -0.0173260   -0.0260337   -0.0266214
n     2.2115042   -2.9639019   -2.0275666  0.00    0.0011490   -0.0107655   -0.0118457
h     0.4416170   -2.2925113   -1.0468606  0.00   -0.0006788   -0.0019813   -0.0008352
h     2.0716363   -3.7650257   -1.3674522  0.00   -0.0002727   -0.0007162    0.0001067
h     2.0876309   -3.3461447   -2.9952266  0.00   -0.0003595    0.0029546    0.0025673
    24
 Energy =       0.0566209712
c     1.1563643    2.6447593    0.3615346  0.00    0.0038993    0.0048461    0.0021370
c    -0.2053105    2.6664182    0.3384872  0.00   -0.0009364    0.0052633    0.0016268
c    -0.8846403    1.5976655   -0.1397754  0.00   -0.0065238    0.0023607   -0.0005300
c     1.8300010    1.5569129   -0.0979900  0.00    0.0057489   -0.0013190    0.0006699
c     1.1545032    0.4758182   -0.5891702  0.00    0.0027596   -0.0054975   -0.0015582
c    -0.2174280    0.5016030   -0.5938550  0.00   -0.0045826   -0.0041277   -0.0034051
o    -0.9319441    3.7670183    0.8028001  0.00   -0.0023951   -0.0009791   -0.0001272
h    -0.3520326    4.5320137    1.1299714  0.00    0.0005746   -0.0004475   -0.0003021
h    -0.8050755   -0.3351262   -0.9677906  0.00   -0.0018503   -0.0207207   -0.0363164
h     2.9199755    1.5613046   -0.0738117  0.00    0.0026582   -0.0002448    0.0001511
h     1.7102161    3.4960232    0.7455136  0.00    0.0011681    0.0005283    0.0003440
h    -1.9715044    1.6311971   -0.1538252  0.00   -0.0027964    0.0000967   -0.0001699
c     1.9837354   -0.7004902   -1.0943287  0.00   -0.0013495    0.0015707    0.0005020
c     1.2352452   -1.8825014   -1.7404697  0.00   -0.0018746    0.0025719    0.0080127
h     2.5726859   -1.0969044   -0.2364707  0.00    0.0008506   -0.0003719    0.0008727
h     2.7251024   -0.3232069   -1.8384483  0.00    0.0012189    0.0012459   -0.0007134
c     0.4892060   -1.4570767   -3.0044791  0.00   -0.0025461   -0.0030119   -0.0018975
o     1.1542667   -1.2855212   -4.2182444  0.00    0.0056585    0.0035706   -0.0067761
o    -0.8775186   -1.2098677   -2.9316425  0.00    0.0172975    0.0337622    0.0780124
h    -1.2681271   -1.2745876   -3.8912977  0.00   -0.0170682   -0.0143382   -0.0366247
n     2.2281070   -2.9511173   -1.9993049  0.00    0.0011016   -0.0041277   -0.0042875
h     0.4617453   -2.2632935   -1.0326949  0.00   -0.0005683   -0.0008988    0.0000068
h     2.0630691   -3.7537491   -1.3466234  0.00   -0.0002524   -0.0005922    0.0005204
h     2.1415855   -3.3338014   -2.9729913  0.00   -0.0001920    0.0008606   -0.0001478
    24
 Energy =       0.0514231699
c     1.1569208    2.6791134    0.2670597  0.00    0.0037039    0.0015671    0.0008993
c    -0.2028996    2.6677220    0.3214974  0.00   -0.0005514    0.0018599    0.0007872