    13
 Energy =       0.0920483588
c    -3.7133889    1.6950595    0.3173519  0.00   -0.0804940    0.0253144    0.0979796
c    -2.4962693    2.6345192    0.2419999  0.00    0.2320738    0.1080157   -0.3211440
c    -4.9565486    2.3924193   -0.2155699  0.00    0.0090996    0.0113406    0.0040137
h    -5.2099685    3.2528291    0.4143399  0.00    0.0013990   -0.0127141   -0.0105817
h    -5.8205883    1.7190695   -0.2147749  0.00    0.0077098    0.0153768    0.0004759
h    -4.8083986    2.7651692   -1.2348596  0.00   -0.0078420    0.0003160    0.0181240
n    -3.4097890    0.4519539   -0.4549189  0.00    0.0782290   -0.0530530   -0.0138491
h    -3.8575589    1.4177196    1.3669296  0.00    0.0110458   -0.0074621   -0.0270025
h    -2.5963493    0.6418898   -1.0496997  0.00   -0.0226739    0.0172923    0.0453355
h    -3.0749291   -0.2623099    0.1989099  0.00   -0.0096760    0.0304984   -0.0224324
o    -1.9513094    3.0041591   -0.7839488  0.00   -0.1413802   -0.0894444    0.2453126
o    -2.1005994    3.0267291    1.4825496  0.00   -0.0372163   -0.0303968   -0.0071582
h    -1.1397697    2.7938992    1.5347396  0.00   -0.0402746   -0.0150838   -0.0090735
    13
 Energy =       0.0711211508
c    -3.6744604    1.6910405    0.3074242  0.00   -0.0447189    0.0160706    0.0537560
c    -2.4988941    2.6696589    0.2631083  0.00    0.1327070    0.0490030   -0.1827682
c    -4.9547089    2.3645675   -0.1766319  0.00    0.0048084    0.0078018    0.0020673
h    -5.2095600    3.2215000    0.4697115  0.00    0.0006441   -0.0070202   -0.0057785
h    -5.7976522    1.6537332   -0.1550051  0.00    0.0036765    0.0077780    0.0004047
h    -4.8393912    2.7358599   -1.2096547  0.00   -0.0044344    0.0003610    0.0094578
n    -3.3962678    0.4912463   -0.5251800  0.00    0.0413908   -0.0236862   -0.0149044
h    -3.7905843    1.3826636    1.3628647  0.00    0.0067178   -0.0041832   -0.0137916
h    -2.5722423    0.6770302   -1.1261683  0.00   -0.0120788    0.0110310    0.0258982
h    -3.1290331   -0.3081309    0.0850779  0.00   -0.0032504    0.0080559   -0.0068974
o    -1.9468684    3.0614818   -0.8390643  0.00   -0.0785849   -0.0490719    0.1371138
o    -2.1154448    3.1854823    1.4773608  0.00   -0.0835951    0.0291089   -0.0027752
h    -1.2103597    2.7069734    1.6692054  0.00    0.0367180   -0.0452486   -0.0017825
    13
 Energy =       0.0666268325
c    -3.6628536    1.6829242    0.3095697  0.00   -0.0363852    0.0123877    0.0432727
c    -2.5150194    2.6922989    0.2589504  0.00    0.1082701    0.0400855   -0.1495415
c    -4.9685709    2.3223514   -0.1564176  0.00    0.0149871    0.0010306    0.0032160
h    -5.3332540    3.0627469    0.6031672  0.00   -0.0049173    0.0059440    0.0080761
h    -5.7535556    1.5358732   -0.2938071  0.00   -0.0069545   -0.0063987   -0.0009233
h    -4.8199757    2.8550542   -1.1302009  0.00    0.0008440    0.0070695   -0.0045647
n    -3.3729406    0.4936463   -0.5316941  0.00    0.0333345   -0.0191124   -0.0124728
h    -3.7604306    1.3685097    1.3676135  0.00    0.0053599   -0.0036769   -0.0110751
h    -2.5372267    0.6774289   -1.1215872  0.00   -0.0096472    0.0090231    0.0210664
h    -3.1247547   -0.3170967    0.0740164  0.00   -0.0026012    0.0062791   -0.0053534
o    -1.9744739    3.0873349   -0.8684089  0.00   -0.0644625   -0.0399885    0.1117123
o    -2.1260972    3.2393906    1.4602260  0.00   -0.0723826    0.0268753   -0.0033195
h    -1.1863142    2.8326441    1.6316212  0.00    0.0345549   -0.0395182   -0.0000932
    13
 Energy =       0.0630368802
c    -3.6639418    1.6840212    0.3208835  0.00   -0.0286899    0.0130731    0.0397656
c    -2.5646947    2.7458230    0.2787420  0.00    0.0906042    0.0338555   -0.1226895
c    -4.9774579    2.2377616   -0.2403249  0.00    0.0098718    0.0006411    0.0001517
h    -5.4018230    3.0094082    0.4575795  0.00   -0.0053587    0.0078449    0.0091592
h    -5.7237763    1.4120675   -0.3615322  0.00   -0.0067962   -0.0064782   -0.0014535
h    -4.8096892    2.7146703   -1.2401652  0.00    0.0000260    0.0066929   -0.0058183
n    -3.2829066    0.4685236   -0.4502135  0.00    0.0272256   -0.0191918   -0.0169407
h    -3.8036963    1.4193411    1.3911696  0.00    0.0046375   -0.0026785   -0.0067234
h    -2.4308720    0.6620696   -1.0178947  0.00   -0.0069098    0.0063717    0.0168989
h    -3.0154506   -0.2971833    0.2093910  0.00   -0.0005294    0.0016923   -0.0021836
o    -2.0315105    3.1629813   -0.8599513  0.00   -0.0532865   -0.0323100    0.0921645
o    -2.1987202    3.3222254    1.4762668  0.00   -0.0639900    0.0253644   -0.0032756
h    -1.2309280    2.9913973    1.6390979  0.00    0.0331955   -0.0348775    0.0009447
    13
 Energy =       0.0610271061
c    -3.6831042    1.6943279    0.3225943  0.00   -0.0276321    0.0125633    0.0376575
c    -2.5225870    2.6925350    0.2853336  0.00    0.0849453    0.0307571   -0.1189570
c    -4.9715032    2.3256010   -0.2212827  0.00    0.0084883    0.0018242   -0.0008009
h    -5.3513716    3.1105490    0.4875558  0.00   -0.0055115    0.0082676    0.0091127
h    -5.7604532    1.5395940   -0.3458279  0.00   -0.0075793   -0.0072070   -0.0015804
h    -4.7872080    2.8028963   -1.2176078  0.00   -0.0000482    0.0064666   -0.0055984
n    -3.3769943    0.4681657   -0.4664637  0.00    0.0228432   -0.0183900   -0.0181594
h    -3.8279486    1.4257038    1.3917409  0.00    0.0042379   -0.0026494   -0.0061512
h    -2.5053230    0.6105944   -1.0227754  0.00   -0.0042471    0.0063011    0.0145583
h    -3.1742037   -0.3304173    0.1813987  0.00    0.0006359   -0.0021816    0.0000592
o    -2.0094511    3.1273675   -0.8609914  0.00   -0.0502929   -0.0304160    0.0857607
o    -2.0733628    3.1957023    1.4922188  0.00   -0.0619174    0.0292270    0.0030132
h    -1.0919564    2.8704872    1.5771554  0.00    0.0360780   -0.0345628    0.0010855
    13
 Energy =       0.0571538283
c    -3.6935263    1.7015722    0.3278918  0.00   -0.0221174    0.0106783    0.0289048
c    -2.5026088    2.6617495    0.2869792  0.00    0.0667711    0.0213036   -0.0952673
c    -4.9660678    2.3696021   -0.2079781  0.00    0.0067698    0.0016157   -0.0008527
h    -5.3115535    3.1752174    0.4919074  0.00   -0.0047272    0.0070278    0.0076170
h    -5.7805292    1.6092765   -0.3136978  0.00   -0.0065021   -0.0062385   -0.0013051
h    -4.7760676    2.8233974   -1.2127191  0.00    0.0001526    0.0052245   -0.0046260
n    -3.4364876    0.4688591   -0.4643898  0.00    0.0118377   -0.0100028   -0.0168958
h    -3.8406272    1.4402015    1.3999588  0.00    0.0031558   -0.0019979   -0.0046500
h    -2.5246700    0.5498382   -0.9760762  0.00    0.0020068    0.0060279    0.0087558
h    -3.3329568   -0.3568898    0.1807259  0.00    0.0014686   -0.0086880    0.0049039
o    -2.0330570    3.1420417   -0.8767972  0.00   -0.0402591   -0.0232938    0.0642398
o    -1.9733023    3.0975952    1.4921190  0.00   -0.0601067    0.0299351    0.0088479
h    -0.9640131    2.8506456    1.4751245  0.00    0.0415503   -0.0315918    0.0003276
    13
 Energy =       0.0542072640
c    -3.6859567    1.7035784    0.3281384  0.00   -0.0148274    0.0074986    0.0204853
c    -2.5078212    2.6759074    0.2790228  0.00    0.0464182    0.0106148   -0.0639495
c    -4.9695542    2.3556281   -0.1967258  0.00    0.0049764    0.0010123   -0.0002644
h    -5.2974714    3.1811597    0.4835331  0.00   -0.0033334    0.0051227    0.0056813
h    -5.7850907    1.5952215   -0.2640332  0.00   -0.0049679   -0.0048026   -0.0010559
h    -4.7986700    2.7759254   -1.2182415  0.00    0.0002718    0.0039159   -0.0039273
n    -3.4316038    0.4754400   -0.4662482  0.00   -0.0105315    0.0081772   -0.0185686
h    -3.8199419    1.4459324    1.4045556  0.00    0.0020627   -0.0011129   -0.0028900
h    -2.4434196    0.4837374   -0.8545171  0.00    0.0211781    0.0056981   -0.0018381
h    -3.4917099   -0.3776433    0.1671041  0.00   -0.0005060   -0.0230704    0.0173544
o    -2.1062259    3.2355460   -0.8960539  0.00   -0.0277824   -0.0130898    0.0376465
o    -1.9122474    3.0547994    1.4749961  0.00   -0.0599316    0.0263561    0.0134595
h    -0.8857544    2.9278743    1.3615181  0.00    0.0469729   -0.0263200   -0.0021331
    13
 Energy =       0.0530775842
c    -3.6662830    1.6989788    0.3369892  0.00   -0.0108230    0.0044209    0.0167023
c    -2.5269061    2.7148574    0.2464093  0.00    0.0339836   -0.0008726   -0.0392610
c    -4.9931278    2.3015675   -0.1417332  0.00    0.0026592    0.0019244    0.0005581
h    -5.3127707    3.1326380    0.5326147  0.00   -0.0024688    0.0038732    0.0044040
h    -5.7892049    1.5182224   -0.1568763  0.00   -0.0051543   -0.0046739   -0.0008857
h    -4.8790245    2.7030794   -1.1792536  0.00    0.0002967    0.0036958   -0.0046661
n    -3.4001375    0.4809415   -0.4648621  0.00   -0.0079412    0.0059900   -0.0140799
h    -3.7515133    1.4388737    1.4197706  0.00    0.0014590   -0.0013946   -0.0010974
h    -2.4076631    0.4862604   -0.8335149  0.00    0.0162484    0.0044504   -0.0016506
h    -3.4798656   -0.3754846    0.1550711  0.00   -0.0003401   -0.0176817    0.0134333
o    -2.2649790    3.3862151   -0.9319601  0.00   -0.0192230   -0.0001092    0.0104040
o    -1.8411542    3.0453501    1.4112941  0.00   -0.0555656    0.0221313    0.0198674
h    -0.8228374    3.0016068    1.2090999  0.00    0.0468690   -0.0217540   -0.0037283
    13
 Energy =       0.0532649787
c    -3.6407564    1.7042350    0.3500252  0.00   -0.0108001    0.0022378    0.0157540
c    -2.5394635    2.7549203    0.1661702  0.00    0.0317856   -0.0010357   -0.0369981
c    -5.0103002    2.2476668   -0.0844120  0.00    0.0013286    0.0026195    0.0008243
h    -5.3285966    3.0850695    0.5822859  0.00   -0.0023167    0.0037797    0.0042861
h    -5.7806044    1.4376896   -0.0463966  0.00   -0.0064157   -0.0058331   -0.0007832
h    -4.9545670    2.6268592   -1.1368460  0.00    0.0001159    0.0043059   -0.0063382
n    -3.3737209    0.4684865   -0.4233686  0.00   -0.0114216    0.0077617   -0.0148147
h    -3.6609988    1.4784038    1.4461766  0.00    0.0015082   -0.0021455    0.0015904
h    -2.3601530    0.4355926   -0.7342732  0.00    0.0194947    0.0032142   -0.0031381
h    -3.5160690   -0.3778578    0.2012489  0.00   -0.0008298   -0.0194552    0.0147648
o    -2.3449297    3.3780762   -1.0553756  0.00   -0.0174290    0.0023925    0.0050361
o    -1.8178325    3.1620532    1.2874669  0.00   -0.0510078    0.0228729    0.0233898
h    -0.8074751    3.1319119    1.0503468  0.00    0.0459877   -0.0207148   -0.0035733
    13
 Energy =       0.0500961886
c    -3.6678144    1.7034774    0.3506570  0.00   -0.0100688    0.0003125    0.0164435
c    -2.4983133    2.6877846    0.2042726  0.00    0.0273748   -0.0030518   -0.0267782
c    -4.9930917    2.3315101   -0.1138953  0.00   -0.0003429    0.0042873    0.0003255
h    -5.2771022    3.1854218    0.5475210  0.00   -0.0025399    0.0041522    0.0040684
h    -5.8105350    1.5662964   -0.0934635  0.00   -0.0074677   -0.0067944   -0.0005259
h    -4.8918082    2.7076983   -1.1642335  0.00    0.0000953    0.0045521   -0.0066761
n    -3.4579492    0.4571963   -0.4258417  0.00   -0.0122723    0.0052833   -0.0137592
h    -3.7306392    1.4714293    1.4445874  0.00    0.0013975   -0.0028765    0.0022057
h    -2.4621740    0.4055748   -0.7896959  0.00    0.0203670    0.0023810   -0.0039312
h    -3.5824345   -0.3820620    0.2102857  0.00   -0.0010139   -0.0178554    0.0138752
o    -2.1861766    3.2556800   -1.0262828  0.00   -0.0118600    0.0070336   -0.0039573
o    -1.7933331    3.0607422    1.3480528  0.00   -0.0474161    0.0210516    0.0231934
h    -0.7840958    3.0823575    1.1110848  0.00    0.0437470   -0.0184756   -0.0044840
    13
 Energy =       0.0456158362
c    -3.6977371    1.7021202    0.3517493  0.00   -0.0076742   -0.0018843    0.0139585
c    -2.4590885    2.6055192    0.2527505  0.00    0.0168353   -0.0031795   -0.0118941
c    -4.9645183    2.4211002   -0.1459706  0.00   -0.0019389    0.0052677   -0.0005866
h    -5.2014804    3.3006448    0.4996057  0.00   -0.0026172    0.0043025    0.0033493
h    -5.8331180    1.7142067   -0.1323431  0.00   -0.0074552   -0.0067339   -0.0000320
h    -4.8157903    2.7749232   -1.1972719  0.00    0.0002858    0.0039999   -0.0058521
n    -3.5542794    0.4492289   -0.4291934  0.00   -0.0121656    0.0018304   -0.0100393
h    -3.8121420    1.4672382    1.4414177  0.00    0.0009256   -0.0032982    0.0026439
h    -2.5889798    0.3822280   -0.8643125  0.00    0.0189085    0.0007752   -0.0048096
h    -3.6463611   -0.3823822    0.2168459  0.00   -0.0012249   -0.0130160    0.0106977
o    -2.0274235    3.1083310   -0.9765896  0.00   -0.0025424    0.0094925   -0.0114841
o    -1.7653939    2.9313465    1.4164324  0.00   -0.0402081    0.0145262    0.0209680
h    -0.7691549    3.0586021    1.1699281  0.00    0.0388712   -0.0120826   -0.0069196
    13
 Energy =       0.0417314454
c    -3.7331123    1.7002603    0.3539512  0.00   -0.0038757   -0.0044174    0.0088991
c    -2.4314969    2.5131618    0.3186531  0.00    0.0090545   -0.0001561   -0.0035547
c    -4.9223339    2.5055897   -0.1991716  0.00   -0.0031095    0.0053672   -0.0008639
h    -5.1106433    3.4157774    0.4178739  0.00   -0.0024771    0.0040227    0.0023224
h    -5.8415699    1.8677987   -0.1952687  0.00   -0.0065780   -0.0056916    0.0005451
h    -4.7148035    2.8195554   -1.2520249  0.00    0.0006730    0.0032201   -0.0051125
n    -3.6483060    0.4407218   -0.4213454  0.00   -0.0203499    0.0069445   -0.0067281
h    -3.9206956    1.4753743    1.4366231  0.00   -0.0000661   -0.0033479    0.0037318
h    -2.7477329    0.4008640   -0.9909307  0.00    0.0252815   -0.0006940   -0.0119206
h    -3.6219190   -0.3802326    0.2474488  0.00   -0.0019848   -0.0146741    0.0141498
o    -1.9061791    2.9759550   -0.8906246  0.00    0.0024429    0.0074297   -0.0107024
o    -1.7546748    2.7789622    1.5060507  0.00   -0.0282504    0.0068739    0.0168448
h    -0.7819997    3.0193186    1.2718135  0.00    0.0292396   -0.0048770   -0.0076109
    13
 Energy =       0.0384875625
c    -3.7729535    1.7039305    0.3546000  0.00   -0.0000816   -0.0061173    0.0034099
c    -2.4214138    2.4249301    0.3986303  0.00    0.0050749    0.0003601   -0.0002040
c    -4.8649084    2.5753558   -0.2923364  0.00   -0.0045416    0.0054999   -0.0001483
h    -5.0174435    3.5180186    0.2824779  0.00   -0.0022463    0.0033438    0.0013865
h    -5.8278038    2.0092476   -0.3168845  0.00   -0.0055904   -0.0040565    0.0009323
h    -4.5780141    2.8342561   -1.3420648  0.00    0.0013546    0.0028327   -0.0059108
n    -3.7199320    0.4290654   -0.3908073  0.00   -0.0226093    0.0126500   -0.0062752
h    -4.0558369    1.5117275    1.4247716  0.00   -0.0018140   -0.0029621    0.0058900
h    -2.9052444    0.4310888   -1.0793962  0.00    0.0239552    0.0002756   -0.0151526
h    -3.5440981   -0.3649203    0.2930109  0.00    0.0001635   -0.0183503    0.0181869
o    -1.8083445    2.8615746   -0.7777793  0.00    0.0038166    0.0049734   -0.0085888
o    -1.7848527    2.6352033    1.6182599  0.00   -0.0154562    0.0018837    0.0119472
h    -0.8346215    2.9636288    1.4305667  0.00    0.0179747   -0.0003329   -0.0054729
    13
 Energy =       0.0360856543
c    -3.8027275    1.7073785    0.3500518  0.00    0.0007047   -0.0048167    0.0012683
c    -2.4238157    2.3553543    0.4675888  0.00    0.0017933   -0.0006213    0.0010144
c    -4.8051139    2.6232001   -0.3694239  0.00   -0.0031296    0.0038782   -0.0000600
h    -4.9269580    3.5852417    0.1767909  0.00   -0.0013338    0.0018714    0.0005598
h    -5.7966747    2.1168078   -0.4304448  0.00   -0.0038297   -0.0023096    0.0006296
h    -4.4535182    2.8393646   -1.4070170  0.00    0.0010867    0.0017510   -0.0041857
n    -3.7695011    0.4241281   -0.3739984  0.00   -0.0155431    0.0100985   -0.0038492
h    -4.1587866    1.5419770    1.4007587  0.00   -0.0016664   -0.0018969    0.0042814
h    -3.0386994    0.4588673   -1.1422492  0.00    0.0147379    0.0008250   -0.0109415
h    -3.4734797   -0.3395225    0.2964729  0.00    0.0013578   -0.0129135    0.0133506
o    -1.7309476    2.7612735   -0.6735941  0.00    0.0035224    0.0031714   -0.0066836
o    -1.8455747    2.5405258    1.7187929  0.00   -0.0066667   -0.0001606    0.0070499
h    -0.9096700    2.9185105    1.5893198  0.00    0.0089665    0.0011232   -0.0024339
    13
 Energy =       0.0347629345
c    -3.8302015    1.7117034    0.3436896  0.00    0.0005289   -0.0030425    0.0006761
c    -2.4346537    2.2945715    0.5366799  0.00   -0.0005099   -0.0017540    0.0012283
c    -4.7427029    2.6640610   -0.4405022  0.00   -0.0015400    0.0024705   -0.0000501
h    -4.8417844    3.6376217    0.0870335  0.00   -0.0005077    0.0005966    0.0000176
h    -5.7536700    2.2103632   -0.5501888  0.00   -0.0025236   -0.0010590    0.0001658
h    -4.3259345    2.8477520   -1.4581756  0.00    0.0007882    0.0008124   -0.0026006
n    -3.8102251    0.4212656   -0.3622999  0.00   -0.0119241    0.0076406   -0.0014554
h    -4.2533895    1.5711488    1.3706191  0.00   -0.0012297   -0.0010319    0.0024772
h    -3.1726857    0.4893991   -1.2029471  0.00    0.0082940    0.0017675   -0.0086824
h    -3.3902057   -0.3070871    0.2768847  0.00    0.0035752   -0.0090336    0.0100400
o    -1.6578642    2.6544313   -0.5644296  0.00    0.0035539    0.0021628   -0.0057269
o    -1.9282507    2.4750859    1.8186120  0.00   -0.0013394   -0.0005910    0.0043378
h    -0.9938992    2.8627903    1.7480729  0.00    0.0028342    0.0010616   -0.0004272
    13
 Energy =       0.0343839846
c    -3.8425826    1.7102226    0.3359714  0.00   -0.0003498    0.0004562    0.0004161
c    -2.4449513    2.2571107    0.5803591  0.00   -0.0012696   -0.0003578   -0.0000711
c    -4.6993691    2.6890487   -0.4698873  0.00    0.0005865   -0.0003990    0.0001244
h    -4.7933690    3.6579815    0.0658431  0.00    0.0002700   -0.0002328    0.0000100
h    -5.7135395    2.2625725   -0.6247602  0.00    0.0000540   -0.0000256   -0.0001158
h    -4.2404905    2.8737780   -1.4658425  0.00   -0.0002200   -0.0001184    0.0002453
n    -3.8306550    0.4214542   -0.3731167  0.00    0.0013953   -0.0006656   -0.0000791
h    -4.3013531    1.5756986    1.3445676  0.00    0.0003767    0.0001399   -0.0005185
h    -3.2581381    0.5079007   -1.2479721  0.00   -0.0007446   -0.0003312    0.0012948
h    -3.3440590   -0.2891066    0.2224544  0.00   -0.0007855    0.0012388   -0.0011055
o    -1.6036240    2.5520901   -0.4888026  0.00    0.0009844    0.0005219   -0.0022686
o    -2.0037867    2.4754318    1.8790053  0.00   -0.0004151   -0.0004149    0.0022757
h    -1.0595493    2.8389239    1.8452290  0.00    0.0001178    0.0001885   -0.0002078
    13
 Energy =       0.0343790278
c    -3.8461794    1.7163606    0.3373514  0.00    0.0000055    0.0004852    0.0004708
c    -2.4485327    2.2618949    0.5857535  0.00   -0.0010743   -0.0003786   -0.0001197
c    -4.6892437    2.6818553   -0.4998852  0.00    0.0000423   -0.0001676   -0.0000044
h    -4.7861330    3.6626682    0.0140019  0.00    0.0000948    0.0001318    0.0001321
h    -5.7033179    2.2562750   -0.6579093  0.00    0.0000097    0.0000021   -0.0000709
h    -4.2172706    2.8435245   -1.4942170  0.00   -0.0000156   -0.0000197   -0.0001730
n    -3.8322392    0.4119563   -0.3434000  0.00    0.0004506   -0.0005721   -0.0002239
h    -4.3173940    1.6060821    1.3437765  0.00    0.0000940    0.0000830    0.0000359
h    -3.2486224    0.4764987   -1.2135895  0.00   -0.0001673   -0.0002386    0.0003386
h    -3.3563687   -0.2882719    0.2740139  0.00   -0.0002311    0.0003422   -0.0003335
o    -1.5921486    2.5248819   -0.4796650  0.00    0.0009329    0.0004264   -0.0021129
o    -2.0225276    2.5115055    1.8838588  0.00   -0.0002698   -0.0002288    0.0022291
h    -1.0754892    2.8678756    1.8529585  0.00    0.0001284    0.0001348   -0.0001684
    13
 Energy =       0.0343668987
c    -3.8397924    1.7035698    0.3363300  0.00    0.0004164    0.0006869    0.0006964
c    -2.4418998    2.2514682    0.5786303  0.00   -0.0005593   -0.0002651   -0.0000703
c    -4.7027564    2.6892125   -0.4575254  0.00   -0.0005900    0.0000040   -0.0001206
h    -4.7992202    3.6530007    0.0888543  0.00   -0.0000859    0.0006571    0.0003675
h    -5.7161427    2.2611235   -0.6132600  0.00   -0.0000281    0.0000192   -0.0000345
h    -4.2471304    2.8857004   -1.4538778  0.00    0.0002286    0.0001326   -0.0007761
n    -3.8283185    0.4201453   -0.3845505  0.00   -0.0005696   -0.0006180   -0.0003974
h    -4.2939858    1.5591945    1.3469842  0.00   -0.0002000    0.0000100    0.0007076
h    -3.2615554    0.5161810   -1.2638327  0.00    0.0004762   -0.0001585   -0.0007654
h    -3.3349947   -0.2953607    0.2022571  0.00    0.0004056   -0.0006748    0.0004217
o    -1.5909977    2.5164628   -0.4900242  0.00    0.0005706    0.0002551   -0.0012914
o    -2.0123597    2.5069244    1.8740096  0.00   -0.0001611   -0.0001359    0.0013594
h    -1.0663133    2.8654844    1.8390537  0.00    0.0000967    0.0000875   -0.0000968
    13
 Energy =       0.0343568219
c    -3.8359871    1.6949363    0.3353180  0.00   -0.0000794   -0.0001438   -0.0001834
c    -2.4392526    2.2464868    0.5771500  0.00   -0.0002602   -0.0001680   -0.0005769
c    -4.7062177    2.6853977   -0.4423372  0.00    0.0001124    0.0000077    0.0000324
h    -4.8053598    3.6409569    0.1162903  0.00    0.0000051   -0.0000961   -0.0000750
h    -5.7180848    2.2542745   -0.5996404  0.00    0.0000012   -0.0000128    0.0000164
h    -4.2551728    2.8966962   -1.4367462  0.00   -0.0000165   -0.0000285    0.0001257
n    -3.8237638    0.4206322   -0.3996410  0.00    0.0000408    0.0001475    0.0001138
h    -4.2846287    1.5371599    1.3455997  0.00    0.0000020   -0.0000093   -0.0001209
h    -3.2639373    0.5298509   -1.2811876  0.00   -0.0000344    0.0000459    0.0000778
h    -3.3226106   -0.2984531    0.1749726  0.00   -0.0000512    0.0000721   -0.0000233
o    -1.5764661    2.4791039   -0.4887373  0.00    0.0000670    0.0000033   -0.0004038
o    -2.0255367    2.5452305    1.8683518  0.00    0.0002250    0.0001992    0.0010046
h    -1.0784490    2.9008339    1.8336560  0.00   -0.0000119   -0.0000171    0.0000125
    13
 Energy =       0.0343562899
c    -3.8358138    1.6944270    0.3353611  0.00   -0.0000001    0.0000004    0.0000008
c    -2.4390027    2.2456094    0.5773674  0.00   -0.0000070   -0.0000013   -0.0000045
c    -4.7059509    2.6856045   -0.4417654  0.00    0.0000001    0.0000000   -0.0000004
h    -4.8046432    3.6409969    0.1174597  0.00    0.0000000    0.0000002   -0.0000004
h    -5.7180005    2.2549173   -0.5990535  0.00   -0.0000000   -0.0000002   -0.0000003
h    -4.2551150    2.8972255   -1.4363234  0.00    0.0000002   -0.0000003   -0.0000004
n    -3.8239273    0.4203163   -0.4002848  0.00   -0.0000005   -0.0000000    0.0000002
h    -4.2843002    1.5362877    1.3457627  0.00   -0.0000002    0.0000003    0.0000001
h    -3.2646425    0.5298454   -1.2821864  0.00    0.0000003   -0.0000003   -0.0000000
h    -3.3223258   -0.2990623    0.1736562  0.00    0.0000002   -0.0000004    0.0000008
o    -1.5743695    2.4741828   -0.4876564  0.00    0.0000049    0.0000023   -0.0000124
o    -2.0273163    2.5487662    1.8675765  0.00    0.0000019   -0.0000011    0.0000169
h    -1.0800594    2.9039899    1.8331349  0.00    0.0000002    0.0000003   -0.0000004
    13
 Energy =       0.0343562863
c    -3.8357719    1.6942832    0.3353455  0.00    0.0000000    0.0000000    0.0000001
c    -2.4389293    2.2453701    0.5773896  0.00   -0.0000004   -0.0000002   -0.0000003
c    -4.7058836    2.6856458   -0.4415681  0.00   -0.0000000    0.0000000   -0.0000000
h    -4.8045042    3.6409383    0.1178426  0.00   -0.0000000    0.0000000    0.0000000
h    -5.7179635    2.2550424   -0.5988906  0.00   -0.0000000   -0.0000000   -0.0000000
h    -4.2550760    2.8974240   -1.4361042  0.00    0.0000000    0.0000000   -0.0000000
n    -3.8239940    0.4202947   -0.4005174  0.00   -0.0000000   -0.0000000   -0.0000000
h    -4.2842201    1.5359964    1.3457403  0.00   -0.0000000   -0.0000000    0.0000000
h    -3.2647951    0.5299541   -1.2824573  0.00    0.0000000    0.0000000   -0.0000000
h    -3.3223475   -0.2991945    0.1732435  0.00    0.0000000   -0.0000000    0.0000000
o    -1.5738636    2.4728765   -0.4875026  0.00    0.0000004    0.0000001   -0.0000008
o    -2.0277228    2.5497178    1.8674627  0.00    0.0000000    0.0000001    0.0000012
h    -1.0803956    2.9047581    1.8330645  0.00    0.0000000    0.0000000   -0.0000000
