    13
 Energy =       0.1436512319
c    -3.7133889    1.6950595    0.3173519  0.00   -0.0475429    0.0502117    0.1585261
c    -2.4962693    2.6345192    0.2419999  0.00    0.2007471    0.1164980   -0.3153862
c    -4.9565486    2.3924193   -0.2155699  0.00    0.0183344    0.0066087    0.0042732
h    -5.8072983    1.7014095   -0.2223689  0.00    0.0137856    0.0093227   -0.0032158
h    -4.8071186    2.7393792   -1.2437896  0.00   -0.0059156   -0.0064453    0.0176938
h    -5.2375685    3.2516891    0.4029209  0.00   -0.0004637   -0.0147897   -0.0116906
n    -3.4097890    0.4519539   -0.4549189  0.00    0.0454078   -0.0398556   -0.0564098
h    -3.8575589    1.4177196    1.3669296  0.00    0.1093302    0.0972494    0.0427858
h    -4.2340588    0.2238779   -1.0206697  0.00    0.0213617    0.0314988    0.0220474
h    -2.6878492    0.6694128   -1.1486897  0.00   -0.0287241    0.0125856    0.0380790
o    -1.9513094    3.0041591   -0.7839488  0.00   -0.1318691   -0.0960772    0.2479386
o    -2.1005994    3.0267291    1.4825496  0.00   -0.0693198   -0.0546553    0.0081889
h    -2.6645092    2.5096893    2.1108994  0.00   -0.1251315   -0.1121517   -0.1528305
    13
 Energy =       0.0988024656
c    -3.6920478    1.6850804    0.2822121  0.00   -0.0117831    0.0252116    0.0742669
c    -2.5388041    2.6833144    0.2529406  0.00    0.0804926    0.0501722   -0.1293247
c    -5.0125679    2.3450052   -0.1436560  0.00    0.0054535    0.0031571    0.0026488
h    -5.8300104    1.5984727   -0.1401976  0.00    0.0044409    0.0022000   -0.0003399
h    -4.9320298    2.7809042   -1.1630814  0.00   -0.0021792    0.0007558    0.0022046
h    -5.2996324    3.1525046    0.5616740  0.00   -0.0025966   -0.0032483   -0.0015560
n    -3.3933528    0.4884056   -0.5503560  0.00    0.0200888   -0.0206287   -0.0230638
h    -3.7715551    1.3561652    1.3364215  0.00    0.0621487    0.0546608    0.0296615
h    -4.2129212    0.2391902   -1.1372847  0.00    0.0094675    0.0127180    0.0076388
h    -2.6425278    0.7120782   -1.2343116  0.00   -0.0110111    0.0067469    0.0160381
o    -1.9346644    3.0433396   -0.8634602  0.00   -0.0533448   -0.0456731    0.1013514
o    -2.1328817    3.1502282    1.4785506  0.00   -0.0129357    0.0126914   -0.0220373
h    -2.5308710    2.4833292    2.1532444  0.00   -0.0882414   -0.0987636   -0.0574884
    13
 Energy =       0.0835126775
c    -3.7048187    1.6601232    0.2664970  0.00   -0.0017962    0.0144721    0.0371867
c    -2.4859020    2.5827774    0.2557694  0.00    0.0342984    0.0234473   -0.0517571
c    -4.9912134    2.4259314   -0.1055296  0.00    0.0047030    0.0014649   -0.0037342
h    -5.8828878    1.7572258   -0.0096747  0.00   -0.0061232   -0.0043737    0.0010610
h    -4.9271281    2.7975716   -1.1546715  0.00    0.0005993    0.0002823   -0.0016668
h    -5.1453521    3.3049203    0.5739498  0.00   -0.0027048    0.0072566    0.0058473
n    -3.5315458    0.4631332   -0.6010355  0.00    0.0079622   -0.0192569   -0.0032876
h    -3.7791097    1.3130186    1.3200363  0.00    0.0363824    0.0306749    0.0184302
h    -4.3652247    0.3180383   -1.2233550  0.00   -0.0052565    0.0044292   -0.0025252
h    -2.7144734    0.5950734   -1.2506978  0.00    0.0051477    0.0056405    0.0015856
o    -1.8558597    2.9190920   -0.9036467  0.00   -0.0206651   -0.0198018    0.0404458
o    -2.0359866    3.0678521    1.4697959  0.00    0.0019054    0.0165562   -0.0179279
h    -2.5043644    2.5132603    2.1952581  0.00   -0.0544527   -0.0607915   -0.0236578
    13
 Energy =       0.0808326332
c    -3.7343279    1.6671487    0.2719347  0.00   -0.0017433    0.0112001    0.0258247
c    -2.4896214    2.5567370    0.2809983  0.00    0.0225030    0.0172493   -0.0338908
c    -4.9880392    2.4557869   -0.1609186  0.00    0.0023354    0.0019707   -0.0021602
h    -5.8951436    1.8072653   -0.0908461  0.00   -0.0049101   -0.0033863    0.0009142
h    -4.8764944    2.8129927   -1.2118067  0.00    0.0005214    0.0005992   -0.0023254
h    -5.1476296    3.3443702    0.5004370  0.00   -0.0021047    0.0052668    0.0043100
n    -3.5695503    0.4416417   -0.5555411  0.00   -0.0017224   -0.0171630    0.0236270
h    -3.8628265    1.3512786    1.3321904  0.00    0.0263966    0.0223002    0.0154576
h    -4.3291851    0.3717581   -1.2935494  0.00   -0.0194389    0.0035570   -0.0139650
h    -2.6457656    0.4657905   -1.0919447  0.00    0.0284659    0.0048016   -0.0128442
o    -1.8029580    2.8334131   -0.8748369  0.00   -0.0117794   -0.0135951    0.0252583
o    -2.0474239    3.0600789    1.4935355  0.00    0.0019802    0.0128411   -0.0136708
h    -2.5349008    2.5497560    2.2330433  0.00   -0.0405036   -0.0456416   -0.0165355
    13
 Energy =       0.0792226387
c    -3.7524937    1.6813257    0.2932541  0.00   -0.0005451    0.0108355    0.0223560
c    -2.4663431    2.5160862    0.2835468  0.00    0.0146439    0.0139900   -0.0237553
c    -4.9538708    2.5004729   -0.2329826  0.00   -0.0001502    0.0043938   -0.0001443
h    -5.8926587    1.8989580   -0.1558295  0.00   -0.0053178   -0.0035340    0.0015284
h    -4.7887625    2.7890579   -1.3011014  0.00    0.0012498    0.0018140   -0.0053772
h    -5.0959335    3.4341479    0.3697969  0.00   -0.0027986    0.0066165    0.0046797
n    -3.6174800    0.3973827   -0.4520520  0.00    0.0004569   -0.0191460    0.0207619
h    -3.9353294    1.4399543    1.3699308  0.00    0.0201238    0.0168825    0.0165894
h    -4.4022133    0.2688265   -1.1545073  0.00   -0.0175541    0.0003399   -0.0152036
h    -2.7173298    0.3856486   -1.0230194  0.00    0.0248183    0.0039902   -0.0117061
o    -1.7260860    2.6746600   -0.8735413  0.00   -0.0036233   -0.0101073    0.0113405
o    -2.0319040    3.0868458    1.4719029  0.00    0.0033542    0.0129133   -0.0110953
h    -2.5434615    2.6446511    2.2372977  0.00   -0.0346578   -0.0389885   -0.0099742
    13
 Energy =       0.0749255903
c    -3.7411371    1.6720518    0.3022079  0.00   -0.0006995    0.0049335    0.0113846
c    -2.4829547    2.5492557    0.2681785  0.00   -0.0002444    0.0001094    0.0036434
c    -4.9691102    2.4472672   -0.2197931  0.00   -0.0003716    0.0025176   -0.0002417
h    -5.8896642    1.8258718   -0.1249267  0.00   -0.0027927   -0.0017993    0.0006263
h    -4.8249320    2.7238306   -1.2914294  0.00    0.0006016    0.0009538   -0.0026152
h    -5.1236572    3.3842656    0.3666630  0.00   -0.0011484    0.0030981    0.0021754
n    -3.5778043    0.3954662   -0.4391798  0.00    0.0002417   -0.0094154    0.0111184
h    -3.9111730    1.4240115    1.3772478  0.00    0.0109361    0.0087774    0.0087790
h    -4.3732675    0.2221938   -1.1100553  0.00   -0.0094727    0.0004879   -0.0084462
h    -2.7022995    0.4101153   -1.0331580  0.00    0.0126271    0.0017127   -0.0053318
o    -1.8547894    2.8334131   -0.9474470  0.00    0.0062283    0.0003558   -0.0118075
o    -1.9883193    3.1080498    1.4436559  0.00    0.0033229    0.0087775   -0.0047462
h    -2.4847581    2.7222255    2.2407319  0.00   -0.0192283   -0.0205091   -0.0045385
    13
 Energy =       0.0743212115
c    -3.7371787    1.6822030    0.3174216  0.00   -0.0026777    0.0029731    0.0078849
c    -2.4801599    2.5596785    0.1770237  0.00   -0.0021582   -0.0013826    0.0023307
c    -4.9949226    2.4350811   -0.1637458  0.00   -0.0003556    0.0015744    0.0001464
h    -5.9058043    1.8102033   -0.0093679  0.00   -0.0033553   -0.0020860    0.0005446
h    -4.9052837    2.6852155   -1.2486491  0.00    0.0005079    0.0010223   -0.0035437
h    -5.1262075    3.3850977    0.4054895  0.00   -0.0006844    0.0023962    0.0018729
n    -3.6167657    0.3791618   -0.3858144  0.00   -0.0019205   -0.0083291    0.0070549
h    -3.8527798    1.4716285    1.4096773  0.00    0.0067399    0.0054104    0.0083499
h    -4.4102836    0.2134730   -1.0571952  0.00   -0.0063866    0.0003629   -0.0055471
h    -2.7392260    0.3418127   -0.9731869  0.00    0.0100553    0.0007126   -0.0050556
o    -1.9420144    2.8151325   -1.0888280  0.00    0.0071047    0.0016308   -0.0142306
o    -1.8872352    3.1416254    1.3005361  0.00    0.0082189    0.0112806   -0.0016482
h    -2.3260049    2.7977047    2.1493349  0.00   -0.0150883   -0.0155657    0.0018409
    13
 Energy =       0.0738722867
c    -3.7538618    1.6906675    0.3175063  0.00   -0.0020518    0.0025722    0.0035756
c    -2.4805160    2.5363206    0.1404615  0.00   -0.0039091   -0.0028624   -0.0020477
c    -5.0080093    2.4698271   -0.1258706  0.00   -0.0007960    0.0009081    0.0000022
h    -5.9234366    1.8581955    0.0425889  0.00   -0.0018857   -0.0011180    0.0002452
h    -4.9407120    2.7289827   -1.2087756  0.00    0.0002907    0.0004863   -0.0020945
h    -5.1092469    3.4155535    0.4544578  0.00   -0.0004612    0.0016059    0.0012287
n    -3.6866194    0.3854024   -0.3867246  0.00   -0.0020098   -0.0060760    0.0152938
h    -3.8514716    1.4817276    1.4094114  0.00    0.0029486    0.0028945    0.0044143
h    -4.4292275    0.2969663   -1.1339079  0.00   -0.0124032   -0.0002402   -0.0098910
h    -2.7621663    0.2728529   -0.8933025  0.00    0.0155407    0.0005113   -0.0076243
o    -2.0086552    2.8124998   -1.1441113  0.00    0.0041858    0.0006406   -0.0103262
o    -1.7913257    3.0549606    1.2445315  0.00    0.0084771    0.0093513    0.0041461
h    -2.1786181    2.7140611    2.1164308  0.00   -0.0079262   -0.0086734    0.0030779
    13
 Energy =       0.0733755764
c    -3.7834260    1.7023819    0.3189731  0.00    0.0013882   -0.0039272   -0.0026725
c    -2.4608685    2.4857693    0.2256642  0.00    0.0015096   -0.0008242   -0.0013256
c    -4.9646376    2.5365946   -0.2251437  0.00   -0.0026783    0.0034211    0.0005316
h    -5.9236511    1.9857357   -0.0896363  0.00   -0.0025022   -0.0011510    0.0009957
h    -4.8187319    2.7552465   -1.3104640  0.00    0.0004612    0.0012311   -0.0032170
h    -5.0453034    3.5065084    0.3151111  0.00   -0.0008690    0.0009708    0.0001120
n    -3.7247363    0.3924170   -0.3690102  0.00    0.0003713    0.0007758    0.0005236
h    -3.9776001    1.5030898    1.4002467  0.00   -0.0014242   -0.0019537    0.0031332
h    -4.4971795    0.2636979   -1.0659048  0.00    0.0006001   -0.0008452   -0.0019334
h    -2.8363281    0.2844311   -0.9170221  0.00   -0.0006601   -0.0007230    0.0011331
o    -1.9579107    2.8134605   -1.0283039  0.00   -0.0004886   -0.0000529   -0.0008305
o    -1.7573447    2.9043832    1.3594000  0.00    0.0029932    0.0028652    0.0030508
h    -2.1761484    2.5843017    2.2187855  0.00    0.0012987    0.0002133    0.0004990
    13
 Energy =       0.0733709964
c    -3.7822615    1.6956878    0.3174917  0.00    0.0011034   -0.0030204   -0.0017964
c    -2.4503836    2.4616596    0.2215007  0.00    0.0008419   -0.0008973   -0.0007942
c    -4.9538947    2.5479294   -0.2162954  0.00   -0.0022268    0.0027896    0.0003338
h    -5.9189252    2.0085526   -0.0807911  0.00   -0.0020760   -0.0009606    0.0007927
h    -4.8097631    2.7704619   -1.3004223  0.00    0.0003620    0.0009852   -0.0025894
h    -5.0195143    3.5154107    0.3301997  0.00   -0.0007088    0.0008916    0.0001472
n    -3.7457481    0.3878075   -0.3766259  0.00    0.0003451    0.0003228    0.0005819
h    -3.9723359    1.4936262    1.3982836  0.00   -0.0011777   -0.0015783    0.0025023
h    -4.5161249    0.2786665   -1.0792574  0.00    0.0002055   -0.0007111   -0.0017528
h    -2.8556064    0.2637264   -0.9189271  0.00   -0.0002892   -0.0005697    0.0008159
o    -1.9227859    2.7464509   -1.0337350  0.00    0.0000510    0.0001869   -0.0021110
o    -1.7657199    2.9125945    1.3543647  0.00    0.0032761    0.0028551    0.0015800
h    -2.2108028    2.6354437    2.2169096  0.00    0.0002935   -0.0002939    0.0022901
    13
 Energy =       0.0733581317
c    -3.7794802    1.6818034    0.3121531  0.00    0.0005104    0.0003084    0.0005044
c    -2.4393526    2.4274851    0.2120951  0.00   -0.0005809   -0.0006169    0.0002848
c    -4.9416124    2.5612173   -0.1864994  0.00   -0.0007190    0.0004182   -0.0002044
h    -5.9109687    2.0326915   -0.0541901  0.00   -0.0002824   -0.0001365    0.0000582
h    -4.8077627    2.8046197   -1.2653623  0.00    0.0000247    0.0001100   -0.0005646
h    -4.9852848    3.5162338    0.3832300  0.00   -0.0001263    0.0005735    0.0002772
n    -3.7775893    0.3854119   -0.4057307  0.00    0.0006438   -0.0010597    0.0023428
h    -3.9536870    1.4638531    1.3902604  0.00   -0.0002446   -0.0001733    0.0004563
h    -4.5262916    0.3275174   -1.1393194  0.00   -0.0024768   -0.0003117   -0.0023262
h    -2.8723707    0.2293261   -0.9165900  0.00    0.0017986    0.0000278   -0.0005009
o    -1.8788217    2.6558010   -1.0409582  0.00    0.0007268    0.0003528   -0.0027613
o    -1.7829832    2.9230795    1.3412461  0.00    0.0023909    0.0013605   -0.0018975
h    -2.2676614    2.7089781    2.2023612  0.00   -0.0016652   -0.0008530    0.0043314
    13
 Energy =       0.0733135622
c    -3.7620868    1.6556297    0.3013945  0.00    0.0003555    0.0011252    0.0001134
c    -2.4315291    2.4184722    0.2077104  0.00   -0.0006637   -0.0007771   -0.0015633
c    -4.9414756    2.5472200   -0.1318681  0.00   -0.0009796    0.0004101    0.0003378
h    -5.9035920    2.0057193   -0.0003676  0.00   -0.0001487   -0.0000483    0.0001390
h    -4.8341000    2.8380472   -1.2027930  0.00    0.0001363    0.0004140   -0.0014538
h    -4.9793558    3.4767018    0.4800874  0.00   -0.0002583    0.0010860    0.0006289
n    -3.7655261    0.3917559   -0.4740833  0.00    0.0000508   -0.0019088    0.0010207
h    -3.9076954    1.3863815    1.3734723  0.00   -0.0004653   -0.0006480    0.0015239
h    -4.5350876    0.3558415   -1.1854573  0.00   -0.0009575   -0.0002236   -0.0012261
h    -2.8753895    0.2677080   -1.0194618  0.00    0.0017156   -0.0005787   -0.0013056
o    -1.8494045    2.6252064   -1.0380841  0.00   -0.0000964   -0.0000603   -0.0009950
o    -1.8147113    2.9668221    1.3351808  0.00    0.0015746    0.0012828    0.0009499
h    -2.3239125    2.7825119    2.1869656  0.00   -0.0002632   -0.0000732    0.0018301
    13
 Energy =       0.0732886525
c    -3.7573169    1.6478631    0.2976985  0.00   -0.0000492   -0.0000936    0.0000892
c    -2.4237459    2.4054146    0.2063055  0.00   -0.0001207   -0.0000222    0.0002865
c    -4.9345520    2.5479528   -0.1168810  0.00    0.0001080   -0.0000653   -0.0001004
h    -5.8981839    2.0095559    0.0151284  0.00    0.0000192    0.0000099   -0.0000333
h    -4.8336074    2.8494740   -1.1837560  0.00   -0.0000217   -0.0000805    0.0002049
h    -4.9632123    3.4697758    0.5047050  0.00    0.0000350   -0.0001176   -0.0000741
n    -3.7737075    0.3935587   -0.4899037  0.00    0.0000573    0.0002123   -0.0001618
h    -3.8950909    1.3680973    1.3663444  0.00    0.0000542    0.0000991   -0.0002332
h    -4.5489221    0.3674738   -1.1940728  0.00    0.0001053    0.0000056    0.0001274
h    -2.8894830    0.2707013   -1.0421523  0.00   -0.0002728    0.0000881    0.0002302
o    -1.8212133    2.5857296   -1.0337072  0.00    0.0001802    0.0000556   -0.0005049
o    -1.8269940    2.9793168    1.3297386  0.00    0.0002555    0.0000243   -0.0004629
h    -2.3578372    2.8231040    2.1732483  0.00   -0.0003503   -0.0001158    0.0006325
    13
 Energy =       0.0732873341
c    -3.7557612    1.6446852    0.2970328  0.00    0.0000024    0.0000181    0.0000007
c    -2.4213208    2.4009916    0.2072139  0.00   -0.0000395   -0.0000530   -0.0000539
c    -4.9322424    2.5479999   -0.1134412  0.00   -0.0000146    0.0000091    0.0000077
h    -5.8965182    2.0106533    0.0183580  0.00   -0.0000028   -0.0000005    0.0000016
h    -4.8321894    2.8525250   -1.1797768  0.00    0.0000028    0.0000094   -0.0000265
h    -4.9588771    3.4681626    0.5109523  0.00   -0.0000027    0.0000184    0.0000103
n    -3.7747254    0.3926287   -0.4945033  0.00   -0.0000029   -0.0000341    0.0000235
h    -3.8923198    1.3615422    1.3652723  0.00   -0.0000089   -0.0000177    0.0000273
h    -4.5521889    0.3688925   -1.1964171  0.00   -0.0000199   -0.0000016   -0.0000208
h    -2.8920361    0.2706711   -1.0498192  0.00    0.0000361   -0.0000102   -0.0000291
o    -1.8101653    2.5696485   -1.0299475  0.00    0.0000112   -0.0000026   -0.0000855
o    -1.8336319    2.9877863    1.3287928  0.00    0.0000531    0.0000621    0.0000737
h    -2.3718897    2.8418306    2.1689788  0.00   -0.0000144    0.0000025    0.0000709
    13
 Energy =       0.0732873163
c    -3.7558008    1.6447971    0.2970433  0.00    0.0000000    0.0000000    0.0000000
c    -2.4213692    2.4011147    0.2072166  0.00   -0.0000000   -0.0000001   -0.0000001
c    -4.9322961    2.5479926   -0.1135474  0.00   -0.0000000    0.0000000    0.0000000
h    -5.8965484    2.0106119    0.0182676  0.00   -0.0000000   -0.0000000    0.0000000
h    -4.8322268    2.8524136   -1.1798838  0.00   -0.0000000    0.0000000   -0.0000000
h    -4.9589894    3.4681940    0.5107514  0.00    0.0000000    0.0000000    0.0000000
n    -3.7747031    0.3926835   -0.4943538  0.00    0.0000000   -0.0000000   -0.0000000
h    -3.8924013    1.3617746    1.3652774  0.00    0.0000000   -0.0000000    0.0000000
h    -4.5521178    0.3688417   -1.1962940  0.00   -0.0000000    0.0000000   -0.0000000
h    -2.8919981    0.2707144   -1.0495910  0.00    0.0000000    0.0000000   -0.0000000
o    -1.8103719    2.5700559   -1.0299304  0.00    0.0000000   -0.0000000   -0.0000001
o    -1.8334241    2.9874549    1.3287927  0.00    0.0000000    0.0000001    0.0000001
h    -2.3716192    2.8413688    2.1689472  0.00   -0.0000000    0.0000000    0.0000000
    13
 Energy =       0.0732873163
c    -3.7558024    1.6447999    0.2970441  0.00   -0.0000000    0.0000000    0.0000000
c    -2.4213714    2.4011184    0.2072162  0.00   -0.0000000   -0.0000000   -0.0000000
c    -4.9322980    2.5479929   -0.1135512  0.00   -0.0000000    0.0000000   -0.0000000
h    -5.8965500    2.0106117    0.0182638  0.00   -0.0000000   -0.0000000   -0.0000000
h    -4.8322273    2.8524107   -1.1798884  0.00   -0.0000000    0.0000000   -0.0000000
h    -4.9589932    3.4681962    0.5107446  0.00   -0.0000000    0.0000000    0.0000000
n    -3.7747023    0.3926838   -0.4943489  0.00    0.0000000   -0.0000000    0.0000000
h    -3.8924047    1.3617809    1.3652789  0.00   -0.0000000   -0.0000000    0.0000000
h    -4.5521148    0.3688398   -1.1962915  0.00   -0.0000000   -0.0000000   -0.0000000
h    -2.8919956    0.2707135   -1.0495833  0.00    0.0000000   -0.0000000   -0.0000000
o    -1.8103815    2.5700693   -1.0299331  0.00    0.0000000   -0.0000000   -0.0000000
o    -1.8334182    2.9874475    1.3287937  0.00    0.0000000    0.0000000    0.0000000
h    -2.3716068    2.8413530    2.1689508  0.00   -0.0000000   -0.0000000    0.0000000
