    27
 Energy =       0.3558438814
c    -1.4235396    2.6054793   -0.0667700  0.00   -0.0462912    0.0382574    0.0024745
c    -1.3072796    1.2134697   -0.1072300  0.00   -0.0851454   -0.0326302    0.0017298
c    -0.0178900    0.6711998   -0.1697000  0.00   -0.0894592   -0.1876386    0.0003125
c    -0.2940599    3.4190890   -0.0891300  0.00   -0.0231859    0.0690065    0.0026854
c     0.9872197    2.8590292   -0.1560400  0.00    0.0102002    0.0639383    0.0006502
c     1.1340797    1.4562096   -0.1970299  0.00    0.0528804    0.0515038    0.0025982
n     0.3879399   -0.6395298   -0.2140799  0.00    0.1450429    0.1104303   -0.0080912
c     2.2666594    0.5727398   -0.2659299  0.00    0.1573192   -0.0887547   -0.0150350
c     1.7555995   -0.7123598   -0.2706899  0.00   -0.0968952   -0.0948208   -0.0033635
h    -0.2400399   -1.4313496   -0.2047299  0.00    0.0358255    0.0473872    0.0009920
c     3.7030089    1.0223397   -0.3320099  0.00   -0.0405449    0.0118985   -0.0292452
c     4.2197688    1.4064496   -1.7267995  0.00    0.0149945    0.0476971    0.0697234
h     4.3261788    0.2093419    0.0639454  0.00   -0.0115797    0.0095636   -0.0025419
h     3.8370289    1.8640295    0.3610799  0.00   -0.0059780   -0.0122379   -0.0040917
c     3.7734089    0.3331939   -2.7369592  0.00   -0.2906005   -0.1690761   -0.0819352
n     5.7205784    1.5052196   -1.8052095  0.00    0.0717737   -0.0343587   -0.1160500
h     3.7949889    2.3605393   -2.0604594  0.00    0.0270183   -0.0110770   -0.0004559
h     6.0369683    0.7723488   -2.4485593  0.00   -0.3619213   -0.2246769   -0.2275815
h     5.9490683    2.3775193   -2.2948593  0.00   -0.0149273   -0.0285275    0.0143154
h    -2.4108593    3.0588691   -0.0157800  0.00   -0.0009112    0.0003052    0.0002268
h    -2.1896094    0.5822398   -0.0890100  0.00   -0.0036510    0.0037092    0.0003604
h    -0.4052699    4.5000487   -0.0535400  0.00    0.0008644    0.0003727    0.0004806
h     1.8590495    3.5066790   -0.1715100  0.00   -0.0008374    0.0031084    0.0008868
h     2.2327294   -1.6813195   -0.3062999  0.00   -0.0404727   -0.0120949    0.0041574
o     2.6230993   -0.0215760   -2.9339992  0.00    0.2697833    0.0926271    0.0639799
o     4.8385586   -0.1871039   -3.4042990  0.00    0.3254417    0.3076172    0.3043959
h     4.8114886   -1.1600297   -3.2111791  0.00    0.0012569    0.0384708    0.0184218
    27
 Energy =       0.3238217849
c    -1.4281399    2.6674320   -0.1071571  0.00   -0.0389112    0.0321035    0.0021055
c    -1.3187498    1.2807211   -0.1456389  0.00   -0.0716347   -0.0274959    0.0014942
c    -0.0406030    0.7334028   -0.2031056  0.00   -0.0749322   -0.1577999    0.0005075
c    -0.2967551    3.4713811   -0.1276623  0.00   -0.0195901    0.0580126    0.0022919
c     0.9756426    2.9045093   -0.1889805  0.00    0.0086197    0.0538308    0.0005604
c     1.1066555    1.5088688   -0.2258004  0.00    0.0443088    0.0434954    0.0021909
n     0.3444171   -0.5903111   -0.2455754  0.00    0.1211922    0.0927660   -0.0073695
c     2.2272731    0.6333441   -0.2786544  0.00    0.1319635   -0.0740239   -0.0119485
c     1.7233232   -0.6486372   -0.2698387  0.00   -0.0810366   -0.0797174   -0.0028196
h    -0.2882148   -1.3854842   -0.2461906  0.00    0.0300896    0.0398342    0.0007327
c     3.6709445    1.0660185   -0.3297565  0.00   -0.0386048    0.0093176   -0.0234275
c     4.2516645    1.3300512   -1.7382433  0.00    0.0095034    0.0378877    0.0553305
h     4.2724543    0.2808784    0.1641397  0.00   -0.0073155    0.0041674    0.0004162
h     3.7905495    1.9687697    0.2943587  0.00   -0.0054127   -0.0069005   -0.0008497
c     3.7989979    0.2379851   -2.7204223  0.00   -0.2445462   -0.1413358   -0.0688891
n     5.7567744    1.3490569   -1.7412524  0.00    0.0631412   -0.0390471   -0.0931985
h     3.8873592    2.2891328   -2.1484048  0.00    0.0201624   -0.0052935   -0.0023939
h     6.0770336    0.6135957   -2.3929877  0.00   -0.3086681   -0.1933134   -0.1951166
h     6.0799023    2.2423847   -2.1546629  0.00   -0.0077255   -0.0137910    0.0073259
h    -2.4130500    3.1263110   -0.0602730  0.00   -0.0007939    0.0002605    0.0001942
h    -2.2032220    0.6524750   -0.1301539  0.00   -0.0030730    0.0031045    0.0003040
h    -0.4013282    4.5531207   -0.0949268  0.00    0.0007144    0.0003396    0.0004072
h     1.8532292    3.5441905   -0.2025734  0.00   -0.0005796    0.0025769    0.0007325
h     2.2261216   -1.6055712   -0.2894369  0.00   -0.0337447   -0.0104184    0.0035600
o     2.6204235   -0.1245295   -2.8988395  0.00    0.2266662    0.0772809    0.0541194
o     4.8518542   -0.3400129   -3.3648159  0.00    0.2793174    0.2723093    0.2541493
h     4.8443166   -1.2963171   -3.0599228  0.00    0.0008900    0.0218499    0.0195905
    27
 Energy =       0.3045185298
c    -1.3888963    2.6117364   -0.0627214  0.00   -0.0336078    0.0277983    0.0018037
c    -1.2809659    1.2291612   -0.1138070  0.00   -0.0619481   -0.0238970    0.0013136
c    -0.0091411    0.6820190   -0.1696501  0.00   -0.0647220   -0.1352931    0.0009854
c    -0.2581711    3.4120376   -0.0738807  0.00   -0.0169423    0.0502036    0.0019267
c     1.0090854    2.8441198   -0.1367193  0.00    0.0075080    0.0466161    0.0003930
c     1.1319292    1.4545637   -0.1829845  0.00    0.0381755    0.0379042    0.0017067
n     0.3663881   -0.6488175   -0.2557266  0.00    0.1048732    0.0790299   -0.0069454
c     2.2458964    0.5902606   -0.2521996  0.00    0.1133606   -0.0629285   -0.0093610
c     1.7529095   -0.6911917   -0.2720497  0.00   -0.0704040   -0.0683894   -0.0019536
h    -0.2663369   -1.4488892   -0.2778647  0.00    0.0258419    0.0341458    0.0004774
c     3.6884812    1.0229304   -0.3369832  0.00   -0.0376482    0.0079996   -0.0183299
c     4.1859243    1.4003814   -1.7561758  0.00    0.0075627    0.0317303    0.0445327
h     4.3184840    0.1968470    0.0584752  0.00   -0.0031388   -0.0008143    0.0025032
h     3.8405962    1.8772943    0.3530658  0.00   -0.0048751   -0.0034165    0.0022266
c     3.7338304    0.3488835   -2.7814000  0.00   -0.2106046   -0.1246803   -0.0610650
n     5.6864921    1.4785690   -1.8105141  0.00    0.0573743   -0.0384819   -0.0795002
h     3.7585284    2.3721868   -2.0809832  0.00    0.0149012    0.0000356   -0.0035508
h     6.0132394    0.7389975   -2.4577841  0.00   -0.2709434   -0.1707517   -0.1711938
h     5.9537633    2.3706021   -2.2746355  0.00   -0.0050901   -0.0081011    0.0040954
h    -2.3733083    3.0716677   -0.0173940  0.00   -0.0006920    0.0002200    0.0001691
h    -2.1656553    0.6009099   -0.1149486  0.00   -0.0027594    0.0025806    0.0002513
h    -0.3607660    4.4937599   -0.0344614  0.00    0.0006209    0.0003196    0.0003496
h     1.8895179    3.4799265   -0.1466894  0.00   -0.0004528    0.0022091    0.0006020
h     2.2758349   -1.6366138   -0.3336034  0.00   -0.0287744   -0.0099994    0.0030377
o     2.5370095   -0.0239780   -2.9470764  0.00    0.1963219    0.0662652    0.0470861
o     4.7804589   -0.2270339   -3.4464470  0.00    0.2425003    0.2724263    0.2031220
h     4.9037457   -1.1375640   -2.9816190  0.00    0.0035625   -0.0127307    0.0353176
    27
 Energy =       0.2943668564
c    -1.3682813    2.6109953   -0.0448172  0.00   -0.0311529    0.0258313    0.0016911
c    -1.2651470    1.2312625   -0.1278249  0.00   -0.0572563   -0.0227497    0.0012137
c     0.0024208    0.6806020   -0.1727853  0.00   -0.0585145   -0.1203997    0.0022144
c    -0.2349513    3.4056208   -0.0221208  0.00   -0.0153157    0.0466931    0.0017285
c     1.0287659    2.8338096   -0.0773943  0.00    0.0070487    0.0433928    0.0002967
c     1.1437602    1.4474574   -0.1487195  0.00    0.0354806    0.0356027    0.0015639
n     0.3677829   -0.6500440   -0.3436243  0.00    0.0945290    0.0690641   -0.0079664
c     2.2524053    0.5853488   -0.2249808  0.00    0.1052193   -0.0572031   -0.0085372
c     1.7586772   -0.6933622   -0.2844934  0.00   -0.0617350   -0.0612181   -0.0010592
h    -0.2691632   -1.4472522   -0.4366178  0.00    0.0213525    0.0283306   -0.0001460
c     3.6965370    1.0138374   -0.3233137  0.00   -0.0348636    0.0073251   -0.0167963
c     4.1687217    1.4073286   -1.7483837  0.00    0.0068402    0.0292014    0.0409475
h     4.3308436    0.1808741    0.0508292  0.00   -0.0027358   -0.0009222    0.0023930
h     3.8626354    1.8605738    0.3732621  0.00   -0.0045020   -0.0030719    0.0021829
c     3.7112886    0.3638182   -2.7779840  0.00   -0.1942143   -0.1148648   -0.0565985
n     5.6666030    1.4982587   -1.8187055  0.00    0.0531414   -0.0358161   -0.0732293
h     3.7269861    2.3790513   -2.0548936  0.00    0.0136129    0.0002317   -0.0033413
h     5.9959992    0.7516423   -2.4610280  0.00   -0.2508723   -0.1584309   -0.1587879
h     5.9203783    2.3861000   -2.2997629  0.00   -0.0045722   -0.0071530    0.0035831
h    -2.3515387    3.0741758   -0.0082650  0.00   -0.0007234    0.0001546    0.0001559
h    -2.1523569    0.6066808   -0.1720433  0.00   -0.0032828    0.0017222    0.0001685
h    -0.3333303    4.4870147    0.0373894  0.00    0.0006453    0.0005270    0.0003293
h     1.9126606    3.4651621   -0.0624351  0.00   -0.0001739    0.0022823    0.0005575
h     2.2881400   -1.6335295   -0.3728371  0.00   -0.0268619   -0.0098608    0.0027779
o     2.5054331   -0.0173623   -2.9299892  0.00    0.1810191    0.0609555    0.0438250
o     4.7505643   -0.2210805   -3.4480380  0.00    0.2243403    0.2527965    0.1877519
h     4.8530393   -1.1442172   -3.0072007  0.00    0.0035473   -0.0124206    0.0330814
    27
 Energy =       0.2865146966
c    -1.3673141    2.6031975   -0.0420480  0.00   -0.0299998    0.0248711    0.0016358
c    -1.2618497    1.2228359   -0.0967620  0.00   -0.0549720   -0.0223397    0.0010934
c     0.0050761    0.6750534   -0.1524572  0.00   -0.0550742   -0.1121404    0.0020775
c    -0.2360837    3.4005492   -0.0512685  0.00   -0.0143971    0.0450402    0.0016836
c     1.0270812    2.8309744   -0.1154713  0.00    0.0068849    0.0418554    0.0003276
c     1.1429877    1.4451056   -0.1641944  0.00    0.0342464    0.0346097    0.0015121
n     0.3695962   -0.6662890   -0.2517168  0.00    0.0880439    0.0636578   -0.0074604
c     2.2516804    0.5879295   -0.2399731  0.00    0.1014723   -0.0543489   -0.0081739
c     1.7655185   -0.6934299   -0.2683983  0.00   -0.0557399   -0.0572227   -0.0013714
h    -0.2663994   -1.4730035   -0.2778647  0.00    0.0181911    0.0242564   -0.0001498
c     3.6943588    1.0187350   -0.3400875  0.00   -0.0334102    0.0070491   -0.0160730
c     4.1649206    1.4100992   -1.7634626  0.00    0.0065116    0.0279746    0.0392634
h     4.3312933    0.1882903    0.0355449  0.00   -0.0026170   -0.0008869    0.0022983
h     3.8595682    1.8673877    0.3545896  0.00   -0.0043121   -0.0029428    0.0020924
c     3.7134001    0.3649892   -2.7921135  0.00   -0.1860808   -0.1099376   -0.0539249
n     5.6609801    1.5063211   -1.8259728  0.00    0.0508427   -0.0344585   -0.0699459
h     3.7195630    2.3795958   -2.0725015  0.00    0.0130288    0.0002302   -0.0032033
h     5.9942564    0.7699770   -2.4784025  0.00   -0.2406853   -0.1521491   -0.1524133
h     5.9155103    2.4033182   -2.2901770  0.00   -0.0042886   -0.0066047    0.0033089
h    -2.3511279    3.0644714    0.0031776  0.00   -0.0007671    0.0001071    0.0001489
h    -2.1478812    0.5939664   -0.1025839  0.00   -0.0037373    0.0011301    0.0001505
h    -0.3361330    4.4827914   -0.0102012  0.00    0.0006873    0.0006950    0.0003220
h     1.9099920    3.4642486   -0.1257243  0.00    0.0000849    0.0024120    0.0005330
h     2.3022844   -1.6302689   -0.3485222  0.00   -0.0259486   -0.0096495    0.0025963
o     2.5005652   -0.0053588   -2.9576975  0.00    0.1732460    0.0583418    0.0420590
o     4.7526417   -0.2084290   -3.4762110  0.00    0.2153207    0.2426919    0.1797112
h     4.8543887   -1.1402913   -3.0562778  0.00    0.0034695   -0.0122415    0.0319018
    27
 Energy =       0.2696904117
c    -1.3497546    2.5917570   -0.0242815  0.00   -0.0262777    0.0217241    0.0014282
c    -1.2438916    1.2132827   -0.0525185  0.00   -0.0479985   -0.0199169    0.0008226
c     0.0182745    0.6662955   -0.1190888  0.00   -0.0472214   -0.0953752    0.0010717
c    -0.2204179    3.3877258   -0.0650265  0.00   -0.0122935    0.0394894    0.0015345
c     1.0387274    2.8177544   -0.1392563  0.00    0.0061488    0.0367040    0.0003843
c     1.1502364    1.4353863   -0.1662165  0.00    0.0300313    0.0305868    0.0013715
n     0.3785769   -0.6843091   -0.1559936  0.00    0.0744911    0.0537989   -0.0054171
c     2.2544430    0.5861496   -0.2454408  0.00    0.0890180   -0.0469672   -0.0071028
c     1.7783898   -0.6957329   -0.2450444  0.00   -0.0457215   -0.0486904   -0.0021712
h    -0.2553820   -1.4975404   -0.1191116  0.00    0.0138666    0.0185916    0.0001973
c     3.6962292    1.0161541   -0.3594066  0.00   -0.0291689    0.0062426   -0.0139611
c     4.1459072    1.4170733   -1.7835562  0.00    0.0055957    0.0242958    0.0341291
h     4.3397280    0.1839812    0.0017528  0.00   -0.0022003   -0.0008475    0.0020521
h     3.8714308    1.8613216    0.3376224  0.00   -0.0037544   -0.0025373    0.0018690
c     3.7004050    0.3756524   -2.8145056  0.00   -0.1621859   -0.0956160   -0.0460241
n     5.6368968    1.5320470   -1.8448162  0.00    0.0441832   -0.0303882   -0.0605985
h     3.6842367    2.3826305   -2.0827584  0.00    0.0112855    0.0003465   -0.0028353
h     5.9791677    0.8091824   -2.5111622  0.00   -0.2117882   -0.1344867   -0.1344574
h     5.8820328    2.4414633   -2.2915643  0.00   -0.0036123   -0.0053630    0.0027205
h    -2.3329609    3.0533267    0.0297011  0.00   -0.0007393    0.0000546    0.0001287
h    -2.1285720    0.5826061   -0.0225541  0.00   -0.0037656    0.0005381    0.0001437
h    -0.3199096    4.4706442   -0.0418066  0.00    0.0006663    0.0007822    0.0002869
h     1.9222355    3.4495637   -0.1753781  0.00    0.0003506    0.0023190    0.0004529
h     2.3296898   -1.6243788   -0.3259991  0.00   -0.0226603   -0.0085410    0.0021362
o     2.4704818    0.0184713   -2.9941105  0.00    0.1505885    0.0509668    0.0364991
o     4.7341158   -0.1837936   -3.5255951  0.00    0.1893830    0.2168596    0.1556445
h     4.8085576   -1.1439480   -3.1706626  0.00    0.0037793   -0.0145707    0.0296947
    27
 Energy =       0.2514774033
c    -1.3235443    2.5832683   -0.0032717  0.00   -0.0216074    0.0178235    0.0011642
c    -1.2207703    1.2080308   -0.0260331  0.00   -0.0394798   -0.0164019    0.0006271
c     0.0345935    0.6587153   -0.0964887  0.00   -0.0387929   -0.0784361    0.0007336
c    -0.1939625    3.3738526   -0.0528820  0.00   -0.0101210    0.0324718    0.0012806
c     1.0593959    2.8003021   -0.1309789  0.00    0.0050781    0.0302028    0.0003355
c     1.1621052    1.4226235   -0.1527918  0.00    0.0246595    0.0252019    0.0011453
n     0.3857348   -0.6983768   -0.1269490  0.00    0.0611540    0.0442197   -0.0042487
c     2.2589953    0.5800320   -0.2360692  0.00    0.0732350   -0.0385730   -0.0058148
c     1.7899529   -0.7001311   -0.2310944  0.00   -0.0375621   -0.0399261   -0.0019739
h    -0.2489293   -1.5135961   -0.0786887  0.00    0.0113419    0.0152161    0.0002033
c     3.7015988    1.0055865   -0.3630715  0.00   -0.0241776    0.0051748   -0.0114194
c     4.1260371    1.4247686   -1.7880883  0.00    0.0045242    0.0199514    0.0278424
h     4.3502131    0.1671496   -0.0249957  0.00   -0.0016340   -0.0008994    0.0017818
h     3.8914136    1.8422267    0.3411129  0.00   -0.0030785   -0.0019928    0.0016709
c     3.6832965    0.3937129   -2.8266718  0.00   -0.1331935   -0.0786429   -0.0367317
n     5.6114047    1.5602440   -1.8508908  0.00    0.0360903   -0.0255705   -0.0493036
h     3.6459595    2.3876017   -2.0692299  0.00    0.0091578    0.0005508   -0.0023968
h     5.9641870    0.8548715   -2.5358979  0.00   -0.1773515   -0.1138798   -0.1135409
h     5.8451291    2.4846037   -2.2750212  0.00   -0.0028024   -0.0037781    0.0019937
h    -2.3051549    3.0477178    0.0535244  0.00   -0.0006203    0.0000426    0.0001049
h    -2.1058160    0.5789040    0.0114408  0.00   -0.0031193    0.0004198    0.0001152
h    -0.2899347    4.4571078   -0.0341786  0.00    0.0005493    0.0006613    0.0002383
h     1.9455543    3.4276136   -0.1749440  0.00    0.0003344    0.0019202    0.0003621
h     2.3559535   -1.6198333   -0.3194967  0.00   -0.0185490   -0.0070894    0.0017194
o     2.4329615    0.0522404   -3.0198332  0.00    0.1234694    0.0421342    0.0297165
o     4.7067867   -0.1560523   -3.5658730  0.00    0.1586739    0.1974882    0.1252459
h     4.7057131   -1.1604173   -3.3294157  0.00    0.0038217   -0.0282888    0.0291491
    27
 Energy =       0.2360597063
c    -1.2978040    2.5732034    0.0164502  0.00   -0.0173412    0.0142701    0.0009205
c    -1.1998487    1.2008607   -0.0064623  0.00   -0.0316914   -0.0131745    0.0004786
c     0.0485905    0.6477540   -0.0804997  0.00   -0.0310987   -0.0629472    0.0005845
c    -0.1667527    3.3572834   -0.0366796  0.00   -0.0081573    0.0260568    0.0010248
c     1.0805732    2.7788064   -0.1180380  0.00    0.0040893    0.0242561    0.0002583
c     1.1733166    1.4053237   -0.1399743  0.00    0.0197559    0.0202549    0.0009178
n     0.3889751   -0.7155411   -0.1155655  0.00    0.0490832    0.0354374   -0.0033909
c     2.2624017    0.5673438   -0.2280174  0.00    0.0587934   -0.0309086   -0.0046202
c     1.7977179   -0.7105764   -0.2248066  0.00   -0.0301745   -0.0319868   -0.0016504
h    -0.2480920   -1.5315962   -0.0661941  0.00    0.0091006    0.0122200    0.0001644
c     3.7065839    0.9871267   -0.3632157  0.00   -0.0197009    0.0041699   -0.0090701
c     4.1095492    1.4339277   -1.7851274  0.00    0.0036263    0.0161092    0.0221821
h     4.3578892    0.1394441   -0.0529241  0.00   -0.0010826   -0.0010390    0.0015692
h     3.9108877    1.8098643    0.3540289  0.00   -0.0024473   -0.0014199    0.0015562
c     3.6668048    0.4221287   -2.8399866  0.00   -0.1065838   -0.0631436   -0.0284294
n     5.5899140    1.5869208   -1.8466559  0.00    0.0283294   -0.0214352   -0.0383088
h     3.6144702    2.3968532   -2.0418339  0.00    0.0071968    0.0007960   -0.0019853
h     5.9525907    0.9087879   -2.5587983  0.00   -0.1451921   -0.0948664   -0.0945992
h     5.8148704    2.5310496   -2.2338208  0.00   -0.0019355   -0.0016756    0.0011013
h    -2.2773316    3.0415828    0.0756548  0.00   -0.0005118    0.0000361    0.0000840
h    -2.0862740    0.5744088    0.0327852  0.00   -0.0025071    0.0003286    0.0000900
h    -0.2578961    4.4408953   -0.0184140  0.00    0.0004360    0.0005436    0.0001919
h     1.9700578    3.4008655   -0.1650932  0.00    0.0003026    0.0015401    0.0002727
h     2.3756901   -1.6227333   -0.3209044  0.00   -0.0148266   -0.0057385    0.0013667
o     2.3971340    0.0997788   -3.0467444  0.00    0.0986620    0.0339996    0.0234565
o     4.6782648   -0.1176456   -3.6077714  0.00    0.1312336    0.1758950    0.1000532
h     4.6065913   -1.1433506   -3.4881688  0.00    0.0026417   -0.0375778    0.0257814
    27
 Energy =       0.2232781641
c    -1.2732636    2.5611474    0.0343726  0.00   -0.0134970    0.0110790    0.0006975
c    -1.1823796    1.1913231    0.0054214  0.00   -0.0246448   -0.0102708    0.0003673
c     0.0587685    0.6325999   -0.0729014  0.00   -0.0241235   -0.0488715    0.0005353
c    -0.1392457    3.3372658   -0.0171117  0.00   -0.0063852    0.0202733    0.0007720
c     1.1015504    2.7521624   -0.1020292  0.00    0.0031931    0.0189001    0.0001632
c     1.1826213    1.3823789   -0.1301912  0.00    0.0153341    0.0157655    0.0006958
n     0.3864756   -0.7367407   -0.1199554  0.00    0.0382036    0.0274171   -0.0027086
c     2.2631221    0.5466856   -0.2243171  0.00    0.0457311   -0.0239799   -0.0035164
c     1.7997025   -0.7282991   -0.2290359  0.00   -0.0234738   -0.0248622   -0.0012935
h    -0.2547959   -1.5523635   -0.0761341  0.00    0.0070491    0.0094806    0.0001128
c     3.7100429    0.9588748   -0.3606911  0.00   -0.0157228    0.0031877   -0.0068982
c     4.0981658    1.4437090   -1.7738231  0.00    0.0029712    0.0127795    0.0171520
h     4.3607317    0.0988275   -0.0828350  0.00   -0.0005583   -0.0012824    0.0014232
h     3.9281073    1.7611615    0.3764409  0.00   -0.0018341   -0.0007730    0.0015672
c     3.6526723    0.4627221   -2.8552494  0.00   -0.0823748   -0.0490900   -0.0209265
n     5.5745459    1.6093024   -1.8283055  0.00    0.0202315   -0.0188253   -0.0260821
h     3.5931930    2.4101116   -1.9997501  0.00    0.0053937    0.0011151   -0.0016129
h     5.9454526    0.9786224   -2.5844650  0.00   -0.1150422   -0.0784239   -0.0786571
h     5.7955243    2.5818326   -2.1492566  0.00   -0.0006844    0.0026232   -0.0003567
h    -2.2500131    3.0348056    0.0964533  0.00   -0.0004193    0.0000369    0.0000659
h    -2.0713904    0.5689314    0.0419585  0.00   -0.0019578    0.0002365    0.0000688
h    -0.2238297    4.4212837    0.0054025  0.00    0.0003308    0.0004553    0.0001487
h     1.9952556    3.3679646   -0.1474228  0.00    0.0002806    0.0012015    0.0001830
h     2.3867198   -1.6345157   -0.3332151  0.00   -0.0114871   -0.0044984    0.0010629
o     2.3644358    0.1663401   -3.0780654  0.00    0.0760399    0.0265659    0.0175758
o     4.6499951   -0.0629844   -3.6551498  0.00    0.1062920    0.1516860    0.0786486
h     4.5167095   -1.0903825   -3.6469220  0.00    0.0011543   -0.0419258    0.0208122
    27
 Energy =       0.2167118215
c    -1.2611731    2.5457289    0.0387019  0.00   -0.0113474    0.0093054    0.0005775
c    -1.1773581    1.1774017   -0.0046275  0.00   -0.0206381   -0.0086986    0.0003281
c     0.0586514    0.6132778   -0.0850342  0.00   -0.0201647   -0.0408214    0.0005646
c    -0.1234631    3.3150779   -0.0006198  0.00   -0.0053200    0.0170441    0.0006144
c     1.1126240    2.7240393   -0.0866302  0.00    0.0026897    0.0159408    0.0000976
c     1.1840478    1.3564472   -0.1296050  0.00    0.0128532    0.0132093    0.0005548
n     0.3759166   -0.7597224   -0.1510208  0.00    0.0319959    0.0227520   -0.0023814
c     2.2582213    0.5202514   -0.2281978  0.00    0.0382717   -0.0200380   -0.0028509
c     1.7925033   -0.7519180   -0.2499741  0.00   -0.0196530   -0.0209007   -0.0010322
h    -0.2701455   -1.5738194   -0.1223035  0.00    0.0057745    0.0077768    0.0000765
c     3.7088563    0.9255007   -0.3506225  0.00   -0.0134082    0.0024564   -0.0055573
c     4.1005750    1.4520894   -1.7480592  0.00    0.0027226    0.0110882    0.0141589
h     4.3544277    0.0527015   -0.1004350  0.00   -0.0002981   -0.0014946    0.0013878
h     3.9326204    1.7036531    0.4111789  0.00   -0.0014026   -0.0002329    0.0017277
c     3.6507310    0.5122088   -2.8644463  0.00   -0.0690009   -0.0407238   -0.0163323
n     5.5763327    1.6145472   -1.7862743  0.00    0.0122245   -0.0218040   -0.0113078
h     3.5988098    2.4272136   -1.9445165  0.00    0.0042742    0.0014175   -0.0014627
h     5.9462989    1.0683449   -2.6142227  0.00   -0.0948699   -0.0721232   -0.0746704
h     5.8049381    2.6235592   -1.9905035  0.00    0.0017505    0.0138087   -0.0024876
h    -2.2354869    3.0241391    0.1020403  0.00   -0.0003660    0.0000398    0.0000564
h    -2.0694644    0.5591235    0.0209930  0.00   -0.0016885    0.0001330    0.0000594
h    -0.2018798    4.3992983    0.0329415  0.00    0.0002830    0.0004669    0.0001243
h     2.0102722    3.3346311   -0.1213174  0.00    0.0003080    0.0010631    0.0001325
h     2.3832623   -1.6554798   -0.3599112  0.00   -0.0096123   -0.0037873    0.0009028
o     2.3507379    0.2437908   -3.1041425  0.00    0.0630389    0.0221008    0.0138652
o     4.6357721    0.0148168   -3.7002944  0.00    0.0909796    0.1326615    0.0655401
h     4.4722461   -1.0041363   -3.7698748  0.00    0.0006034   -0.0406395    0.0173143
    27
 Energy =       0.2083301321
c    -1.2335549    2.5781393    0.0678493  0.00   -0.0091612    0.0073895    0.0004520
c    -1.1594649    1.2107852    0.0296866  0.00   -0.0165532   -0.0069907    0.0002256
c     0.0693979    0.6381714   -0.0598622  0.00   -0.0160749   -0.0325934    0.0003750
c    -0.0915181    3.3380915    0.0145940  0.00   -0.0042493    0.0136795    0.0004973
c     1.1376458    2.7378985   -0.0807261  0.00    0.0022182    0.0127682    0.0000908
c     1.1966741    1.3720530   -0.1186343  0.00    0.0102973    0.0105527    0.0004659
n     0.3735981   -0.7398747   -0.1212215  0.00    0.0254247    0.0181358   -0.0017931
c     2.2617147    0.5325181   -0.2252982  0.00    0.0305370   -0.0159953   -0.0022486
c     1.7916441   -0.7362286   -0.2379820  0.00   -0.0155668   -0.0167013   -0.0009128
h    -0.2776196   -1.5509337   -0.0803656  0.00    0.0045003    0.0061031    0.0000848
c     3.7140962    0.9271793   -0.3681486  0.00   -0.0105696    0.0018526   -0.0044261
c     4.0871572    1.4405529   -1.7745659  0.00    0.0018624    0.0092355    0.0104695
h     4.3587926    0.0532341   -0.1205844  0.00   -0.0002146   -0.0011928    0.0010987
h     3.9533481    1.7107959    0.3834523  0.00   -0.0010700   -0.0000759    0.0015054
c     3.6324852    0.4839449   -2.8742022  0.00   -0.0574938   -0.0323251   -0.0108769
n     5.5595443    1.6193503   -1.8189613  0.00    0.0037287   -0.0204086    0.0055897
h     3.5727255    2.4088395   -1.9727881  0.00    0.0031795    0.0011862   -0.0012175
h     5.9534558    0.9664686   -2.5649593  0.00   -0.0726079   -0.0685467   -0.0710536
h     5.7779485    2.6034532   -2.1492566  0.00    0.0035571    0.0237069   -0.0055016
h    -2.2037926    3.0637928    0.1384080  0.00   -0.0003582    0.0000440    0.0000475
h    -2.0551636    0.5985256    0.0667691  0.00   -0.0014276    0.0000520    0.0000468
h    -0.1615626    4.4229823    0.0442248  0.00    0.0002276    0.0004201    0.0001013
h     2.0397277    3.3411758   -0.1268151  0.00    0.0003318    0.0009047    0.0001074
h     2.3827893   -1.6392199   -0.3548132  0.00   -0.0076464   -0.0030289    0.0006994
o     2.3192896    0.2506658   -3.1281487  0.00    0.0491665    0.0179356    0.0112794
o     4.6135910   -0.0879379   -3.6705706  0.00    0.0806418    0.1166315    0.0514922
h     4.3559247   -1.0816569   -3.8038575  0.00   -0.0026793   -0.0427391    0.0134013
    27
 Energy =       0.1984348168
c    -1.1911922    2.5998079    0.1189147  0.00   -0.0062246    0.0049762    0.0002618
c    -1.1341046    1.2342367    0.0668991  0.00   -0.0110812   -0.0046908    0.0001234
c     0.0834815    0.6478761   -0.0403006  0.00   -0.0105482   -0.0214144    0.0003153
c    -0.0412048    3.3443637    0.0619443  0.00   -0.0029739    0.0092229    0.0002883
c     1.1768916    2.7296347   -0.0507058  0.00    0.0015838    0.0085525    0.0000114
c     1.2153983    1.3667006   -0.1029349  0.00    0.0067915    0.0069367    0.0003095
n     0.3659389   -0.7366012   -0.1215105  0.00    0.0168410    0.0116788   -0.0011846
c     2.2658857    0.5211979   -0.2301583  0.00    0.0202476   -0.0105581   -0.0014574
c     1.7863649   -0.7412056   -0.2532091  0.00   -0.0101081   -0.0111643   -0.0006894
h    -0.2948334   -1.5420837   -0.0832471  0.00    0.0028854    0.0039592    0.0000536
c     3.7219965    0.8995170   -0.3873892  0.00   -0.0071607    0.0011977   -0.0029149
c     4.0723063    1.4396994   -1.7886131  0.00    0.0016725    0.0063834    0.0062260
h     4.3618526    0.0132207   -0.1719545  0.00    0.0002287   -0.0012147    0.0008590
h     3.9844899    1.6648224    0.3757797  0.00   -0.0006109    0.0002437    0.0013733
c     3.5998571    0.5055134   -2.8991384  0.00   -0.0376795   -0.0223193   -0.0049425
n     5.5409367    1.6278928   -1.8404049  0.00    0.0005943   -0.0147675    0.0080552
h     3.5505816    2.4103956   -1.9561469  0.00    0.0017387    0.0011828   -0.0008238
h     5.9485489    0.9246766   -2.5296381  0.00   -0.0500272   -0.0515070   -0.0530022
h     5.7535372    2.5851669   -2.2385825  0.00    0.0031237    0.0197500   -0.0046291
h    -2.1545248    3.0970621    0.2033069  0.00   -0.0004060    0.0001288    0.0000425
h    -2.0364505    0.6323777    0.1060668  0.00   -0.0010120   -0.0000200    0.0000286
h    -0.0968653    4.4297900    0.1025560  0.00    0.0001047    0.0004501    0.0000723
h     2.0865158    3.3210779   -0.0992539  0.00    0.0003148    0.0006520    0.0000469
h     2.3758315   -1.6435612   -0.3890808  0.00   -0.0049379   -0.0021474    0.0004307
o     2.2682723    0.3465642   -3.1846558  0.00    0.0279160    0.0125272    0.0068721
o     4.5621909   -0.1369646   -3.6676774  0.00    0.0677376    0.0987330    0.0381269
h     4.1971716   -1.0784115   -3.9076433  0.00   -0.0090101   -0.0467716    0.0061470
    27
 Energy =       0.1968170171
c    -1.1938030    2.5893682    0.1065398  0.00   -0.0058600    0.0046202    0.0002530
c    -1.1384987    1.2250866    0.0285015  0.00   -0.0102052   -0.0046113    0.0001161
c     0.0787390    0.6387916   -0.0764757  0.00   -0.0097315   -0.0195782    0.0003384
c    -0.0420359    3.3327292    0.0770114  0.00   -0.0024930    0.0086799    0.0002513
c     1.1758301    2.7180221   -0.0329741  0.00    0.0015294    0.0081488    0.0000117
c     1.2120167    1.3566100   -0.1111089  0.00    0.0063494    0.0064079    0.0002707
n     0.3590284   -0.7450225   -0.1854286  0.00    0.0153485    0.0104011   -0.0011385
c     2.2621624    0.5128178   -0.2411120  0.00    0.0186179   -0.0093958   -0.0013360
c     1.7819297   -0.7481602   -0.2964561  0.00   -0.0093132   -0.0104958   -0.0007162
h    -0.3040291   -1.5502844   -0.1745466  0.00    0.0022605    0.0031472    0.0000441
c     3.7211705    0.8919986   -0.3712330  0.00   -0.0063851    0.0009779   -0.0025268
c     4.0867958    1.4574173   -1.7582084  0.00    0.0022369    0.0058773    0.0054767
h     4.3570900    0.0005776   -0.1653659  0.00    0.0002201   -0.0011777    0.0008355
h     3.9759985    1.6428275    0.4090216  0.00   -0.0004671    0.0004037    0.0014403
c     3.6051888    0.5525226   -2.8877386  0.00   -0.0296902   -0.0196396   -0.0009929