    13
 Energy =       0.1154290307
c    -3.7133889    1.6950595    0.3173519  0.00   -0.1106742    0.0591066    0.0099732
c    -2.4962693    2.6345192    0.2419999  0.00    0.3735910   -0.0421487    0.0883250
c    -4.9565486    2.3924193   -0.2155699  0.00    0.0491383    0.0196580   -0.0038370
h    -5.2099685    3.2528291    0.4143399  0.00    0.0022763   -0.0147574   -0.0100605
h    -5.8205883    1.7190695   -0.2147749  0.00    0.0116970    0.0111397   -0.0023043
h    -4.8083986    2.7651692   -1.2348596  0.00    0.0011717   -0.0003753    0.0194306
n    -3.4097890    0.4519539   -0.4549189  0.00    0.0438671   -0.0412485   -0.0484256
h    -3.8575589    1.4177196    1.3669296  0.00   -0.0011639   -0.0028147   -0.0230029
h    -4.2340588    0.2238779   -1.0206697  0.00    0.0224174    0.0309033    0.0207004
h    -2.6878492    0.6694128   -1.1486897  0.00   -0.0287214    0.0096311    0.0336235
o    -1.4040496    2.4172293    0.7380088  0.00   -0.2648992    0.0527002   -0.1122149
o    -2.7835192    3.7545589   -0.4737969  0.00   -0.0710316   -0.0623556    0.0034823
h    -2.2118794    3.7013989   -1.2803496  0.00   -0.0276684   -0.0194388    0.0243103
    13
 Energy =       0.0819111305
c    -3.6767297    1.6914581    0.2860713  0.00   -0.0341346    0.0193873    0.0021861
c    -2.5197904    2.6795935    0.2175675  0.00    0.1266802   -0.0199724    0.0199637
c    -4.9816570    2.3611961   -0.1595370  0.00    0.0218435    0.0121133   -0.0021174
h    -5.2086602    3.2265157    0.4943270  0.00    0.0009395   -0.0046604   -0.0028087
h    -5.8313960    1.6530354   -0.0944826  0.00    0.0018692    0.0022876    0.0000537
h    -4.8925340    2.7425104   -1.1956958  0.00    0.0031370    0.0019636    0.0057591
n    -3.4017171    0.4753927   -0.5196300  0.00    0.0143749   -0.0157499   -0.0131549
h    -3.7557060    1.3936772    1.3534028  0.00   -0.0001533   -0.0015448   -0.0055158
h    -4.2314585    0.2085565   -1.0879578  0.00    0.0070640    0.0106189    0.0059242
h    -2.6343073    0.6560105   -1.2007260  0.00   -0.0073747    0.0045815    0.0105703
o    -1.3432682    2.4203533    0.7814895  0.00   -0.0902897    0.0163579   -0.0360312
o    -2.7460093    3.8700568   -0.4413714  0.00   -0.0569476   -0.0000845    0.0601652
h    -2.3706325    3.7168614   -1.3984566  0.00    0.0129916   -0.0252981   -0.0449945
    13
 Energy =       0.0754529114
c    -3.6740741    1.6653350    0.2542585  0.00   -0.0169209    0.0109985    0.0019256
c    -2.5599472    2.7086241    0.2521800  0.00    0.0589081   -0.0082444    0.0064872
c    -5.0227250    2.2970616   -0.1311632  0.00    0.0106980    0.0081395   -0.0003116
h    -5.2764946    3.1236537    0.5688948  0.00   -0.0005099   -0.0005839   -0.0001456
h    -5.8367161    1.5418836   -0.0851234  0.00   -0.0004346   -0.0002944    0.0005649
h    -4.9692767    2.7292910   -1.1543885  0.00    0.0022911    0.0022528    0.0010137
n    -3.3631603    0.5114989   -0.6301253  0.00    0.0068739   -0.0133324   -0.0053418
h    -3.7303344    1.2956025    1.3060390  0.00   -0.0008682   -0.0020836    0.0001273
h    -4.1688852    0.2575901   -1.2467109  0.00    0.0024655    0.0030748   -0.0000359
h    -2.5664016    0.7368210   -1.2722398  0.00   -0.0004642    0.0031159    0.0025190
o    -1.3681271    2.4629811    0.8632735  0.00   -0.0408004    0.0084146   -0.0148058
o    -2.7707435    3.9165606   -0.3903032  0.00   -0.0315879    0.0034190    0.0444135
h    -2.2869808    3.8483142   -1.2995906  0.00    0.0103495   -0.0148764   -0.0364106
    13
 Energy =       0.0739111809
c    -3.7023817    1.6778254    0.2597587  0.00   -0.0119589    0.0105484    0.0040230
c    -2.6058882    2.7405233    0.2975437  0.00    0.0419953   -0.0058237    0.0024601
c    -5.0403293    2.2664665   -0.2360055  0.00    0.0046055    0.0051323   -0.0010099
h    -5.3515867    3.1212212    0.4101417  0.00   -0.0016693    0.0020324    0.0019213
h    -5.8422552    1.4975194   -0.2052640  0.00   -0.0008007   -0.0002293    0.0002446
h    -4.9320802    2.6508146   -1.2765539  0.00    0.0015563    0.0023518   -0.0019770
n    -3.3160893    0.4988385   -0.5634130  0.00    0.0072773   -0.0130907   -0.0009232
h    -3.8202217    1.3449305    1.3209297  0.00   -0.0006619   -0.0017095    0.0027614
h    -4.0709986    0.2157088   -1.2351563  0.00   -0.0016540    0.0006335   -0.0037628
h    -2.4660111    0.7023748   -1.1474523  0.00    0.0038862    0.0021461   -0.0018747
o    -1.4410293    2.5232470    0.9876339  0.00   -0.0264767    0.0059220   -0.0080380
o    -2.7969780    3.9427092   -0.3641737  0.00   -0.0303896    0.0043116    0.0445498
h    -2.2080172    3.9130382   -1.2129882  0.00    0.0142904   -0.0122250   -0.0383746
    13
 Energy =       0.0733883987
c    -3.7066140    1.6853773    0.2634335  0.00   -0.0101959    0.0096359    0.0064827
c    -2.5763769    2.7138798    0.2579773  0.00    0.0367204   -0.0104725    0.0041464
c    -5.0477228    2.3181353   -0.1706100  0.00    0.0025570    0.0042681   -0.0014878
h    -5.3041708    3.1798210    0.4919076  0.00   -0.0019162    0.0030537    0.0027700
h    -5.8717538    1.5735246   -0.1093429  0.00   -0.0016770   -0.0006417    0.0001367
h    -4.9726838    2.7037970   -1.2141725  0.00    0.0013261    0.0021499   -0.0024429
n    -3.3920921    0.4976552   -0.5796982  0.00    0.0083261   -0.0142228   -0.0011164
h    -3.7901454    1.3520013    1.3282404  0.00   -0.0005752   -0.0012925    0.0032293
h    -4.1742106    0.2568291   -1.2385604  0.00   -0.0031310   -0.0001697   -0.0048474
h    -2.5462032    0.6679174   -1.1807338  0.00    0.0045827    0.0020592   -0.0023472
o    -1.4605900    2.5256088    1.0430623  0.00   -0.0195837    0.0014486   -0.0019128
o    -2.6941738    3.8615412   -0.5229268  0.00   -0.0341109    0.0162332    0.0387401
h    -2.0571295    3.7591293   -1.3335757  0.00    0.0176776   -0.0120495   -0.0413507
    13
 Energy =       0.0737899051
c    -3.7067336    1.6805055    0.2563839  0.00   -0.0099384    0.0090839    0.0059426
c    -2.6008998    2.7354300    0.2865594  0.00    0.0307841   -0.0089038    0.0016730
c    -5.0553233    2.2885571   -0.1886249  0.00    0.0023079    0.0040085   -0.0014270
h    -5.3383783    3.1382258    0.4785948  0.00   -0.0018477    0.0030723    0.0027414
h    -5.8636395    1.5252772   -0.1452518  0.00   -0.0018644   -0.0008466    0.0001508
h    -4.9753749    2.6855822   -1.2273473  0.00    0.0012449    0.0019499   -0.0022926
n    -3.3539533    0.5116769   -0.5976528  0.00    0.0074189   -0.0135893    0.0002081
h    -3.8004214    1.3300159    1.3148324  0.00   -0.0006659   -0.0011705    0.0031359
h    -4.1095108    0.2785027   -1.2904928  0.00   -0.0038017   -0.0007239   -0.0054739
h    -2.4855678    0.6961554   -1.1624152  0.00    0.0054592    0.0020452   -0.0030746
o    -1.5204026    2.5900400    1.1342339  0.00   -0.0140525    0.0011605    0.0009277
o    -2.7114626    3.8727772   -0.5097415  0.00   -0.0310240    0.0147176    0.0347484
h    -2.0721985    3.7624714   -1.3140774  0.00    0.0159796   -0.0108039   -0.0372599
    13
 Energy =       0.0743438572
c    -3.7093570    1.6745863    0.2480954  0.00   -0.0096864    0.0085943    0.0053387
c    -2.6231855    2.7482930    0.3211411  0.00    0.0262272   -0.0075773   -0.0001041
c    -5.0603860    2.2674422   -0.2085641  0.00    0.0021733    0.0036790   -0.0012870
h    -5.3671496    3.1024438    0.4666510  0.00   -0.0017697    0.0030606    0.0027289
h    -5.8564537    1.4900537   -0.1889963  0.00   -0.0020223   -0.0010428    0.0001573
h    -4.9713029    2.6808909   -1.2400215  0.00    0.0011884    0.0018018   -0.0022605
n    -3.3231427    0.5275694   -0.6205116  0.00    0.0064414   -0.0129920    0.0019342
h    -3.8168361    1.3024698    1.2979659  0.00   -0.0007613   -0.0010992    0.0031839
h    -4.0497454    0.3126130   -1.3506228  0.00   -0.0047002   -0.0013156   -0.0064516
h    -2.4298982    0.7223471   -1.1429383  0.00    0.0066188    0.0021942   -0.0038350
o    -1.5820457    2.6293681    1.2249040  0.00   -0.0099454    0.0010400    0.0029752
o    -2.7169425    3.8814572   -0.4826334  0.00   -0.0284274    0.0133764    0.0312981
h    -2.0874211    3.7556826   -1.2894686  0.00    0.0146635   -0.0097194   -0.0336782
    13
 Energy =       0.0747557269
c    -3.7094244    1.6704026    0.2416341  0.00   -0.0091888    0.0080191    0.0047820
c    -2.6407502    2.7589941    0.3471424  0.00    0.0228716   -0.0065777   -0.0010442
c    -5.0637819    2.2503658   -0.2203717  0.00    0.0020384    0.0033828   -0.0011438
h    -5.3885661    3.0720768    0.4624600  0.00   -0.0016712    0.0029532    0.0026217
h    -5.8486895    1.4613467   -0.2186983  0.00   -0.0020294   -0.0011252    0.0001592
h    -4.9708858    2.6781987   -1.2454455  0.00    0.0011194    0.0016625   -0.0021565
n    -3.2979321    0.5428404   -0.6399095  0.00    0.0056476   -0.0122244    0.0026570
h    -3.8243238    1.2797163    1.2839399  0.00   -0.0007945   -0.0010368    0.0030839
h    -4.0023294    0.3435430   -1.3961457  0.00   -0.0048952   -0.0015695   -0.0066936
h    -2.3881643    0.7461908   -1.1299057  0.00    0.0069171    0.0021891   -0.0040194
o    -1.6323663    2.6600257    1.2920459  0.00   -0.0074103    0.0009359    0.0039935
o    -2.7196979    3.8878567   -0.4637266  0.00   -0.0262614    0.0122039    0.0284348
h    -2.1069545    3.7436596   -1.2780185  0.00    0.0136567   -0.0088127   -0.0306747
    13
 Energy =       0.0749424534
c    -3.7092298    1.6675810    0.2367602  0.00   -0.0085211    0.0073842    0.0042718
c    -2.6529072    2.7654417    0.3662444  0.00    0.0203294   -0.0058288   -0.0013554
c    -5.0658820    2.2395341   -0.2272501  0.00    0.0018922    0.0030786   -0.0010136
h    -5.4025150    3.0506776    0.4620416  0.00   -0.0015449    0.0027625    0.0024455
h    -5.8428703    1.4428683   -0.2387124  0.00   -0.0019288   -0.0011105    0.0001536
h    -4.9712305    2.6788088   -1.2471161  0.00    0.0010353    0.0015241   -0.0020138
n    -3.2810924    0.5556776   -0.6555781  0.00    0.0050161   -0.0112938    0.0027021
h    -3.8284154    1.2620440    1.2727832  0.00   -0.0007745   -0.0009694    0.0029047
h    -3.9714144    0.3675598   -1.4272394  0.00   -0.0046510   -0.0015797   -0.0063881
h    -2.3623131    0.7661542   -1.1247975  0.00    0.0066137    0.0020612   -0.0038468
o    -1.6690515    2.6778824    1.3389393  0.00   -0.0059559    0.0008273    0.0042485
o    -2.7172404    3.8907533   -0.4503759  0.00   -0.0241471    0.0111472    0.0257977
h    -2.1197043    3.7302343   -1.2706984  0.00    0.0126368   -0.0080028   -0.0279063
    13
 Energy =       0.0749942058
c    -3.7093599    1.6655403    0.2328953  0.00   -0.0078143    0.0067506    0.0038152
c    -2.6614654    2.7688488    0.3810953  0.00    0.0182153   -0.0052246   -0.0013906
c    -5.0673147    2.2330736   -0.2316198  0.00    0.0017435    0.0027836   -0.0009010
h    -5.4118290    3.0357521    0.4631979  0.00   -0.0014119    0.0025448    0.0022491
h    -5.8389141    1.4315516   -0.2533761  0.00   -0.0017891   -0.0010539    0.0001439
h    -4.9714960    2.6816779   -1.2471084  0.00    0.0009473    0.0013909   -0.0018604
n    -3.2701041    0.5663642   -0.6686212  0.00    0.0044838   -0.0103329    0.0025085
h    -3.8315073    1.2478413    1.2635685  0.00   -0.0007304   -0.0008993    0.0026987
h    -3.9519713    0.3857905   -1.4490768  0.00   -0.0042677   -0.0014930   -0.0058885
h    -2.3468312    0.7832493   -1.1250841  0.00    0.0061067    0.0018894   -0.0035585
o    -1.6962586    2.6871626    1.3734184  0.00   -0.0050050    0.0007249    0.0041708
o    -2.7113173    3.8911999   -0.4401937  0.00   -0.0220649    0.0101733    0.0233156
h    -2.1254974    3.7171652   -1.2640944  0.00    0.0115866   -0.0072539   -0.0253028
    13
 Energy =       0.0748790646
c    -3.7112454    1.6562104    0.2137966  0.00   -0.0063242    0.0051662    0.0005616
c    -2.6989114    2.7788662    0.4519859  0.00    0.0064311   -0.0025138   -0.0028990
c    -5.0741612    2.2098653   -0.2472576  0.00    0.0017277    0.0012962   -0.0000459
h    -5.4510125    2.9701495    0.4772550  0.00   -0.0010765    0.0023025    0.0020326
h    -5.8229217    1.3891273   -0.3191470  0.00   -0.0017844   -0.0016627    0.0001215
h    -4.9741735    2.7060649   -1.2399712  0.00    0.0007203    0.0011302   -0.0019612
n    -3.2263628    0.6209155   -0.7361224  0.00    0.0012975   -0.0079997    0.0009098
h    -3.8453738    1.1770006    1.2166766  0.00   -0.0010537   -0.0012320    0.0031390
h    -3.8786830    0.4715567   -1.5462635  0.00   -0.0025574   -0.0016833   -0.0044147
h    -2.2913674    0.8730750   -1.1459706  0.00    0.0049588    0.0013225   -0.0030148
o    -1.8216858    2.7149225    1.5321715  0.00    0.0045315   -0.0002489    0.0095706
o    -2.6655135    3.8847848   -0.3938556  0.00   -0.0159474    0.0087426    0.0106189
h    -2.1324544    3.6426784   -1.2282970  0.00    0.0090769   -0.0046196   -0.0146184
    13
 Energy =       0.0744274173
c    -3.7075922    1.6576085    0.2064731  0.00    0.0005791    0.0000088   -0.0001553
c    -2.6993035    2.7750286    0.4582399  0.00   -0.0014331   -0.0024512    0.0034964
c    -5.0823132    2.2142885   -0.2114200  0.00   -0.0006061   -0.0004044    0.0000768
h    -5.4510924    2.9465948    0.5408909  0.00   -0.0001108    0.0001319   -0.0000288
h    -5.8246622    1.3923032   -0.2945617  0.00    0.0003540    0.0002179    0.0000073
h    -5.0058685    2.7393169   -1.1894465  0.00   -0.0000597    0.0001003   -0.0003090
n    -3.2361191    0.6598495   -0.7807496  0.00   -0.0016467   -0.0007677    0.0049382
h    -3.8169585    1.1467239    1.1933349  0.00    0.0001277   -0.0000192    0.0002166
h    -3.9360349    0.4804077   -1.5423221  0.00   -0.0026338    0.0001516   -0.0023056
h    -2.3455722    0.9599435   -1.2514632  0.00    0.0048826    0.0008662   -0.0021671
o    -1.8424262    2.7041034    1.5455719  0.00   -0.0004463    0.0000171   -0.0018977
o    -2.5916981    3.8504992   -0.4176418  0.00    0.0019965    0.0011302   -0.0027710
h    -2.0542255    3.5685497   -1.2219049  0.00   -0.0010034    0.0010185    0.0008992
    13
 Energy =       0.0743841651
c    -3.7028151    1.6551687    0.1999943  0.00    0.0003727    0.0001515    0.0000066
c    -2.7027271    2.7811590    0.4490548  0.00   -0.0022253   -0.0013216   -0.0005473
c    -5.0896324    2.2050279   -0.1854051  0.00   -0.0004970   -0.0002303    0.0001566
h    -5.4558236    2.9160129    0.5888139  0.00   -0.0002548    0.0003418    0.0002743
h    -5.8240393    1.3763178   -0.2760957  0.00    0.0001002    0.0000097    0.0000516
h    -5.0328295    2.7527713   -1.1527482  0.00    0.0000036    0.0003180   -0.0005321
n    -3.2398728    0.6751531   -0.8096251  0.00   -0.0001507   -0.0005183    0.0020286
h    -3.7907680    1.1291113    1.1813430  0.00   -0.0000237   -0.0001978    0.0003920
h    -3.9391323    0.5195013   -1.5758080  0.00   -0.0012754   -0.0001645   -0.0013658
h    -2.3485851    0.9778447   -1.2726263  0.00    0.0019887    0.0004296   -0.0009128
o    -1.8940048    2.7550507    1.5780771  0.00    0.0018373   -0.0004804    0.0024260
o    -2.5695542    3.8289811   -0.4561267  0.00   -0.0004264    0.0018525   -0.0010615
h    -2.0040823    3.5231175   -1.2338472  0.00    0.0005506   -0.0001904   -0.0009163
    13
 Energy =       0.0743710907
c    -3.6978904    1.6520183    0.1947512  0.00    0.0000234    0.0001110    0.0001629
c    -2.6970794    2.7786746    0.4402189  0.00    0.0003051    0.0002959   -0.0000702
c    -5.0913778    2.2025337   -0.1625387  0.00   -0.0001021   -0.0000087   -0.0000229
h    -5.4480503    2.9007686    0.6270929  0.00   -0.0000568    0.0000794    0.0000957
h    -5.8248400    1.3730116   -0.2547167  0.00   -0.0000267   -0.0000061   -0.0000010
h    -5.0500422    2.7640440   -1.1222623  0.00   -0.0000032    0.0000474   -0.0001059
n    -3.2495902    0.6835234   -0.8324615  0.00    0.0003448   -0.0000551   -0.0004542
h    -3.7694343    1.1153360    1.1713575  0.00   -0.0000087   -0.0000309    0.0001096
h    -3.9539749    0.5448435   -1.5956277  0.00    0.0001348   -0.0000832    0.0000330
h    -2.3611214    0.9867272   -1.2967968  0.00   -0.0003886   -0.0000856    0.0001731
o    -1.9031233    2.7664354    1.5775597  0.00   -0.0001721    0.0000205   -0.0002674
o    -2.5585921    3.8191131   -0.4700408  0.00    0.0000316   -0.0003034    0.0002246
h    -1.9887503    3.5081878   -1.2415348  0.00   -0.0000815    0.0000189    0.0001227
    13
 Energy =       0.0743708113
c    -3.6976298    1.6519834    0.1944059  0.00    0.0000017    0.0000116    0.0000157
c    -2.6974965    2.7791095    0.4401744  0.00    0.0000201    0.0000268   -0.0000176
c    -5.0914701    2.2020292   -0.1615890  0.00   -0.0000104   -0.0000010   -0.0000020
h    -5.4480162    2.8993020    0.6287947  0.00   -0.0000060    0.0000084    0.0000102
h    -5.8245644    1.3722405   -0.2540940  0.00   -0.0000027   -0.0000008    0.0000000
h    -5.0508896    2.7644200   -1.1207308  0.00   -0.0000002    0.0000053   -0.0000111
n    -3.2494537    0.6846294   -0.8337228  0.00    0.0000337   -0.0000086   -0.0000394
h    -3.7683272    1.1144534    1.1705066  0.00   -0.0000012   -0.0000038    0.0000115
h    -3.9553248    0.5447532   -1.5953828  0.00    0.0000094   -0.0000085    0.0000003
h    -2.3624165    0.9896694   -1.3000737  0.00   -0.0000328   -0.0000054    0.0000129
o    -1.9077120    2.7701367    1.5806712  0.00   -0.0000056   -0.0000004   -0.0000059
o    -2.5562552    3.8175624   -0.4723101  0.00   -0.0000034   -0.0000219    0.0000204
h    -1.9843104    3.5049283   -1.2416487  0.00   -0.0000026   -0.0000018    0.0000049
    13
 Energy =       0.0743708109
c    -3.6976138    1.6519831    0.1943959  0.00   -0.0000000    0.0000000   -0.0000000
c    -2.6975092    2.7791193    0.4402003  0.00   -0.0000000   -0.0000000   -0.0000000
c    -5.0914457    2.2020139   -0.1615860  0.00   -0.0000000    0.0000000    0.0000000
h    -5.4479854    2.8992732    0.6287942  0.00    0.0000000    0.0000000   -0.0000000
h    -5.8245361    1.3722246   -0.2540912  0.00    0.0000000    0.0000000   -0.0000000
h    -5.0508695    2.7644103   -1.1207121  0.00    0.0000000    0.0000000   -0.0000000
n    -3.2494237    0.6846750   -0.8337434  0.00   -0.0000000   -0.0000000    0.0000001
h    -3.7683059    1.1144245    1.1704687  0.00   -0.0000000   -0.0000000    0.0000000
h    -3.9554384    0.5445840   -1.5952356  0.00   -0.0000001   -0.0000000   -0.0000000
h    -2.3625373    0.9898838   -1.3003156  0.00    0.0000001    0.0000000   -0.0000000
o    -1.9078690    2.7702373    1.5808038  0.00    0.0000000   -0.0000000    0.0000000
o    -2.5561661    3.8175313   -0.4723468  0.00   -0.0000000    0.0000000   -0.0000000
h    -1.9841664    3.5048571   -1.2416312  0.00    0.0000000   -0.0000000   -0.0000000
