    27
 Energy =       0.3343741152
c    -1.4235396    2.6054793   -0.0667700  0.00   -0.0462548    0.0382732    0.0026579
c    -1.3072796    1.2134697   -0.1072300  0.00   -0.0852844   -0.0325715    0.0019210
c    -0.0178900    0.6711998   -0.1697000  0.00   -0.0887356   -0.1878512   -0.0008745
c    -0.2940599    3.4190890   -0.0891300  0.00   -0.0231442    0.0690635    0.0028283
c     0.9872197    2.8590292   -0.1560400  0.00    0.0105428    0.0641587    0.0008399
c     1.1340797    1.4562096   -0.1970299  0.00    0.0531088    0.0518074    0.0022567
n     0.3879399   -0.6395298   -0.2140799  0.00    0.1451639    0.1080138   -0.0049391
c     2.2666594    0.5727398   -0.2659299  0.00    0.1500307   -0.0636827   -0.0066728
c     1.7555995   -0.7123598   -0.2706899  0.00   -0.0877300   -0.0974822    0.0097618
h    -0.2400399   -1.4313496   -0.2047299  0.00    0.0368341    0.0480988   -0.0000489
c     3.7030089    1.0223397   -0.3320099  0.00    0.0073256   -0.0141961   -0.0137827
c     4.7465686   -0.0024900    0.1378100  0.00    0.0135880    0.0844355    0.0268756
h     3.7978489    1.9290294    0.2803699  0.00   -0.0056607   -0.0079728   -0.0115138
h     3.9233889    1.3348996   -1.3618196  0.00   -0.0022237   -0.0038629    0.0159059
c     4.8964886   -1.0916697   -0.9404947  0.00    0.0686184   -0.0244865   -0.3381364
n     4.3764788   -0.6892298    1.4261196  0.00   -0.0230970   -0.1165219    0.0157705
h     5.7313184    0.4619039    0.2668599  0.00   -0.0145110   -0.0115791    0.0065788
h     3.5102190   -0.2546209    1.7604995  0.00    0.0177871   -0.0048293   -0.0417608
h     4.0970388   -1.6495395    1.1968197  0.00    0.1205460   -0.0801512   -0.3248601
h    -2.4108593    3.0588691   -0.0157800  0.00   -0.0008754    0.0002869    0.0000965
h    -2.1896094    0.5822398   -0.0890100  0.00   -0.0036530    0.0037641    0.0001510
h    -0.4052699    4.5000487   -0.0535400  0.00    0.0008696    0.0003125    0.0003550
h     1.8590495    3.5066790   -0.1715100  0.00   -0.0005845    0.0027425    0.0008055
h     2.2327294   -1.6813195   -0.3062999  0.00   -0.0376707   -0.0089540    0.0058822
o     5.1775685   -0.8974357   -2.1114694  0.00   -0.0773029   -0.0437857    0.2770854
o     4.6751387   -2.3299593   -0.4225999  0.00   -0.1091007    0.1933538    0.3581541
h     5.5290784   -2.8183592   -0.5524568  0.00   -0.0185866    0.0336164    0.0146629
    27
 Energy =       0.2824746984
c    -1.4568725    2.5027763    0.0228197  0.00   -0.0329383    0.0277808    0.0018380
c    -1.3217554    1.1221285   -0.0314134  0.00   -0.0614859   -0.0235848    0.0014019
c    -0.0391419    0.6003293   -0.0909807  0.00   -0.0644965   -0.1317843    0.0015493
c    -0.3430986    3.3260001    0.0058346  0.00   -0.0164980    0.0497751    0.0018937
c     0.9336787    2.7842444   -0.0670701  0.00    0.0082048    0.0461007    0.0003735
c     1.0841515    1.3979619   -0.1131275  0.00    0.0366507    0.0386263    0.0013295
n     0.3696902   -0.7226413   -0.2104463  0.00    0.1033653    0.0744140   -0.0058767
c     2.2181637    0.5650081   -0.2133381  0.00    0.1043741   -0.0457078   -0.0037829
c     1.7580426   -0.7268379   -0.2541868  0.00   -0.0639748   -0.0654656    0.0096483
h    -0.2375570   -1.5438152   -0.2388130  0.00    0.0256890    0.0327552   -0.0007852
c     3.6381788    1.0623802   -0.3784498  0.00    0.0065753   -0.0086071   -0.0101051
c     4.7521485    0.0833395    0.0428206  0.00    0.0110090    0.0603708    0.0158845
h     3.7509753    1.9866504    0.2115746  0.00   -0.0034365   -0.0051731   -0.0080531
h     3.7770706    1.3587985   -1.4353827  0.00   -0.0017765   -0.0015729    0.0079536
c     4.9169101   -1.0054624   -1.0184032  0.00    0.0493508   -0.0156071   -0.2445351
n     4.4790180   -0.5892141    1.3541054  0.00   -0.0077365   -0.0916750    0.0101813
h     5.7213266    0.6074982    0.1108046  0.00   -0.0074580   -0.0066889    0.0048619
h     3.6614200   -0.1318050    1.8002555  0.00    0.0035587    0.0008372   -0.0235788
h     4.1816264   -1.5589330    1.1447265  0.00    0.0911076   -0.0634525   -0.2491934
h    -2.4501777    2.9429272    0.0725668  0.00   -0.0007239    0.0002753    0.0000738
h    -2.1939393    0.4764127   -0.0351332  0.00   -0.0029457    0.0024833    0.0000560
h    -0.4674149    4.4055073    0.0454734  0.00    0.0006446    0.0003242    0.0002498
h     1.7996917    3.4391920   -0.0884884  0.00   -0.0001746    0.0018228    0.0005391
h     2.3036831   -1.6582214   -0.3749106  0.00   -0.0240336   -0.0116239    0.0037255
o     5.2086121   -0.7813224   -2.2296487  0.00   -0.0556542   -0.0308811    0.1998844
o     4.7666116   -2.2695597   -0.5094066  0.00   -0.0989775    0.1472730    0.2743047
h     5.6878315   -2.6779797   -0.5516239  0.00    0.0017806    0.0189856    0.0101614
    27
 Energy =       0.2625378215
c    -1.4415465    2.4966931    0.0182706  0.00   -0.0261361    0.0220349    0.0014414
c    -1.3102952    1.1218047   -0.0510793  0.00   -0.0487855   -0.0188451    0.0011842
c    -0.0369295    0.5979710   -0.1093818  0.00   -0.0510258   -0.1043028    0.0018020
c    -0.3270049    3.3126766    0.0162636  0.00   -0.0130783    0.0395348    0.0014140
c     0.9426063    2.7670095   -0.0540334  0.00    0.0065545    0.0367240    0.0001853
c     1.0810806    1.3876967   -0.1139461  0.00    0.0290234    0.0308393    0.0009730
n     0.3551956   -0.7330878   -0.2559654  0.00    0.0819273    0.0585925   -0.0052647
c     2.2061780    0.5656251   -0.2160518  0.00    0.0831345   -0.0361191   -0.0028244
c     1.7529132   -0.7229825   -0.2850654  0.00   -0.0508889   -0.0518620    0.0082112
h    -0.2566392   -1.5564071   -0.3054111  0.00    0.0201994    0.0257207   -0.0007996
c     3.6298605    1.0662612   -0.3605163  0.00    0.0051474   -0.0070422   -0.0080418
c     4.7431397    0.0755185    0.0418885  0.00    0.0085746    0.0476928    0.0125505
h     3.7429381    1.9743253    0.2580553  0.00   -0.0026727   -0.0037374   -0.0060780
h     3.7769669    1.3886637   -1.4107838  0.00   -0.0013460   -0.0010976    0.0059754
c     4.9034523   -1.0060083   -1.0210569  0.00    0.0405748   -0.0127155   -0.1944003
n     4.4790941   -0.5907512    1.3526510  0.00   -0.0041590   -0.0730625    0.0073156
h     5.7146776    0.6006305    0.1007104  0.00   -0.0058817   -0.0053057    0.0038713
h     3.6897937   -0.1086989    1.8301372  0.00    0.0012734    0.0017349   -0.0180636
h     4.1464903   -1.5550462    1.1437662  0.00    0.0742004   -0.0538243   -0.2044425
h    -2.4334900    2.9398804    0.0662386  0.00   -0.0005876    0.0002115    0.0000597
h    -2.1834425    0.4776410   -0.0705177  0.00   -0.0024223    0.0018659    0.0000353
h    -0.4467251    4.3923503    0.0659096  0.00    0.0005199    0.0003235    0.0001948
h     1.8126169    3.4168228   -0.0644046  0.00   -0.0000641    0.0014873    0.0004260
h     2.3157901   -1.6412159   -0.4230421  0.00   -0.0188371   -0.0095052    0.0029797
o     5.2027563   -0.7585170   -2.2514016  0.00   -0.0436600   -0.0244110    0.1589948
o     4.7399740   -2.2828516   -0.5382041  0.00   -0.1150729    0.1289271    0.2209207
h     5.6994225   -2.6306412   -0.3928708  0.00    0.0334884    0.0061409    0.0113797
    27
 Energy =       0.2543349024
c    -1.3884140    2.5656550    0.0608747  0.00   -0.0237064    0.0198377    0.0012938
c    -1.2857775    1.1926591   -0.0421734  0.00   -0.0435914   -0.0175556    0.0009991
c    -0.0268509    0.6434960   -0.0993714  0.00   -0.0449769   -0.0901868    0.0025449
c    -0.2569355    3.3555942    0.0891296  0.00   -0.0114213    0.0357746    0.0011980
c     0.9995317    2.7836406    0.0190963  0.00    0.0060576    0.0333726    0.0001048
c     1.1059194    1.4055401   -0.0717365  0.00    0.0260553    0.0279524    0.0008527
n     0.3262024   -0.6918254   -0.3132046  0.00    0.0729009    0.0494354   -0.0056316
c     2.2105420    0.5650119   -0.1911242  0.00    0.0748043   -0.0306362   -0.0018301
c     1.7283709   -0.7097198   -0.3144685  0.00   -0.0446071   -0.0461934    0.0082475
h    -0.3097969   -1.4971329   -0.4098898  0.00    0.0163846    0.0208307   -0.0010923
c     3.6467401    1.0373029   -0.3310849  0.00    0.0040177   -0.0061605   -0.0077388
c     4.7447033    0.0077844    0.0254940  0.00    0.0068164    0.0430785    0.0113861
h     3.7873276    1.9218070    0.3181260  0.00   -0.0021535   -0.0024930   -0.0047344
h     3.7919224    1.3916039   -1.3725460  0.00   -0.0013741   -0.0007024    0.0047808
c     4.8606774   -1.0539661   -1.0604223  0.00    0.0371973   -0.0059817   -0.1740924
n     4.4826062   -0.6825800    1.3200272  0.00    0.0206757   -0.0573708    0.0054688
h     5.7309226    0.5080511    0.0806797  0.00   -0.0048208   -0.0045302    0.0036740
h     3.7928289   -0.1108955    1.8730637  0.00   -0.0111128    0.0136397   -0.0073356
h     3.9943750   -1.5874983    1.0699313  0.00    0.0544175   -0.0679572   -0.1906355
h    -2.3712158    3.0293642    0.1073625  0.00   -0.0007890    0.0002721    0.0000626
h    -2.1723435    0.5676766   -0.0954044  0.00   -0.0027921    0.0010166   -0.0000382
h    -0.3531026    4.4368080    0.1621743  0.00    0.0004879    0.0008771    0.0002033
h     1.8845036    3.4136649    0.0305783  0.00    0.0003457    0.0017426    0.0003833
h     2.2714832   -1.6316682   -0.5007063  0.00   -0.0158590   -0.0100341    0.0026561
o     5.1564521   -0.7799553   -2.2976082  0.00   -0.0386327   -0.0220114    0.1406342
o     4.6075323   -2.3385268   -0.6205510  0.00   -0.1072492    0.1098983    0.1980351
h     5.5406694   -2.7465290   -0.4660869  0.00    0.0329254    0.0040850    0.0106037
    27
 Energy =       0.2483981287
c    -1.4113728    2.5204090    0.0940411  0.00   -0.0226001    0.0186394    0.0012262
c    -1.2944517    1.1472990    0.0180788  0.00   -0.0411644   -0.0169831    0.0008306
c    -0.0314989    0.6122123   -0.0528318  0.00   -0.0417024   -0.0832042    0.0022989
c    -0.2892496    3.3236915    0.0855572  0.00   -0.0103732    0.0340037    0.0011536
c     0.9711015    2.7654888    0.0008674  0.00    0.0060040    0.0316499    0.0001402
c     1.0904382    1.3885276   -0.0661512  0.00    0.0246980    0.0266917    0.0008556
n     0.3337566   -0.7304333   -0.2139336  0.00    0.0656784    0.0453955   -0.0048625
c     2.2015701    0.5640911   -0.1966052  0.00    0.0707130   -0.0285310   -0.0016359
c     1.7380700   -0.7188906   -0.2880047  0.00   -0.0391510   -0.0426019    0.0075003
h    -0.2916896   -1.5522356   -0.2511367  0.00    0.0134337    0.0170596   -0.0010629
c     3.6276086    1.0559276   -0.3732389  0.00    0.0040204   -0.0055127   -0.0072225
c     4.7479701    0.0518269   -0.0108586  0.00    0.0064453    0.0405588    0.0107398
h     3.7665692    1.9564824    0.2549934  0.00   -0.0018315   -0.0020683   -0.0042668
h     3.7488699    1.3905921   -1.4250765  0.00   -0.0013257   -0.0004187    0.0040087
c     4.8871756   -1.0118584   -1.0900055  0.00    0.0350706   -0.0053601   -0.1635259
n     4.5045055   -0.6340141    1.2892688  0.00    0.0199056   -0.0534980    0.0053896
h     5.7232632    0.5749772    0.0379759  0.00   -0.0042467   -0.0040874    0.0034817
h     3.8078778   -0.0738389    1.8447322  0.00   -0.0105498    0.0129026   -0.0068365
h     4.0415677   -1.5562580    1.0513230  0.00    0.0508169   -0.0647675   -0.1794096
h    -2.3986855    2.9733250    0.1520293  0.00   -0.0009164    0.0002341    0.0000614
h    -2.1743206    0.5098202    0.0023658  0.00   -0.0032716    0.0004183   -0.0000586
h    -0.3966482    4.4051439    0.1397304  0.00    0.0005517    0.0010925    0.0002011
h     1.8487947    3.4061786   -0.0190087  0.00    0.0008030    0.0020062    0.0003532
h     2.2964769   -1.6298786   -0.4863953  0.00   -0.0146270   -0.0096041    0.0023689
o     5.1720097   -0.7338155   -2.3345410  0.00   -0.0363078   -0.0205561    0.1319498
o     4.6690166   -2.3018292   -0.6475169  0.00   -0.1030831    0.1035023    0.1860171
h     5.6101490   -2.7075782   -0.5454999  0.00    0.0330102    0.0030383    0.0103044
    27
 Energy =       0.2337127756
c    -1.4334188    2.4645439    0.1082574  0.00   -0.0182169    0.0150121    0.0009715
c    -1.2988600    1.0954558    0.0452430  0.00   -0.0331640   -0.0137643    0.0005456
c    -0.0343004    0.5773109   -0.0355614  0.00   -0.0333532   -0.0660479    0.0014506
c    -0.3235652    3.2802740    0.0798909  0.00   -0.0081489    0.0274566    0.0009628
c     0.9390336    2.7378749   -0.0140407  0.00    0.0050772    0.0254416    0.0001765
c     1.0710076    1.3665881   -0.0698811  0.00    0.0198090    0.0217067    0.0007866
n     0.3446484   -0.7701146   -0.1641238  0.00    0.0515742    0.0357880   -0.0032287
c     2.1876333    0.5663277   -0.2036309  0.00    0.0569978   -0.0226578   -0.0012502
c     1.7522208   -0.7235341   -0.2769788  0.00   -0.0305113   -0.0337415    0.0056655
h    -0.2666482   -1.6072619   -0.1680534  0.00    0.0100997    0.0126428   -0.0007380
c     3.6042701    1.0822362   -0.3910341  0.00    0.0032120   -0.0041740   -0.0059967
c     4.7444291    0.1035881   -0.0176673  0.00    0.0049918    0.0332831    0.0082011
h     3.7309558    1.9923370    0.2276948  0.00   -0.0014354   -0.0014850   -0.0033571
h     3.7171990    1.4057356   -1.4481480  0.00   -0.0011239   -0.0002629    0.0031043
c     4.9167423   -0.9672464   -1.0819032  0.00    0.0294901   -0.0047649   -0.1299472
n     4.5207901   -0.5595555    1.2953096  0.00    0.0176777   -0.0412517    0.0049647
h     5.7073303    0.6527620    0.0203482  0.00   -0.0030435   -0.0030386    0.0029173
h     3.8067407   -0.0188758    1.8461976  0.00   -0.0087875    0.0108038   -0.0052866
h     4.1071356   -1.5131248    1.0859314  0.00    0.0407225   -0.0563487   -0.1478897
h    -2.4257889    2.9050795    0.1743285  0.00   -0.0008653    0.0002196    0.0000522
h    -2.1693277    0.4451907    0.0512559  0.00   -0.0029270    0.0001191   -0.0000543
h    -0.4439439    4.3607204    0.1252890  0.00    0.0004717    0.0010101    0.0001693
h     1.8085016    3.3887912   -0.0503595  0.00    0.0008687    0.0017092    0.0002876
h     2.3394839   -1.6175705   -0.4723225  0.00   -0.0113900   -0.0081063    0.0017591
o     5.1588640   -0.6829747   -2.3518051  0.00   -0.0296522   -0.0155284    0.1044617
o     4.7487711   -2.2663043   -0.6398245  0.00   -0.1060314    0.0921516    0.1536114
h     5.6889695   -2.7028904   -0.7042530  0.00    0.0476582   -0.0061721    0.0076607
    27
 Energy =       0.2165461473
c    -1.4556364    2.3965120    0.1116190  0.00   -0.0118420    0.0099181    0.0006021
c    -1.2996621    1.0345184    0.0453538  0.00   -0.0216945   -0.0089381    0.0003197
c    -0.0342526    0.5372523   -0.0428244  0.00   -0.0219025   -0.0429634    0.0009137
c    -0.3606163    3.2259290    0.0804233  0.00   -0.0051824    0.0179815    0.0006039
c     0.9043120    2.7028010   -0.0186827  0.00    0.0035996    0.0165177    0.0001080
c     1.0505747    1.3401157   -0.0777423  0.00    0.0127017    0.0143684    0.0006118
n     0.3591029   -0.8121647   -0.1665347  0.00    0.0328862    0.0230836   -0.0019442
c     2.1733690    0.5707939   -0.2100129  0.00    0.0371617   -0.0146381   -0.0007670
c     1.7726684   -0.7249240   -0.2835290  0.00   -0.0197328   -0.0216830    0.0037565
h    -0.2373586   -1.6642232   -0.1674475  0.00    0.0064574    0.0078587   -0.0004657
c     3.5820335    1.1160339   -0.3828448  0.00    0.0022679   -0.0026370   -0.0041606
c     4.7391511    0.1571099   -0.0076331  0.00    0.0027681    0.0229876    0.0041562
h     3.6895186    2.0230208    0.2463940  0.00   -0.0009655   -0.0007563   -0.0020533
h     3.6980048    1.4482707   -1.4379593  0.00   -0.0006588   -0.0001828    0.0019712
c     4.9421784   -0.9178132   -1.0601913  0.00    0.0225502   -0.0041861   -0.0797517
n     4.5399811   -0.4757758    1.3210757  0.00    0.0136759   -0.0243951    0.0040054
h     5.6900007    0.7310302    0.0137235  0.00   -0.0016020   -0.0017091    0.0019992
h     3.8064480    0.0392331    1.8684802  0.00   -0.0062164    0.0077164   -0.0031799
h     4.1858663   -1.4617429    1.1512218  0.00    0.0274724   -0.0443236   -0.1049262
h    -2.4541374    2.8218378    0.1832502  0.00   -0.0007018    0.0002238    0.0000407
h    -2.1584738    0.3698359    0.0558570  0.00   -0.0020671   -0.0000046   -0.0000355
h    -0.4964274    4.3042951    0.1283084  0.00    0.0003084    0.0007871    0.0001139
h     1.7643852    3.3653529   -0.0566442  0.00    0.0007162    0.0011215    0.0001920
h     2.3980689   -1.5960737   -0.4678878  0.00   -0.0066040   -0.0059463    0.0010583
o     5.0974142   -0.6210238   -2.3675054  0.00   -0.0212024   -0.0071972    0.0625991
o     4.8475549   -2.2296553   -0.6251026  0.00   -0.0959148    0.0706390    0.1129672
h     5.7548059   -2.6851831   -0.8630062  0.00    0.0537214   -0.0136429    0.0012652
    27
 Energy =       0.2091987467
c    -1.4799201    2.3310440    0.1357481  0.00   -0.0086234    0.0072657    0.0004217
c    -1.3015053    0.9745230    0.0628277  0.00   -0.0157283   -0.0064714    0.0002163
c    -0.0318940    0.4990772   -0.0336475  0.00   -0.0158393   -0.0308645    0.0006843
c    -0.3997804    3.1767563    0.1033167  0.00   -0.0036783    0.0130982    0.0004166
c     0.8703650    2.6745916   -0.0030725  0.00    0.0028250    0.0119076    0.0000576
c     1.0352990    1.3178876   -0.0686123  0.00    0.0090837    0.0104111    0.0004736
n     0.3798892   -0.8474079   -0.1617958  0.00    0.0231873    0.0163836   -0.0013499
c     2.1669524    0.5746698   -0.2057182  0.00    0.0267715   -0.0105009   -0.0004095
c     1.7949715   -0.7267903   -0.2836383  0.00   -0.0139520   -0.0155734    0.0026941
h    -0.2019116   -1.7117705   -0.1630142  0.00    0.0045046    0.0053492   -0.0003325
c     3.5657245    1.1483356   -0.3732107  0.00    0.0015811   -0.0018424   -0.0030510
c     4.7412152    0.2011127   -0.0230609  0.00    0.0017421    0.0170431    0.0018968
h     3.6616019    2.0439338    0.2754466  0.00   -0.0007487   -0.0002785   -0.0013045
h     3.6713409    1.5036167   -1.4226753  0.00   -0.0003515   -0.0000416    0.0011059
c     4.9481751   -0.8686752   -1.0810246  0.00    0.0202455   -0.0041333   -0.0442436
n     4.5768763   -0.4215437    1.3144901  0.00    0.0105645   -0.0168612    0.0034602
h     5.6831375    0.7913605   -0.0225084  0.00   -0.0008354   -0.0010755    0.0013562
h     3.8389561    0.0730436    1.8730989  0.00   -0.0047703    0.0057484   -0.0021119
h     4.2569935   -1.4223272    1.1695937  0.00    0.0200434   -0.0349066   -0.0787492
h    -2.4848799    2.7397040    0.2138261  0.00   -0.0006752    0.0002465    0.0000409
h    -2.1484230    0.2951609    0.0749759  0.00   -0.0016394   -0.0001010   -0.0000238
h    -0.5525662    4.2525873    0.1562686  0.00    0.0002044    0.0007324    0.0000882
h     1.7198769    3.3503867   -0.0418533  0.00    0.0006476    0.0008809    0.0001327
h     2.4461329   -1.5793465   -0.4688020  0.00   -0.0041418   -0.0046451    0.0006842
o     4.9386611   -0.5664904   -2.4188289  0.00   -0.0177412    0.0017126    0.0280607
o     4.9628624   -2.1873640   -0.6447032  0.00   -0.0810536    0.0499578    0.0912559
h     5.8407228   -2.6207130   -0.9932673  0.00    0.0483777   -0.0134416   -0.0014700
    27
 Energy =       0.2117200042
c    -1.4729075    2.3439959    0.1436653  0.00   -0.0086013    0.0072439    0.0004207
c    -1.2989434    0.9871017    0.0672721  0.00   -0.0156764   -0.0064584    0.0002150
c    -0.0309176    0.5077330   -0.0298954  0.00   -0.0157839   -0.0307486    0.0006847
c    -0.3899310    3.1862056    0.1139813  0.00   -0.0036641    0.0130621    0.0004152
c     0.8786066    2.6800703    0.0069439  0.00    0.0028191    0.0118744    0.0000569
c     1.0389422    1.3230744   -0.0622194  0.00    0.0090548    0.0103755    0.0004710
n     0.3762169   -0.8397341   -0.1620984  0.00    0.0231070    0.0163062   -0.0013557
c     2.1681184    0.5766554   -0.2010699  0.00    0.0266857   -0.0104755   -0.0004211
c     1.7918050   -0.7235112   -0.2828829  0.00   -0.0138800   -0.0155280    0.0026665
h    -0.2085534   -1.7020954   -0.1657508  0.00    0.0044774    0.0053160   -0.0003284
c     3.5689437    1.1466906   -0.3651112  0.00    0.0013516   -0.0018484   -0.0030160
c     4.7409040    0.1870337   -0.0351371  0.00    0.0018629    0.0168909    0.0020826
h     3.6712565    2.0316940    0.2972888  0.00   -0.0007362   -0.0001475   -0.0011999
h     3.6714323    1.5180475   -1.4093481  0.00   -0.0003938    0.0000291    0.0009766
c     4.9265287   -0.8811818   -1.1002190  0.00    0.0210677   -0.0055992   -0.0346481
n     4.5837525   -0.4417451    1.3008826  0.00    0.0106172   -0.0167945    0.0035352
h     5.6877960    0.7690101   -0.0410335  0.00   -0.0007839   -0.0010547    0.0013342
h     3.8514197    0.0520093    1.8675683  0.00   -0.0047991    0.0057665   -0.0020577
h     4.2582658   -1.4408242    1.1527219  0.00    0.0198788   -0.0347497   -0.0783323
h    -2.4765537    2.7557698    0.2222377  0.00   -0.0006785    0.0002486    0.0000414
h    -2.1480961    0.3104914    0.0770350  0.00   -0.0016405   -0.0001074   -0.0000233
h    -0.5391586    4.2623984    0.1696277  0.00    0.0002033    0.0007405    0.0000885
h     1.7306742    3.3528257   -0.0296645  0.00    0.0006571    0.0008838    0.0001314
h     2.4400655   -1.5778094   -0.4713146  0.00   -0.0039931   -0.0046621    0.0006704
o     4.7799080   -0.5943827   -2.4416272  0.00   -0.0187754    0.0050153    0.0165830
o     5.0028188   -2.1952348   -0.6533311  0.00   -0.0812762    0.0482798    0.0928954
h     5.8964804   -2.5989251   -0.9983628  0.00    0.0489000   -0.0138587   -0.0018862
    27
 Energy =       0.2076764214
c    -1.4925658    2.3033509    0.1423776  0.00   -0.0083655    0.0070086    0.0004122
c    -1.3041848    0.9483409    0.0691032  0.00   -0.0151635   -0.0062774    0.0002067
c    -0.0314729    0.4823192   -0.0289809  0.00   -0.0152223   -0.0296118    0.0006622
c    -0.4188092    3.1569139    0.1087404  0.00   -0.0035288    0.0126714    0.0004054
c     0.8546054    2.6641197    0.0007939  0.00    0.0027799    0.0114916    0.0000546
c     1.0291196    1.3089312   -0.0650445  0.00    0.0087484    0.0100070    0.0004559
n     0.3902019   -0.8616417   -0.1571184  0.00    0.0221910    0.0156162   -0.0013090
c     2.1658369    0.5750414   -0.2032472  0.00    0.0257342   -0.0100778   -0.0004389
c     1.8046198   -0.7292057   -0.2807226  0.00   -0.0132909   -0.0150071    0.0025368
h    -0.1849063   -1.7307741   -0.1575205  0.00    0.0042433    0.0050129   -0.0003131
c     3.5596172    1.1604174   -0.3719156  0.00    0.0011093   -0.0017102   -0.0029489
c     4.7437268    0.2217408   -0.0266323  0.00    0.0018598    0.0161549    0.0023393
h     3.6498631    2.0552741    0.2792191  0.00   -0.0006687    0.0000065   -0.0010585
h     3.6599323    1.5194625   -1.4208921  0.00   -0.0004557    0.0001050    0.0008715
c     4.9560745   -0.8454677   -1.0866862  0.00    0.0199327   -0.0072236   -0.0241882
n     4.5898034   -0.4007240    1.3121861  0.00    0.0104051   -0.0160686    0.0034534
h     5.6809800    0.8198252   -0.0299668  0.00   -0.0006192   -0.0009276    0.0012834
h     3.8503191    0.0879211    1.8738716  0.00   -0.0046666    0.0056062   -0.0019343
h     4.2793094   -1.4048352    1.1713383  0.00    0.0190512   -0.0336004   -0.0753544
h    -2.5004536    2.7045960    0.2217479  0.00   -0.0007174    0.0002648    0.0000449
h    -2.1460013    0.2626504    0.0823504  0.00   -0.0016406   -0.0001525   -0.0000215
h    -0.5794260    4.2316398    0.1619754  0.00    0.0001884    0.0007860    0.0000886
h     1.6991326    3.3461620   -0.0389561  0.00    0.0006976    0.0009034    0.0001232
h     2.4635810   -1.5759618   -0.4657391  0.00   -0.0037027   -0.0045834    0.0006219
o     4.9386611   -0.5372735   -2.4368004  0.00   -0.0178662    0.0074642    0.0056364
o     4.9888109   -2.1658148   -0.6510235  0.00   -0.0801113    0.0467637    0.0913536
h     5.8524991   -2.6016454   -1.0322987  0.00    0.0490786   -0.0146220   -0.0029831
    27
 Energy =       0.2021214936
c    -1.5157070    2.2516859    0.1466964  0.00   -0.0074799    0.0062195    0.0003714
c    -1.3092735    0.8999151    0.0746990  0.00   -0.0134450   -0.0055963    0.0001785
c    -0.0316834    0.4510179   -0.0270704  0.00   -0.0134269   -0.0260558    0.0005786
c    -0.4538986    3.1190515    0.1082787  0.00   -0.0030972    0.0112851    0.0003644
c     0.8248658    2.6431732   -0.0031003  0.00    0.0025621    0.0101782    0.0000479
c     1.0164660    1.2911445   -0.0674087  0.00    0.0077337    0.0088276    0.0004098
n     0.4069126   -0.8887557   -0.1524937  0.00    0.0193717    0.0136101   -0.0011364
c     2.1616234    0.5741496   -0.2065941  0.00    0.0226910   -0.0088333   -0.0004150
c     1.8200387   -0.7346309   -0.2804442  0.00   -0.0115769   -0.0132530    0.0021984
h    -0.1563516   -1.7663038   -0.1496016  0.00    0.0036395    0.0042455   -0.0002707
c     3.5468963    1.1784711   -0.3790725  0.00    0.0008143   -0.0013959   -0.0026901
c     4.7452061    0.2634965   -0.0199016  0.00    0.0016475    0.0141490    0.0024963
h     3.6229779    2.0820626    0.2621516  0.00   -0.0005452    0.0001631   -0.0008357
h     3.6447832    1.5265890   -1.4322219  0.00   -0.0004703    0.0001433    0.0006974
c     4.9894142   -0.8005058   -1.0756855  0.00    0.0159055   -0.0082062   -0.0125646
n     4.5985406   -0.3501528    1.3230610  0.00    0.0096005   -0.0137972    0.0030705
h     5.6703820    0.8810989   -0.0219754  0.00   -0.0003379   -0.0006845    0.0011414
h     3.8479782    0.1271329    1.8793741  0.00   -0.0042470    0.0050792   -0.0015957
h     4.3144534   -1.3627280    1.1949321  0.00    0.0167364   -0.0302704   -0.0665866
h    -2.5286267    2.6395179    0.2290581  0.00   -0.0007368    0.0002739    0.0000476
h    -2.1415415    0.2028139    0.0922620  0.00   -0.0015426   -0.0002097   -0.0000171
h    -0.6286282    4.1916500    0.1605741  0.00    0.0001538    0.0007991    0.0000831
h     1.6598876    3.3365606   -0.0464788  0.00    0.0007128    0.0008713    0.0001033
h     2.4935288   -1.5704055   -0.4621993  0.00   -0.0030871   -0.0041792    0.0005177
o     5.0974142   -0.4726117   -2.4223617  0.00   -0.0144268    0.0087926   -0.0045574
o     4.9913529   -2.1272431   -0.6587668  0.00   -0.0737324    0.0428422    0.0830328
h     5.8118623   -2.5908312   -1.0955517  0.00    0.0465834   -0.0149981   -0.0046698
    27
 Energy =       0.1953680320
c    -1.5433779    2.1824821    0.1595154  0.00   -0.0059040    0.0048600    0.0002938
c    -1.3130852    0.8360962    0.0826808  0.00   -0.0104297   -0.0043801    0.0001341
c    -0.0298929    0.4105033   -0.0259628  0.00   -0.0102922   -0.0198927    0.0004545
c    -0.4977303    3.0677597    0.1191990  0.00   -0.0023631    0.0088379    0.0002820
c     0.7875265    2.6147670    0.0015535  0.00    0.0021690    0.0078647    0.0000266
c     1.0012192    1.2679340   -0.0672486  0.00    0.0059468    0.0067547    0.0003262
n     0.4298667   -0.9231617   -0.1550083  0.00    0.0144711    0.0101561   -0.0008414
c     2.1567178    0.5744965   -0.2101893  0.00    0.0173849   -0.0066778   -0.0003237
c     1.8412894   -0.7392797   -0.2863524  0.00   -0.0086182   -0.0101737    0.0016460
h    -0.1181581   -1.8114411   -0.1528956  0.00    0.0026381    0.0029685   -0.0002048
c     3.5313317    1.2039065   -0.3813193  0.00    0.0005394   -0.0008902   -0.0021838
c     4.7467079    0.3149763   -0.0135438  0.00    0.0011508    0.0107893    0.0025103
h     3.5893321    2.1117654    0.2562195  0.00   -0.0003826    0.0002830   -0.0005507
h     3.6269487    1.5483808   -1.4361106  0.00   -0.0003930    0.0001323    0.0005063
c     5.0291874   -0.7383319   -1.0707313  0.00    0.0095113   -0.0078049   -0.0017971
n     4.6112566   -0.2922086    1.3326568  0.00    0.0079815   -0.0099883    0.0022618
h     5.6563753    0.9565135   -0.0130321  0.00    0.0000672   -0.0003123    0.0008733
h     3.8482112    0.1672964    1.8861567  0.00   -0.0034886    0.0040981   -0.0010410
h     4.3615663   -1.3142592    1.2198958  0.00    0.0130336   -0.0246161   -0.0519310
h    -2.5626669    2.5520993    0.2473941  0.00   -0.0007582    0.0002892    0.0000521
h    -2.1323627    0.1239550    0.1021831  0.00   -0.0013406   -0.0002835   -0.0000093
h    -0.6910146    4.1370076    0.1753005  0.00    0.0000873    0.0008015    0.0000724
h     1.6099564    3.3228828   -0.0429285  0.00    0.0007007    0.0007887    0.0000701
h     2.5342635   -1.5587615   -0.4674983  0.00   -0.0020816   -0.0034337    0.0003432
o     5.2561673   -0.3833229   -2.4001115  0.00   -0.0089720    0.0087807   -0.0121881
o     5.0059626   -2.0748105   -0.6880771  0.00   -0.0620791    0.0364611    0.0685859
h     5.7632759   -2.5618827   -1.2015866  0.00    0.0414212   -0.0154127   -0.0073678
    27
 Energy =       0.1894174445
c    -1.5710816    2.1027085    0.1894048  0.00   -0.0041764    0.0034320    0.0002075
c    -1.3139981    0.7636453    0.0953926  0.00   -0.0070800   -0.0030967    0.0000950
c    -0.0249782    0.3654296   -0.0236354  0.00   -0.0068388   -0.0131316    0.0003764
c    -0.5439577    3.0081669    0.1557170  0.00   -0.0015915    0.0061744    0.0001761
c     0.7483051    2.5820945    0.0283911  0.00    0.0017024    0.0053898   -0.0000129
c     0.9868005    1.2421702   -0.0572449  0.00    0.0039797    0.0044441    0.0002167
n     0.4579699   -0.9595233   -0.1698603  0.00    0.0092012    0.0063014   -0.0005704
c     2.1534758    0.5763942   -0.2096497  0.00    0.0115515   -0.0043239   -0.0001248
c     1.8668145   -0.7415975   -0.3014774  0.00   -0.0054043   -0.0068726    0.0010781
h    -0.0732212   -1.8591646   -0.1778297  0.00    0.0015427    0.0015537   -0.0001470
c     3.5162136    1.2349316   -0.3708888  0.00    0.0004131   -0.0004269   -0.0014611
c     4.7499219    0.3674004   -0.0115031  0.00    0.0005671    0.0073155    0.0022622
h     3.5554905    2.1360860    0.2780499  0.00   -0.0002682    0.0004167   -0.0002406
h     3.6076387    1.5937068   -1.4215879  0.00   -0.0001893    0.0001576    0.0002173
c     5.0686416   -0.6585334   -1.0866551  0.00    0.0041827   -0.0051888    0.0035553