    27
 Energy =       2.4682580195
c    -1.4235396    2.6054793   -0.0667700  0.00   -0.0462661    0.0384953    0.0021805
c    -1.3072796    1.2134697   -0.1072300  0.00   -0.0851884   -0.0325324    0.0016521
c    -0.0178900    0.6711998   -0.1697000  0.00   -0.0900298   -0.1891421    0.0000651
c    -0.2940599    3.4190890   -0.0891300  0.00   -0.0196043    0.0685212    0.0012128
c     0.9872197    2.8590292   -0.1560400  0.00    0.6064069    0.1892908   -0.3415446
c     1.1340797    1.4562096   -0.1970299  0.00    0.0723624    0.0699761   -0.0086043
n     0.3879399   -0.6395298   -0.2140799  0.00    0.1436728    0.1123383   -0.0050982
c     2.2666594    0.5727398   -0.2659299  0.00    0.1568788   -0.0790549   -0.0036243
c     1.7555995   -0.7123598   -0.2706899  0.00   -0.0979119   -0.0964470    0.0002772
h    -0.2400399   -1.4313496   -0.2047299  0.00    0.0370822    0.0480571    0.0000059
c     3.7030089    1.0223397   -0.3320099  0.00   -0.0326831    0.0853919   -0.0351874
c     4.2197688    1.4064496   -1.7267995  0.00    0.0490594   -0.0187885    0.1530572
h     4.3261788    0.2093419    0.0639454  0.00   -0.0092148    0.0099193   -0.0018586
h     3.8370289    1.8640295    0.3610799  0.00   -0.0102567   -0.0019853   -0.0187938
c     3.6319390    2.7753292   -2.1168494  0.00    0.0362819    0.2559910   -0.2856481
n     3.8331589    0.4251339   -2.8019292  0.00   -0.0088783   -0.0364068   -0.0816949
h     5.3112285    1.5100896   -1.7329195  0.00   -0.0182011   -0.0117033   -0.0174352
h     4.6999387    0.1207120   -3.2570191  0.00   -0.0248455    0.0103425    0.0273580
h     3.4878990   -0.4228179   -2.3386293  0.00    0.0121705    0.0330788    0.0055982
h    -2.4108593    3.0588691   -0.0157800  0.00   -0.0008098    0.0002102    0.0003874
h    -2.1896094    0.5822398   -0.0890100  0.00   -0.0035108    0.0037326    0.0003364
h    -0.4052699    4.5000487   -0.0535400  0.00    0.0004772    0.0005537    0.0012938
h     1.8590495    3.5066790   -0.1715100  0.00   11.8496441   -3.2411216  -12.8825367
h     2.2327294   -1.6813195   -0.3062999  0.00   -0.0400637   -0.0117170    0.0022540
o     3.8981789    3.3994790   -3.1304891  0.00   -0.0717918   -0.1595122    0.2363953
o     2.7558992    3.2202791   -1.1760297  0.00  -11.7182525    3.3150596   12.8688399
h     3.1226691    4.0922588   -0.8764678  0.00   -0.6865276   -0.3625472    0.3811125
    27
 Energy =       2.1826455146
c    -1.3652284    2.6822668    0.0030452  0.00   -0.0402568    0.0332339    0.0018193
c    -1.2778303    1.2944728   -0.0486927  0.00   -0.0737810   -0.0285155    0.0012445
c    -0.0082576    0.7268326   -0.1145741  0.00   -0.0771166   -0.1597859    0.0009400
c    -0.2211005    3.4687129   -0.0226780  0.00   -0.0171634    0.0593020    0.0009765
c     1.0444620    2.8834205   -0.1000663  0.00    0.5290747    0.1657164   -0.2961896
c     1.1546738    1.4819781   -0.1434895  0.00    0.0618981    0.0611725   -0.0072935
n     0.3439612   -0.6012656   -0.2193654  0.00    0.1244248    0.0939697   -0.0054496
c     2.2549075    0.5755540   -0.2403599  0.00    0.1336365   -0.0678805   -0.0023877
c     1.7186795   -0.6955412   -0.2624942  0.00   -0.0841102   -0.0828028    0.0005711
h    -0.3143063   -1.3756966   -0.2394795  0.00    0.0308053    0.0402105   -0.0002445
c     3.7071145    0.9619514   -0.3636077  0.00   -0.0274884    0.0735093   -0.0309014
c     4.1789365    1.3339673   -1.7807973  0.00    0.0428238   -0.0155094    0.1329365
h     4.3132061    0.1150404   -0.0052580  0.00   -0.0068093    0.0076141   -0.0015178
h     3.9113671    1.7936061    0.3303390  0.00   -0.0084026   -0.0000220   -0.0146306
c     3.6471206    2.7303285   -2.1345695  0.00    0.0318300    0.2212453   -0.2467309
n     3.7118165    0.3742953   -2.8419219  0.00   -0.0116451   -0.0318494   -0.0712530
h     5.2783076    1.3865711   -1.8252280  0.00   -0.0134704   -0.0100679   -0.0149079
h     4.5411855    0.0359197   -3.3511487  0.00   -0.0181939    0.0070221    0.0212123
h     3.3335240   -0.4637792   -2.3809813  0.00    0.0100958    0.0272922    0.0045167
h    -2.3429072    3.1563897    0.0555632  0.00   -0.0009628    0.0002732    0.0003439
h    -2.1730413    0.6806984   -0.0440762  0.00   -0.0032757    0.0029482    0.0002471
h    -0.3098919    4.5522566    0.0074187  0.00    0.0003829    0.0007608    0.0011303
h     1.9109998    3.5111213   -0.1546724  0.00   10.3249890   -2.8250978  -11.2270933
h     2.1914177   -1.6661128   -0.3415254  0.00   -0.0342199   -0.0110417    0.0017863
o     3.9203352    3.3503758   -3.1767508  0.00   -0.0619183   -0.1379407    0.2032074
o     2.8189230    3.2237948   -1.1688830  0.00  -10.2118254    2.8938662   11.2154008
h     3.1932512    4.0859601   -0.8773326  0.00   -0.5993212   -0.3176227    0.3322670
    27
 Energy =       1.8165894581
c    -1.3204070    2.7160238    0.0927539  0.00   -0.0317354    0.0268790    0.0013023
c    -1.2507852    1.3370764   -0.0009761  0.00   -0.0579886   -0.0232510    0.0007173
c     0.0004254    0.7552126   -0.0800532  0.00   -0.0592162   -0.1162720    0.0046377
c    -0.1699848    3.4830070    0.0822391  0.00   -0.0137133    0.0470313    0.0004075
c     1.0823402    2.8862738   -0.0130971  0.00    0.4264587    0.1324905   -0.2367694
c     1.1670584    1.4889701   -0.0900061  0.00    0.0481209    0.0496367   -0.0056737
n     0.3056202   -0.5825268   -0.3056838  0.00    0.0985372    0.0654348   -0.0083636
c     2.2398513    0.5742956   -0.2330331  0.00    0.1050165   -0.0524802   -0.0012038
c     1.6908672   -0.6833128   -0.3029466  0.00   -0.0648873   -0.0634204    0.0022291
h    -0.3734320   -1.3458841   -0.3982327  0.00    0.0211980    0.0280503   -0.0013818
c     3.7051739    0.9067791   -0.3925618  0.00   -0.0217072    0.0575328   -0.0253669
c     4.1453627    1.3023005   -1.8196032  0.00    0.0339353   -0.0124797    0.1037668
h     4.2937752    0.0250431   -0.0800460  0.00   -0.0042476    0.0046537   -0.0009471
h     3.9651648    1.7134119    0.3175928  0.00   -0.0061603    0.0012496   -0.0102790
c     3.6405577    2.7115115   -2.1313764  0.00    0.0261179    0.1730911   -0.1949576
n     3.6513602    0.3646145   -2.8808319  0.00   -0.0091782   -0.0240176   -0.0565950
h     5.2476666    1.3420009   -1.8760624  0.00   -0.0103456   -0.0079935   -0.0116313
h     4.4665641    0.0112144   -3.4099837  0.00   -0.0138713    0.0050918    0.0163428
h     3.2363043   -0.4708007   -2.4395815  0.00    0.0072438    0.0201837    0.0038619
h    -2.2918039    3.2021197    0.1521430  0.00   -0.0008710    0.0002705    0.0002664
h    -2.1538635    0.7345782   -0.0326348  0.00   -0.0030772    0.0016329    0.0000556
h    -0.2457537    4.5673407    0.1254150  0.00    0.0002884    0.0007747    0.0008537
h     1.9395387    3.5289013   -0.1049096  0.00    8.3413935   -2.2805340   -9.0723220
h     2.1752643   -1.6446100   -0.4332845  0.00   -0.0267281   -0.0101025    0.0012146
o     3.9008742    3.3506975   -3.2027131  0.00   -0.0490757   -0.1082709    0.1591676
o     2.8634880    3.2375684   -1.1349294  0.00   -8.2502538    2.3433009    9.0618530
h     3.2503985    4.0913121   -0.8491833  0.00   -0.4852532   -0.2584825    0.2688151
    27
 Energy =       1.4444551431
c    -1.2932615    2.7164657    0.1965881  0.00   -0.0231032    0.0195536    0.0006939
c    -1.2325270    1.3486177    0.0586896  0.00   -0.0422355   -0.0174266    0.0002692
c     0.0022564    0.7624384   -0.0630696  0.00   -0.0417880   -0.0840957    0.0029958
c    -0.1427235    3.4728014    0.1973905  0.00   -0.0106191    0.0340636    0.0001027
c     1.0989600    2.8761148    0.0626641  0.00    0.3161894    0.0974779   -0.1769312
c     1.1675052    1.4824123   -0.0763055  0.00    0.0337686    0.0356777   -0.0042211
n     0.2688295   -0.5868504   -0.3136243  0.00    0.0678766    0.0473788   -0.0053641
c     2.2180595    0.5664475   -0.2849763  0.00    0.0756486   -0.0387069   -0.0006965
c     1.6637426   -0.6776232   -0.3901163  0.00   -0.0433414   -0.0462199    0.0006378
h    -0.4209711   -1.3514383   -0.3805586  0.00    0.0148331    0.0197389   -0.0020360
c     3.6990860    0.8433730   -0.4659273  0.00   -0.0168929    0.0401905   -0.0192036
c     4.1233692    1.3096036   -1.8845093  0.00    0.0251996   -0.0087430    0.0733914
h     4.2637114   -0.0811012   -0.2220954  0.00   -0.0013356    0.0006148    0.0001825
h     4.0127147    1.5956513    0.2884925  0.00   -0.0033894    0.0030818   -0.0044777
c     3.6189775    2.7254893   -2.1240298  0.00    0.0212206    0.1214787   -0.1422217
n     3.6404121    0.4065863   -2.9720738  0.00   -0.0055206   -0.0163647   -0.0421112
h     5.2279512    1.3657375   -1.9321654  0.00   -0.0072121   -0.0051533   -0.0080948
h     4.4618808    0.0618244   -3.5044306  0.00   -0.0092842    0.0039627    0.0120102
h     3.1922400   -0.4375941   -2.5712805  0.00    0.0044936    0.0128471    0.0034758
h    -2.2612770    3.2049705    0.2892197  0.00   -0.0012596    0.0002417    0.0002669
h    -2.1384965    0.7506351    0.0262188  0.00   -0.0022201    0.0007755   -0.0004204
h    -0.2128194    4.5555198    0.2841681  0.00   -0.0003163    0.0013006    0.0010639
h     1.9716942    3.5478267   -0.0155783  0.00    6.3173443   -1.7192499   -6.8656935
h     2.1640575   -1.6228512   -0.5832987  0.00   -0.0175163   -0.0087595   -0.0000968
o     3.8323497    3.4248872   -3.2088760  0.00   -0.0361963   -0.0747667    0.1124908
o     2.9146543    3.2486346   -1.0681380  0.00   -6.2466982    1.7778382    6.8597560
h     3.3212503    4.0945399   -0.7839643  0.00   -0.3676454   -0.1967359    0.2042316
    27
 Energy =       1.3113487433
c    -1.2454691    2.8113781    0.2072099  0.00   -0.0209659    0.0175407    0.0008192
c    -1.2205903    1.4410888    0.0990100  0.00   -0.0377348   -0.0161927    0.0002388
c    -0.0057856    0.8232869   -0.0339937  0.00   -0.0360416   -0.0711818    0.0026674
c    -0.0766718    3.5378469    0.1747470  0.00   -0.0092673    0.0308794    0.0002948
c     1.1452812    2.9066913    0.0301387  0.00    0.2808089    0.0877948   -0.1570443
c     1.1734480    1.5124369   -0.0852643  0.00    0.0303802    0.0321644   -0.0036430
n     0.2187214   -0.5481404   -0.2143563  0.00    0.0589739    0.0387282   -0.0044823
c     2.1946919    0.5687586   -0.2861894  0.00    0.0672967   -0.0334434   -0.0004362
c     1.6121841   -0.6647357   -0.3459451  0.00   -0.0367857   -0.0409393    0.0001236
h    -0.4924438   -1.3008558   -0.2218055  0.00    0.0108417    0.0149189   -0.0016132
c     3.6822643    0.7943583   -0.4893190  0.00   -0.0146615    0.0352655   -0.0170780
c     4.1028614    1.2311598   -1.9191699  0.00    0.0226265   -0.0076367    0.0650493
h     4.2203739   -0.1467147   -0.2457222  0.00   -0.0008442    0.0001084    0.0000129
h     4.0327575    1.5417204    0.2547654  0.00   -0.0026813    0.0031944   -0.0035797
c     3.6652189    2.6685356   -2.1606569  0.00    0.0186604    0.1083666   -0.1241521
n     3.5596907    0.3417976   -2.9892847  0.00   -0.0066791   -0.0141399   -0.0377436
h     5.2103795    1.2342045   -1.9849672  0.00   -0.0048165   -0.0044267   -0.0073884
h     4.3524747   -0.0420168   -3.5424070  0.00   -0.0067051    0.0025784    0.0091794
h     3.0753993   -0.4798494   -2.5791963  0.00    0.0031100    0.0100142    0.0031232
h    -2.1993910    3.3252907    0.3115076  0.00   -0.0015972    0.0003275    0.0003853
h    -2.1409387    0.8628370    0.1072404  0.00   -0.0028672   -0.0000932   -0.0002780
h    -0.1165493    4.6232952    0.2496796  0.00   -0.0002754    0.0016794    0.0010544
h     2.0398907    3.5374554   -0.0441919  0.00    5.6133472   -1.5276204   -6.0998472
h     2.0943921   -1.6231612   -0.5242421  0.00   -0.0154329   -0.0082267   -0.0002601
o     3.8775228    3.3320664   -3.2801669  0.00   -0.0317699   -0.0658792    0.0973962
o     2.9919937    3.2380176   -1.1062641  0.00   -5.5494453    1.5814644    6.0952148
h     3.4099196    4.0763664   -0.8227423  0.00   -0.3274745   -0.1752453    0.1819869
    27
 Energy =       1.1135224557
c    -1.1743848    2.9339466    0.2411209  0.00   -0.0177363    0.0141184    0.0008898
c    -1.2021918    1.5653481    0.1460628  0.00   -0.0309358   -0.0136359    0.0002545
c    -0.0185331    0.9025907   -0.0075183  0.00   -0.0277574   -0.0552598    0.0019196
c     0.0195698    3.6142397    0.1813855  0.00   -0.0074964    0.0257035    0.0004727
c     1.2110797    2.9356349    0.0183059  0.00    0.2272854    0.0725085   -0.1272415
c     1.1804219    1.5443488   -0.0894127  0.00    0.0248024    0.0259032   -0.0028246
n     0.1436764   -0.4861154   -0.1482670  0.00    0.0456720    0.0288083   -0.0030110
c     2.1580607    0.5650815   -0.2944815  0.00    0.0535237   -0.0260316   -0.0001304
c     1.5340376   -0.6466135   -0.3226175  0.00   -0.0277623   -0.0335542   -0.0004469
h    -0.5969581   -1.2145358   -0.1163046  0.00    0.0068129    0.0100787   -0.0009618
c     3.6544789    0.7165302   -0.5206187  0.00   -0.0109310    0.0275714   -0.0142663
c     4.0739304    1.1339535   -1.9587483  0.00    0.0185865   -0.0064131    0.0512297
h     4.1519743   -0.2510936   -0.2885311  0.00    0.0000883   -0.0009588   -0.0000986
h     4.0553849    1.4434532    0.2201616  0.00   -0.0014025    0.0033965   -0.0020648
c     3.7160650    2.5938424   -2.1927976  0.00    0.0153221    0.0872818   -0.0961111
n     3.4694719    0.2715849   -3.0163570  0.00   -0.0069117   -0.0093875   -0.0308027
h     5.1817848    1.0782866   -2.0385811  0.00   -0.0020202   -0.0034691   -0.0060689
h     4.2312184   -0.1606125   -3.5827806  0.00   -0.0034963    0.0007557    0.0055371
h     2.9303731   -0.5187425   -2.6054742  0.00    0.0005801    0.0053051    0.0029221
h    -2.1064486    3.4840438    0.3639439  0.00   -0.0022632    0.0006553    0.0005714
h    -2.1425947    1.0201420    0.1867443  0.00   -0.0033684   -0.0008548   -0.0000385
h     0.0238104    4.7009981    0.2559492  0.00   -0.0002808    0.0023170    0.0010089
h     2.1353387    3.5177252   -0.0485216  0.00    4.5551167   -1.2388157   -4.9481335
h     1.9905436   -1.6197388   -0.4943864  0.00   -0.0119461   -0.0070668   -0.0004270
o     3.8957958    3.2201330   -3.3581098  0.00   -0.0251461   -0.0525175    0.0733593
o     3.1033478    3.2163221   -1.1276476  0.00   -4.5009429    1.2866108    4.9453007
h     3.5423729    4.0423654   -0.8441050  0.00   -0.2673926   -0.1430492    0.1491616
    27
 Energy =       0.9506788146
c    -1.0951733    3.0476258    0.2907479  0.00   -0.0151952    0.0117521    0.0008960
c    -1.1820930    1.6848353    0.1764748  0.00   -0.0255846   -0.0115092    0.0003284
c    -0.0332889    0.9747324   -0.0013897  0.00   -0.0215194   -0.0435507    0.0017301
c     0.1259048    3.6756263    0.2312830  0.00   -0.0061194    0.0217293    0.0004847
c     1.2832478    2.9482914    0.0475887  0.00    0.1817039    0.0594067   -0.1023165
c     1.1884320    1.5636614   -0.0865850  0.00    0.0197908    0.0201773   -0.0022612
n     0.0601204   -0.4218932   -0.1581819  0.00    0.0353917    0.0212108   -0.0024007
c     2.1183252    0.5488325   -0.3140671  0.00    0.0423298   -0.0203828   -0.0001936
c     1.4458831   -0.6341970   -0.3482647  0.00   -0.0210305   -0.0279609   -0.0005133
h    -0.7128524   -1.1197831   -0.1280836  0.00    0.0041366    0.0067991   -0.0006360
c     3.6215616    0.6243436   -0.5558275  0.00   -0.0078891    0.0211354   -0.0123479
c     4.0445102    1.0556096   -1.9916419  0.00    0.0154811   -0.0054198    0.0393011
h     4.0726006   -0.3745247   -0.3545915  0.00    0.0011100   -0.0024488    0.0001126
h     4.0717118    1.3097196    0.1985120  0.00    0.0000416    0.0037400   -0.0003166
c     3.7477525    2.5332057   -2.1942332  0.00    0.0133228    0.0678252   -0.0730737
n     3.4003620    0.2334878   -3.0557127  0.00   -0.0060572   -0.0058060   -0.0254611
h     5.1500722    0.9585273   -2.0781018  0.00   -0.0007196   -0.0027305   -0.0047144
h     4.1398708   -0.2325815   -3.6274562  0.00   -0.0018627   -0.0000443    0.0035651
h     2.8112355   -0.5306119   -2.6586178  0.00   -0.0012213    0.0020017    0.0027418
h    -2.0017945    3.6356260    0.4329768  0.00   -0.0028411    0.0011792    0.0007075
h    -2.1444417    1.1788951    0.2216698  0.00   -0.0035556   -0.0012889    0.0001070
h     0.1791636    4.7601932    0.3283456  0.00   -0.0002440    0.0033297    0.0009767
h     2.2417156    3.4846990    0.0057592  0.00    3.6791824   -0.9982910   -3.9931412
h     1.8694877   -1.6206847   -0.5334245  0.00   -0.0089897   -0.0063392   -0.0005212
o     3.8415977    3.1490247   -3.3921681  0.00   -0.0197176   -0.0409945    0.0514697
o     3.2253934    3.1805628   -1.0916830  0.00   -3.6328657    1.0425095    3.9931599
h     3.6923213    3.9898953   -0.8049141  0.00   -0.2170779   -0.1160295    0.1223167
    27
 Energy =       0.8047665803
c    -1.0598464    3.0871642    0.3455952  0.00   -0.0120418    0.0088608    0.0007163
c    -1.1641806    1.7284675    0.2342316  0.00   -0.0198033   -0.0086725    0.0001997
c    -0.0309134    1.0066487    0.0293192  0.00   -0.0161275   -0.0331583    0.0011557
c     0.1643174    3.6991665    0.2529777  0.00   -0.0046003    0.0167725    0.0004592
c     1.3053524    2.9598179    0.0407426  0.00    0.1435576    0.0456975   -0.0796302
c     1.1918417    1.5805004   -0.0841458  0.00    0.0155844    0.0154787   -0.0017072
n     0.0410217   -0.3939572   -0.1208293  0.00    0.0264527    0.0160770   -0.0016415
c     2.1047862    0.5626225   -0.3244336  0.00    0.0325369   -0.0153929    0.0000104
c     1.4245262   -0.6127795   -0.3411567  0.00   -0.0156150   -0.0213836   -0.0006274
h    -0.7368529   -1.0871605   -0.0698789  0.00    0.0027278    0.0050089   -0.0005289
c     3.6094738    0.6199380   -0.5704006  0.00   -0.0060251    0.0159186   -0.0091799
c     4.0342899    1.0223113   -2.0160478  0.00    0.0119549   -0.0044956    0.0301626
h     4.0518262   -0.3790767   -0.3530148  0.00    0.0008105   -0.0021830   -0.0000899
h     4.0673193    1.3138047    0.1706045  0.00    0.0000982    0.0027416   -0.0001750
c     3.7312673    2.4923001   -2.2599836  0.00    0.0129671    0.0464457   -0.0405722
n     3.4050305    0.1662054   -3.0591456  0.00   -0.0056203   -0.0030705   -0.0201543
h     5.1411357    0.9334771   -2.0925837  0.00   -0.0005173   -0.0021283   -0.0036868
h     4.1496072   -0.3324854   -3.5984716  0.00   -0.0005107   -0.0008751    0.0014864
h     2.7898305   -0.5713840   -2.6501017  0.00   -0.0017162    0.0007575    0.0026211
h    -1.9554253    3.6859320    0.5088850  0.00   -0.0023914    0.0011154    0.0006688
h    -2.1302103    1.2334737    0.3042699  0.00   -0.0030635   -0.0009980    0.0000952
h     0.2323383    4.7832638    0.3411343  0.00    0.0000357    0.0026958    0.0009269
h     2.2545149    3.4957589   -0.0477181  0.00    2.8978930   -0.7849703   -3.1460803
h     1.8456988   -1.6005251   -0.5227229  0.00   -0.0069717   -0.0048665   -0.0005722
o     3.6828446    3.0385971   -3.5166152  0.00   -0.0167357   -0.0254813    0.0218451
o     3.2586976    3.1883171   -1.1630999  0.00   -2.8597905    0.8216034    3.1463641
h     3.7533344    3.9827201   -0.8789966  0.00   -0.1730886   -0.0914974    0.0979344
    27
 Energy =       0.7818219367
c    -1.0557098    3.0848329    0.3630675  0.00   -0.0114660    0.0084788    0.0006969
c    -1.1587817    1.7269004    0.2472332  0.00   -0.0188768   -0.0082219    0.0001892
c    -0.0260963    1.0072849    0.0342797  0.00   -0.0153632   -0.0315714    0.0010966
c     0.1666710    3.6983685    0.2658687  0.00   -0.0043684    0.0160012    0.0004660
c     1.3069796    2.9615005    0.0453020  0.00    0.1368991    0.0435057   -0.0758715
c     1.1950077    1.5827261   -0.0825564  0.00    0.0148671    0.0147481   -0.0016244
n     0.0463241   -0.3929882   -0.1217845  0.00    0.0251647    0.0153236   -0.0015906
c     2.1082585    0.5676011   -0.3294313  0.00    0.0309987   -0.0146836   -0.0000166
c     1.4298683   -0.6082195   -0.3482701  0.00   -0.0148857   -0.0203812   -0.0006213
h    -0.7301975   -1.0878545   -0.0699860  0.00    0.0025598    0.0047966   -0.0005434
c     3.6135175    0.6273793   -0.5752668  0.00   -0.0057242    0.0151046   -0.0087237
c     4.0354435    1.0293691   -2.0221665  0.00    0.0115394   -0.0043094    0.0294285
h     4.0584919   -0.3700680   -0.3564717  0.00    0.0007487   -0.0021318   -0.0001309
h     4.0698904    1.3236337    0.1641715  0.00    0.0001067    0.0025608   -0.0001709
c     3.6973688    2.4907315   -2.2781372  0.00    0.0139038    0.0408606   -0.0299869
n     3.4299323    0.1489023   -3.0588988  0.00   -0.0058750   -0.0030760   -0.0194971
h     5.1445146    0.9659562   -2.0934292  0.00   -0.0001808   -0.0020378   -0.0035120
h     4.1874094   -0.3355473   -3.5934958  0.00   -0.0002872   -0.0009715    0.0012205
h     2.8312192   -0.5997883   -2.6449694  0.00   -0.0018428    0.0004405    0.0025079
h    -1.9510690    3.6820483    0.5325041  0.00   -0.0022612    0.0011107    0.0006607
h    -2.1237948    1.2306184    0.3198505  0.00   -0.0029251   -0.0009075    0.0000801
h     0.2336414    4.7823146    0.3556843  0.00    0.0000852    0.0025777    0.0009301
h     2.2523936    3.5025047   -0.0519017  0.00    2.7640799   -0.7485648   -3.0006951
h     1.8531424   -1.5943917   -0.5327547  0.00   -0.0066771   -0.0046493   -0.0005876
o     3.5240915    2.9995977   -3.5484337  0.00   -0.0172894   -0.0202891    0.0108973
o     3.2609523    3.1943961   -1.1705553  0.00   -2.7276252    0.7835855    3.0018713
h     3.7621568    3.9853096   -0.8910390  0.00   -0.1653049   -0.0872990    0.0935269
    27
 Energy =       0.7685270060
c    -1.0684885    3.0755713    0.3558839  0.00   -0.0113125    0.0083505    0.0007023
c    -1.1629409    1.7157608    0.2564194  0.00   -0.0185442   -0.0082042    0.0001868
c    -0.0266260    1.0016132    0.0454437  0.00   -0.0150654   -0.0308727    0.0010879
c     0.1489429    3.6961862    0.2435449  0.00   -0.0042029    0.0157740    0.0004537
c     1.2927062    2.9645931    0.0243198  0.00    0.1342089    0.0427687   -0.0743495
c     1.1895915    1.5842447   -0.0849134  0.00    0.0145937    0.0144603   -0.0015920
n     0.0555922   -0.4005729   -0.0904902  0.00    0.0246903    0.0147887   -0.0015641
c     2.1088685    0.5737453   -0.3224858  0.00    0.0305026   -0.0142171   -0.0000780
c     1.4396683   -0.6075078   -0.3223388  0.00   -0.0146466   -0.0200799   -0.0006087
h    -0.7150484   -1.1010978   -0.0251026  0.00    0.0023907    0.0045384   -0.0005000
c     3.6132594    0.6418651   -0.5697682  0.00   -0.0056809    0.0147618   -0.0084957
c     4.0357007    1.0243676   -2.0218472  0.00    0.0114107   -0.0043154    0.0289465
h     4.0647643   -0.3494110   -0.3362985  0.00    0.0007949   -0.0022030   -0.0001050
h     4.0645399    1.3519170    0.1599105  0.00    0.0001750    0.0026194   -0.0000701
c     3.7244207    2.4885064   -2.2915018  0.00    0.0142834    0.0358849   -0.0208753
n     3.4142954    0.1466193   -3.0512994  0.00   -0.0060286   -0.0023182   -0.0190766
h     5.1437130    0.9427993   -2.0958377  0.00   -0.0000196   -0.0019620   -0.0035305
h     4.1631181   -0.3656472   -3.5731222  0.00    0.0003229   -0.0013214    0.0007886
h     2.7918218   -0.5806482   -2.6335008  0.00   -0.0022797   -0.0001590    0.0028099
h    -1.9668513    3.6686188    0.5239533  0.00   -0.0022382    0.0010814    0.0006603
h    -2.1239261    1.2135498    0.3414562  0.00   -0.0029444   -0.0009884    0.0001003
h     0.2088704    4.7817332    0.3190686  0.00    0.0000997    0.0026534    0.0009144
h     2.2304573    3.5116451   -0.0898145  0.00    2.7102319   -0.7338441   -2.9421630
h     1.8706433   -1.5926779   -0.4944055  0.00   -0.0065175   -0.0046772   -0.0005793
o     3.6828446    3.0182813   -3.5702353  0.00   -0.0170775   -0.0158607    0.0003509
o     3.2410259    3.2029007   -1.2096546  0.00   -2.6751633    0.7689499    2.9449735
h     3.7406626    3.9961632   -0.9289702  0.00   -0.1619835   -0.0856081    0.0916129
    27
 Energy =       0.7320393138
c    -1.0778044    3.0849847    0.3359232  0.00   -0.0105806    0.0078144    0.0006680
c    -1.1716299    1.7245091    0.2519197  0.00   -0.0173040   -0.0077537    0.0001722
c    -0.0360665    1.0092190    0.0453467  0.00   -0.0140501   -0.0286688    0.0010156
c     0.1384554    3.7047798    0.2117902  0.00   -0.0038918    0.0147570    0.0004293
c     1.2811820    2.9713873   -0.0027869  0.00    0.1254670    0.0400343   -0.0694550
c     1.1784071    1.5913221   -0.0937523  0.00    0.0135739    0.0135061   -0.0014701
n     0.0480303   -0.3952924   -0.0702164  0.00    0.0230734    0.0135792   -0.0014538
c     2.0988589    0.5815383   -0.3165392  0.00    0.0284540   -0.0131069   -0.0001005
c     1.4333040   -0.6010122   -0.2997711  0.00   -0.0136951   -0.0187485   -0.0005764
h    -0.7208390   -1.0971928    0.0045690  0.00    0.0022055    0.0041546   -0.0004341
c     3.6047013    0.6503713   -0.5524263  0.00   -0.0054652    0.0136857   -0.0077463
c     4.0416876    1.0053817   -2.0076208  0.00    0.0107357   -0.0043894    0.0269948
h     4.0567637   -0.3350034   -0.2956249  0.00    0.0008758   -0.0022766   -0.0000452
h     4.0471836    1.3757528    0.1677401  0.00    0.0002088    0.0025701    0.0001106
c     3.7587704    2.4697018   -2.3030962  0.00    0.0132060    0.0297135   -0.0126801
n     3.4169477    0.1230563   -3.0301637  0.00   -0.0059278   -0.0007342   -0.0177663
h     5.1492351    0.9067841   -2.0712926  0.00    0.0001705   -0.0018399   -0.0033896
h     4.1623374   -0.4214838   -3.5253586  0.00    0.0013437   -0.0019242    0.0000607
h     2.7648565   -0.5778529   -2.6112696  0.00   -0.0028969   -0.0009573    0.0032603
h    -1.9758562    3.6792900    0.5003532  0.00   -0.0021017    0.0009991    0.0006238
h    -2.1316266    1.2223994    0.3466697  0.00   -0.0027746   -0.0009901    0.0001118
h     0.1978967    4.7911937    0.2732152  0.00    0.0000877    0.0025699    0.0008505
h     2.2164027    3.5165923   -0.1307052  0.00    2.5334290   -0.6859248   -2.7503686
h     1.8694259   -1.5870449   -0.4535163  0.00   -0.0060042   -0.0045405   -0.0005556
o     3.8415977    3.0037165   -3.5833438  0.00   -0.0151742   -0.0112751   -0.0085281
o     3.2328430    3.2065323   -1.2556784  0.00   -2.5016967    0.7197846    2.7547489
h     3.7365614    3.9994887   -0.9759511  0.00   -0.1512680   -0.0800385    0.0855230
    27
 Energy =       0.6746406912
c    -1.0859862    3.1009508    0.3135094  0.00   -0.0093717    0.0069045    0.0006100
c    -1.1808582    1.7402353    0.2489287  0.00   -0.0152491   -0.0069944    0.0001434
c    -0.0477920    1.0221590    0.0460135  0.00   -0.0123581   -0.0250465    0.0008767
c     0.1292130    3.7177609    0.1728728  0.00   -0.0033587    0.0130627    0.0003914
c     1.2690904    2.9807358   -0.0373230  0.00    0.1112559    0.0355314   -0.0614822
c     1.1647383    1.6017678   -0.1054834  0.00    0.0119130    0.0119293   -0.0012699
n     0.0364949   -0.3851456   -0.0443943  0.00    0.0203699    0.0116247   -0.0012589
c     2.0850840    0.5925633   -0.3106851  0.00    0.0250420   -0.0112648   -0.0001083
c     1.4231213   -0.5903705   -0.2724915  0.00   -0.0121216   -0.0165186   -0.0005225
h    -0.7307619   -1.0879711    0.0428492  0.00    0.0018900    0.0035329   -0.0003309
c     3.5928706    0.6608294   -0.5322259  0.00   -0.0050842    0.0119721   -0.0065131
c     4.0482880    0.9801649   -1.9908405  0.00    0.0095955   -0.0044271    0.0237303
h     4.0446428   -0.3165607   -0.2453701  0.00    0.0009871   -0.0023794    0.0000639
h     4.0249733    1.4052896    0.1749131  0.00    0.0002448    0.0024619    0.0003814
c     3.7949261    2.4416787   -2.3220181  0.00    0.0109679    0.0225243   -0.0051098
n     3.4255369    0.0862232   -3.0029019  0.00   -0.0056633    0.0016287   -0.0157756
h     5.1553795    0.8655393   -2.0386599  0.00    0.0003969   -0.0016625   -0.0031009
h     4.1680483   -0.4962435   -3.4606065  0.00    0.0028276   -0.0029172   -0.0009923
h     2.7385972   -0.5813979   -2.5836057  0.00   -0.0037429   -0.0019566    0.0038513
h    -1.9825836    3.6979729    0.4745516  0.00   -0.0018700    0.0008650    0.0005613
h    -2.1400317    1.2397021    0.3571669  0.00   -0.0025033   -0.0009812    0.0001268
h     0.1895327    4.8048929    0.2163318  0.00    0.0000803    0.0024173    0.0007454
h     2.2019745    3.5225930   -0.1838262  0.00    2.2472245   -0.6082499   -2.4399123
h     1.8653096   -1.5771860   -0.4028943  0.00   -0.0051761   -0.0042837   -0.0005127
o     4.0003508    2.9669499   -3.5969689  0.00   -0.0118588   -0.0066359   -0.0160602
o     3.2287533    3.2101734   -1.3180847  0.00   -2.2204414    0.6398604    2.4456697
h     3.7427141    3.9998119   -1.0403435  0.00   -0.1339963   -0.0709973    0.0757980
    27
 Energy =       0.6003699357
c    -1.0919543    3.1236805    0.2887884  0.00   -0.0077849    0.0056970    0.0005378
c    -1.1893095    1.7631351    0.2497612  0.00   -0.0125276   -0.0060278    0.0001042
c    -0.0604406    1.0404492    0.0501573  0.00   -0.0100991   -0.0202421    0.0006716
c     0.1221039    3.7351547    0.1255241  0.00   -0.0026138    0.0108373    0.0003401
c     1.2573850    2.9925061   -0.0799975  0.00    0.0926558    0.0296310   -0.0510488
c     1.1497667    1.6154747   -0.1191616  0.00    0.0097505    0.0098431   -0.0010097
n     0.0226406   -0.3699113   -0.0084947  0.00    0.0167692    0.0089958   -0.0009783
c     2.0687577    0.6066218   -0.3037101  0.00    0.0205574   -0.0087677   -0.0001159
c     1.4105004   -0.5756230   -0.2370619  0.00   -0.0100486   -0.0135815   -0.0004495
h    -0.7429595   -1.0730359    0.0959376  0.00    0.0014360    0.0026736   -0.0001826
c     3.5783692    0.6733080   -0.5113407  0.00   -0.0045947    0.0097492   -0.0048971
c     4.0529905    0.9484331   -1.9738984  0.00    0.0080724   -0.0044157    0.0194368
h     4.0293793   -0.2934810   -0.1887445  0.00    0.0010999   -0.0024881    0.0002254
h     4.0002805    1.4403238    0.1778779  0.00    0.0002856    0.0023231    0.0007083
c     3.8327392    2.4040352   -2.3495468  0.00    0.0079538    0.0149231    0.0013304