    13
 Energy =       0.1074345784
c    -3.7133889    1.6950595    0.3173519  0.00   -0.0708600    0.0268475    0.0948516
c    -2.4962693    2.6345192    0.2419999  0.00    0.2274579    0.1409512   -0.2996492
c    -4.9565486    2.3924193   -0.2155699  0.00    0.0132814    0.0007986    0.0112553
h    -4.7854386    2.7464192   -1.2386596  0.00   -0.0055375   -0.0040142    0.0178056
h    -5.2149185    3.2645991    0.3947669  0.00    0.0014311   -0.0128621   -0.0129838
h    -5.8205083    1.7195795   -0.2420919  0.00    0.0117510    0.0110691   -0.0053363
n    -3.4097890    0.4519539   -0.4549189  0.00    0.0237086   -0.0676429   -0.0119223
h    -3.8575589    1.4177196    1.3669296  0.00    0.0097812   -0.0095017   -0.0276478
h    -3.2072391   -0.2948399    0.2179739  0.00   -0.0166952    0.0298825   -0.0188106
h    -4.2689788    0.1396900   -0.9176007  0.00    0.0234545    0.0218152    0.0253616
o    -1.9513094    3.0041591   -0.7839488  0.00   -0.1403917   -0.0900552    0.2464049
o    -2.1005994    3.0267291    1.4825496  0.00   -0.0375602   -0.0336691   -0.0112527
h    -1.1397697    2.7938992    1.5347396  0.00   -0.0398212   -0.0136190   -0.0080761
    13
 Energy =       0.0858935026
c    -3.6947713    1.6968754    0.3084011  0.00   -0.0305623    0.0124499    0.0391549
c    -2.5324958    2.6891061    0.2799822  0.00    0.1031117    0.0524781   -0.1268638
c    -4.9873041    2.3521219   -0.1916650  0.00    0.0065378    0.0005543    0.0045121
h    -4.8375629    2.7720385   -1.2067361  0.00   -0.0017643    0.0000665    0.0057305
h    -5.2940159    3.1791534    0.4801453  0.00   -0.0013348   -0.0030623   -0.0029791
h    -5.8136134    1.6172330   -0.2329740  0.00    0.0033640    0.0025474   -0.0020051
n    -3.3576616    0.5008182   -0.5055968  0.00    0.0142740   -0.0238083   -0.0044648
h    -3.8244248    1.3936505    1.3658003  0.00    0.0048119   -0.0042851   -0.0112079
h    -3.0980631   -0.2854254    0.1245232  0.00   -0.0062413    0.0082418   -0.0059000
h    -4.1794196    0.1662440   -1.0506723  0.00    0.0062555    0.0054919    0.0065613
o    -1.9643510    3.0813665   -0.8405530  0.00   -0.0596158   -0.0392810    0.1049051
o    -2.1161312    3.1854823    1.4936032  0.00   -0.1020602    0.0517700   -0.0102793
h    -1.2225019    2.6432426    1.6792635  0.00    0.0632238   -0.0631631    0.0028361
    13
 Energy =       0.0743751994
c    -3.7007944    1.6831400    0.3193778  0.00   -0.0038781    0.0015036    0.0052450
c    -2.5505480    2.6789982    0.3231474  0.00    0.0120104    0.0022690   -0.0133147
c    -5.0018490    2.3210498   -0.1919901  0.00    0.0058872   -0.0020572    0.0038686
h    -4.8855174    2.6195526   -1.2662012  0.00    0.0008385    0.0011966   -0.0076967
h    -5.2511239    3.2311968    0.4089269  0.00   -0.0010678    0.0049633    0.0042789
h    -5.8458628    1.5927467   -0.1010888  0.00   -0.0049367   -0.0067263    0.0015293
n    -3.3580043    0.4962806   -0.4925103  0.00    0.0110258    0.0038219    0.0031163
h    -3.8458827    1.3905938    1.3862543  0.00    0.0010409   -0.0007604   -0.0013175
h    -3.1675921   -0.3225894    0.1350765  0.00    0.0002257   -0.0026220    0.0021066
h    -4.1368011    0.2095980   -1.1424826  0.00   -0.0078245   -0.0012809   -0.0075566
o    -1.9790247    3.1170657   -0.8557922  0.00   -0.0088777   -0.0024021    0.0110427
o    -2.0769516    3.1722783    1.5295879  0.00   -0.0303403    0.0297545   -0.0096962
h    -1.1223646    2.8019957    1.6512159  0.00    0.0258965   -0.0276601    0.0083944
    13
 Energy =       0.0745984726
c    -3.6955419    1.6855736    0.3224002  0.00   -0.0038918    0.0013071    0.0061017
c    -2.5795244    2.7207682    0.3261771  0.00    0.0089732   -0.0003923   -0.0075193
c    -5.0172741    2.2798650   -0.1922542  0.00    0.0049475   -0.0014178    0.0031931
h    -4.9090157    2.5796278   -1.2663009  0.00    0.0007644    0.0011329   -0.0069648
h    -5.2955814    3.1839207    0.4046061  0.00   -0.0011001    0.0048515    0.0040155
h    -5.8388302    1.5267544   -0.1007903  0.00   -0.0048734   -0.0063943    0.0014068
n    -3.3112541    0.5098641   -0.4879952  0.00    0.0107671    0.0032297    0.0025302
h    -3.8332496    1.3893681    1.3894673  0.00    0.0009111   -0.0007401   -0.0011452
h    -3.0912622   -0.3008074    0.1410244  0.00    0.0003616   -0.0030765    0.0021963
h    -4.0816041    0.1942446   -1.1343029  0.00   -0.0075765   -0.0014357   -0.0072657
o    -2.0843295    3.2484911   -0.8575494  0.00   -0.0051325    0.0011073    0.0023833
o    -2.0711512    3.1711495    1.5364721  0.00   -0.0283913    0.0271201   -0.0065877
h    -1.1136980    2.8030872    1.6225673  0.00    0.0242406   -0.0252918    0.0076558
    13
 Energy =       0.0759657008
c    -3.6847888    1.6911845    0.3220887  0.00   -0.0047899    0.0009265    0.0082998
c    -2.6280596    2.7904802    0.3267392  0.00    0.0073571   -0.0023888   -0.0013191
c    -5.0373198    2.2116502   -0.1999486  0.00    0.0034988   -0.0002530    0.0020860
h    -4.9421053    2.5086721   -1.2755533  0.00    0.0006253    0.0011827   -0.0064524
h    -5.3627318    3.1066173    0.3876688  0.00   -0.0014229    0.0054339    0.0040883
h    -5.8212853    1.4189838   -0.1044541  0.00   -0.0055101   -0.0068057    0.0013390
n    -3.2321112    0.5363692   -0.4856966  0.00    0.0128850    0.0055138    0.0008740
h    -3.8115413    1.3890107    1.3889982  0.00    0.0007036   -0.0007683   -0.0008849
h    -2.9350813   -0.2504972    0.1467280  0.00    0.0019141   -0.0071940    0.0045653
h    -3.9972190    0.1558101   -1.1055845  0.00   -0.0099374   -0.0026924   -0.0088637
o    -2.2202588    3.4072442   -0.8542079  0.00   -0.0012246    0.0057276   -0.0057154
o    -2.0952091    3.2169442    1.5356153  0.00   -0.0277258    0.0246077   -0.0049149
h    -1.1546055    2.8094375    1.6211282  0.00    0.0236268   -0.0232899    0.0068980
    13
 Energy =       0.0771198011
c    -3.6884711    1.6968841    0.3105797  0.00   -0.0061576    0.0011940    0.0087719
c    -2.6613266    2.8246980    0.3628980  0.00    0.0064349   -0.0035239    0.0008646
c    -5.0369020    2.1936043   -0.2457208  0.00    0.0029039   -0.0003174    0.0018302
h    -4.9198866    2.4891399   -1.3196021  0.00    0.0006163    0.0011067   -0.0064207
h    -5.3912488    3.0849367    0.3308495  0.00   -0.0015394    0.0055169    0.0041819
h    -5.8111973    1.3899169   -0.1675514  0.00   -0.0055105   -0.0065997    0.0012646
n    -3.1855804    0.5687917   -0.5060459  0.00    0.0162961    0.0150382   -0.0023003
h    -3.8420514    1.3720050    1.3678158  0.00    0.0001568   -0.0004730   -0.0000109
h    -2.7763282   -0.1782487    0.1227807  0.00    0.0066052   -0.0151657    0.0106475
h    -3.9632135    0.1070597   -1.0598201  0.00   -0.0166497   -0.0057969   -0.0127399
o    -2.2875567    3.5175297   -0.7899062  0.00    0.0003570    0.0078383   -0.0093400
o    -2.1304225    3.2065602    1.5885012  0.00   -0.0328453    0.0264960   -0.0043294
h    -1.2281316    2.7190294    1.7087432  0.00    0.0293322   -0.0253134    0.0075804
    13
 Energy =       0.0759979160
c    -3.7076047    1.6862987    0.3040095  0.00   -0.0079096    0.0001076    0.0129972
c    -2.6178108    2.7560921    0.3902446  0.00    0.0073376   -0.0066715    0.0052411
c    -5.0225266    2.2652207   -0.2594237  0.00    0.0024067    0.0010961    0.0012262
h    -4.8787040    2.5663647   -1.3300875  0.00    0.0007280    0.0016838   -0.0081367
h    -5.3346236    3.1690600    0.3265331  0.00   -0.0022023    0.0076389    0.0053606
h    -5.8409620    1.5001213   -0.1975761  0.00   -0.0080810   -0.0091511    0.0015937
n    -3.2555916    0.5466697   -0.5291780  0.00    0.0211051    0.0171422   -0.0029611
h    -3.8905405    1.3480381    1.3528756  0.00    0.0002996   -0.0011950    0.0004099
h    -2.8544740   -0.2173080    0.0890468  0.00    0.0081427   -0.0187405    0.0130449
h    -4.0610265    0.1117097   -1.0713666  0.00   -0.0211206   -0.0077436   -0.0161432
o    -2.1288036    3.3985367   -0.7569595  0.00    0.0044748    0.0141086   -0.0191953
o    -2.1415902    3.1338466    1.6408384  0.00   -0.0483344    0.0350317   -0.0018507
h    -1.1880585    2.7272565    1.7445649  0.00    0.0431535   -0.0333072    0.0084134
    13
 Energy =       0.0725515115
c    -3.7451127    1.6825354    0.2972026  0.00   -0.0080671   -0.0035105    0.0141258
c    -2.5772079    2.6665305    0.4431973  0.00    0.0072484   -0.0085168    0.0088881
c    -4.9937099    2.3653478   -0.3111015  0.00   -0.0001255    0.0050418    0.0001905
h    -4.7883394    2.6625472   -1.3740664  0.00    0.0009476    0.0026409   -0.0094101
h    -5.2628776    3.2858507    0.2709127  0.00   -0.0027188    0.0083725    0.0051487
h    -5.8686478    1.6588744   -0.2855618  0.00   -0.0107553   -0.0109131    0.0018584
n    -3.3475512    0.5245454   -0.5379783  0.00    0.0226028    0.0154147   -0.0025670
h    -3.9940592    1.3392635    1.3329248  0.00   -0.0002131   -0.0030226    0.0020819
h    -2.9257271   -0.2315077    0.0753884  0.00    0.0079397   -0.0177497    0.0128315
h    -4.1852718    0.0900558   -1.0306005  0.00   -0.0218288   -0.0092493   -0.0167465
o    -1.9723767    3.2671933   -0.6770332  0.00    0.0099748    0.0183571   -0.0247767
o    -2.1291958    2.9950814    1.7190209  0.00   -0.0559747    0.0379290    0.0021612
h    -1.1322395    2.6855892    1.7812165  0.00    0.0509699   -0.0347940    0.0062143
    13
 Energy =       0.0670657332
c    -3.7827446    1.6822506    0.2906803  0.00   -0.0068182   -0.0055754    0.0119578
c    -2.5472114    2.5720295    0.4897486  0.00    0.0060332   -0.0076389    0.0085265
c    -4.9547978    2.4601907   -0.3584717  0.00   -0.0020587    0.0078701   -0.0006722
h    -4.6890374    2.7489214   -1.4094263  0.00    0.0009498    0.0029320   -0.0085463
h    -5.1816694    3.3918536    0.2201361  0.00   -0.0025737    0.0071188    0.0037880
h    -5.8771896    1.8176275   -0.3730149  0.00   -0.0109333   -0.0100711    0.0016787
n    -3.4460918    0.5064370   -0.5429595  0.00    0.0204011    0.0111044   -0.0015074
h    -4.0943412    1.3465003    1.3130990  0.00   -0.0008498   -0.0040251    0.0029645
h    -2.9938224   -0.2348536    0.0613439  0.00    0.0061577   -0.0131511    0.0103196
h    -4.3156177    0.0682938   -0.9677473  0.00   -0.0190105   -0.0092252   -0.0144634
o    -1.8519714    3.1247490   -0.6012773  0.00    0.0121385    0.0168055   -0.0219000
o    -2.1085793    2.8431128    1.7824941  0.00   -0.0559237    0.0330159    0.0055525
h    -1.0792425    2.6647943    1.7989165  0.00    0.0524876   -0.0291601    0.0023016
    13
 Energy =       0.0611716006
c    -3.8167783    1.6840631    0.2832408  0.00   -0.0049111   -0.0055185    0.0085644
c    -2.5253105    2.4753188    0.5276918  0.00    0.0051524   -0.0047214    0.0050144
c    -4.9039685    2.5482693   -0.4003492  0.00   -0.0025914    0.0086329   -0.0010406
h    -4.5795668    2.8237546   -1.4362466  0.00    0.0008447    0.0026638   -0.0065373
h    -5.0867476    3.4875679    0.1764090  0.00   -0.0020353    0.0051109    0.0022123
h    -5.8662760    1.9748522   -0.4574531  0.00   -0.0094667   -0.0077703    0.0012054
n    -3.5482798    0.4928231   -0.5486726  0.00    0.0173043    0.0070327   -0.0007430
h    -4.1847685    1.3662754    1.2925770  0.00   -0.0012689   -0.0040214    0.0028639
h    -3.0567038   -0.2328197    0.0377274  0.00    0.0042449   -0.0079773    0.0074826
h    -4.4501042    0.0516921   -0.8874820  0.00   -0.0159569   -0.0084521   -0.0111332
o    -1.7656779    2.9839082   -0.5357480  0.00    0.0103034    0.0115773   -0.0143034
o    -2.0885822    2.6843596    1.8326500  0.00   -0.0481662    0.0226323    0.0077143
h    -1.0495526    2.6518422    1.8191769  0.00    0.0465468   -0.0191889   -0.0012999
    13
 Energy =       0.0563659268
c    -3.8463142    1.6876010    0.2762677  0.00   -0.0029655   -0.0037838    0.0052875
c    -2.5089720    2.3793857    0.5549121  0.00    0.0047591   -0.0014295    0.0009204
c    -4.8425254    2.6275779   -0.4375067  0.00   -0.0019765    0.0074150   -0.0008162
h    -4.4618980    2.8822796   -1.4572104  0.00    0.0007818    0.0020500   -0.0042673
h    -4.9788456    3.5733582    0.1369493  0.00   -0.0013718    0.0032063    0.0009808
h    -5.8377129    2.1272041   -0.5367253  0.00   -0.0071357   -0.0049647    0.0006218
n    -3.6535954    0.4813282   -0.5508574  0.00    0.0140414    0.0036928   -0.0008069
h    -4.2630201    1.4002336    1.2748594  0.00   -0.0014341   -0.0032401    0.0021480
h    -3.1216101   -0.2329253    0.0086670  0.00    0.0027397   -0.0037456    0.0048955
h    -4.5847844    0.0435752   -0.7921540  0.00   -0.0131454   -0.0070323   -0.0073115
o    -1.7080180    2.8541641   -0.4865526  0.00    0.0060176    0.0056209   -0.0064651
o    -2.0702957    2.5256065    1.8677611  0.00   -0.0359434    0.0107796    0.0079277
h    -1.0447248    2.6425181    1.8451114  0.00    0.0356327   -0.0085685   -0.0031147
    13
 Energy =       0.0534701491
c    -3.8714683    1.6949367    0.2712915  0.00   -0.0011799   -0.0012713    0.0021490
c    -2.4974204    2.2907797    0.5725460  0.00    0.0039430    0.0007733   -0.0021879
c    -4.7735501    2.6949646   -0.4754471  0.00   -0.0009521    0.0046194   -0.0001105
h    -4.3414215    2.9147545   -1.4807716  0.00    0.0008409    0.0012319   -0.0022919
h    -4.8613732    3.6500946    0.0897601  0.00   -0.0007942    0.0017694    0.0003029
h    -5.7944756    2.2684060   -0.6107062  0.00   -0.0041802   -0.0022165    0.0001743
n    -3.7588043    0.4708395   -0.5410929  0.00    0.0094672    0.0005509   -0.0010771
h    -4.3293937    1.4537234    1.2630744  0.00   -0.0014496   -0.0019854    0.0014597
h    -3.1960465   -0.2389370   -0.0109584  0.00    0.0012562   -0.0008439    0.0022261
h    -4.7121473    0.0467718   -0.6852759  0.00   -0.0087325   -0.0045211   -0.0032937
o    -1.6758599    2.7541157   -0.4521776  0.00    0.0013832    0.0010007   -0.0011896
o    -2.0507420    2.3668534    1.8886368  0.00   -0.0207172    0.0013765    0.0067860
h    -1.0596139    2.6246039    1.8746426  0.00    0.0211154   -0.0004838   -0.0029473
    13
 Energy =       0.0525752396
c    -3.8886400    1.7115314    0.2705605  0.00    0.0002355    0.0004357   -0.0006581
c    -2.4951433    2.2453457    0.5819051  0.00   -0.0003055    0.0003660   -0.0046054
c    -4.7222213    2.7325793   -0.5175797  0.00   -0.0004436    0.0009850    0.0004488
h    -4.2595231    2.9020378   -1.5179072  0.00    0.0007490    0.0004137   -0.0011428
h    -4.7716459    3.7049424    0.0208914  0.00   -0.0003961    0.0009871    0.0002972
h    -5.7573300    2.3567383   -0.6661946  0.00   -0.0008810   -0.0003436    0.0001329
n    -3.8309230    0.4647447   -0.5092799  0.00    0.0029810   -0.0009142   -0.0004353
h    -4.3733058    1.5238177    1.2604356  0.00   -0.0010063   -0.0006417    0.0010794
h    -3.2598561   -0.2420719    0.0133147  0.00   -0.0001343    0.0001384    0.0000631
h    -4.7942526    0.0580869   -0.5902130  0.00   -0.0020406   -0.0013070   -0.0005651
o    -1.6893537    2.7698961   -0.4262978  0.00    0.0000492    0.0004138   -0.0030817
o    -2.0168773    2.2081003    1.8913302  0.00   -0.0041224   -0.0013446    0.0105440
h    -1.0632445    2.5561581    1.8925562  0.00    0.0053151    0.0008114   -0.0020770
    13
 Energy =       0.0524412875
c    -3.8949044    1.7294699    0.2763401  0.00    0.0013603    0.0016896    0.0020828
c    -2.5045051    2.2700341    0.5867333  0.00   -0.0002303   -0.0001819    0.0006450
c    -4.7054192    2.7061855   -0.5903679  0.00   -0.0018234   -0.0001020   -0.0005361
h    -4.2270215    2.8055257   -1.5935468  0.00    0.0006497    0.0003535   -0.0021487
h    -4.7510655    3.7130766   -0.1163027  0.00   -0.0002387    0.0021489    0.0010025
h    -5.7411992    2.3321861   -0.7313191  0.00    0.0001144    0.0000102   -0.0000184
n    -3.8330736    0.4361982   -0.4260508  0.00   -0.0010384   -0.0018057   -0.0035833
h    -4.3992155    1.6069509    1.2670942  0.00   -0.0005492   -0.0000606    0.0019708
h    -3.2696478   -0.2407176    0.1458083  0.00    0.0012820   -0.0021186    0.0013865
h    -4.7960188    0.0293285   -0.4887242  0.00    0.0002350   -0.0002825    0.0000558
o    -1.7157277    2.8414258   -0.4085928  0.00    0.0007121    0.0003185   -0.0008884
o    -2.0099692    2.1877858    1.8828691  0.00   -0.0010014   -0.0001817    0.0001111
h    -1.0745493    2.5744573    1.8995809  0.00    0.0005278    0.0002122   -0.0000797
    13
 Energy =       0.0524092441
c    -3.8981035    1.7369150    0.2766768  0.00    0.0005353    0.0006941    0.0007367
c    -2.5044350    2.2692216    0.5879565  0.00   -0.0013665   -0.0001939   -0.0008372
c    -4.7033121    2.7147149   -0.5913723  0.00   -0.0007125   -0.0000376   -0.0002126
h    -4.2251420    2.8080885   -1.5938528  0.00    0.0002730    0.0001486   -0.0008698
h    -4.7417856    3.7223264   -0.1213135  0.00   -0.0001048    0.0008828    0.0004139
h    -5.7416386    2.3467908   -0.7303223  0.00    0.0000257   -0.0000055   -0.0000065
n    -3.8431708    0.4432174   -0.4222952  0.00   -0.0003749   -0.0007409   -0.0014532
h    -4.4033775    1.6188755    1.2662204  0.00   -0.0002468   -0.0000311    0.0007911
h    -3.2833889   -0.2342249    0.1508691  0.00    0.0005181   -0.0008518    0.0005573
h    -4.8083340    0.0412366   -0.4838142  0.00    0.0000732   -0.0001220    0.0000227
o    -1.7359251    2.8914266   -0.3938333  0.00    0.0008642    0.0008960   -0.0023263
o    -1.9841818    2.1227186    1.8702390  0.00    0.0002694   -0.0007278    0.0032004
h    -1.0495216    2.5105999    1.8883633  0.00    0.0002466    0.0000890   -0.0000165
    13
 Energy =       0.0523950435
c    -3.9008502    1.7433963    0.2779268  0.00   -0.0000783   -0.0001094   -0.0001111
c    -2.5070000    2.2748144    0.5907941  0.00    0.0002355    0.0000175    0.0001633
c    -4.6974624    2.7094229   -0.6092141  0.00    0.0000796    0.0000219    0.0000502
h    -4.2141073    2.7840982   -1.6097251  0.00   -0.0000206   -0.0000053    0.0000901
h    -4.7330155    3.7240368   -0.1567401  0.00    0.0000054   -0.0001100   -0.0000448
h    -5.7368931    2.3440701   -0.7470277  0.00   -0.0000152   -0.0000008    0.0000079
n    -3.8464051    0.4400142   -0.4003082  0.00    0.0000788    0.0001251    0.0001787
h    -4.4125235    1.6420425    1.2650723  0.00    0.0000154   -0.0000104   -0.0000864
h    -3.2920786   -0.2294990    0.1860823  0.00   -0.0000478    0.0000861   -0.0000765
h    -4.8126147    0.0402825   -0.4608720  0.00   -0.0000282    0.0000188   -0.0000015
o    -1.7463356    2.9176466   -0.3815715  0.00   -0.0001136   -0.0001867    0.0003485
o    -1.9782463    2.1056967    1.8645646  0.00   -0.0000479    0.0001740   -0.0005125
h    -1.0447843    2.4958847    1.8845401  0.00   -0.0000631   -0.0000207   -0.0000059
    13
 Energy =       0.0523943443
c    -3.9019503    1.7464039    0.2788432  0.00    0.0000108    0.0000216    0.0000117
c    -2.5078338    2.2775474    0.5911497  0.00    0.0000014    0.0000063    0.0000008
c    -4.6951654    2.7069605   -0.6175483  0.00   -0.0000197    0.0000046   -0.0000004
h    -4.2097840    2.7728379   -1.6178113  0.00    0.0000123    0.0000029   -0.0000283
h    -4.7296251    3.7253530   -0.1732165  0.00   -0.0000038    0.0000261    0.0000081
h    -5.7349887    2.3424313   -0.7544620  0.00   -0.0000029   -0.0000009    0.0000017
n    -3.8481356    0.4376168   -0.3893098  0.00   -0.0000013   -0.0000203   -0.0000421
h    -4.4159190    1.6534637    1.2657209  0.00   -0.0000134   -0.0000014    0.0000265
h    -3.2965288   -0.2283496    0.2038512  0.00    0.0000192   -0.0000311    0.0000207
h    -4.8148716    0.0390769   -0.4491144  0.00   -0.0000048   -0.0000031    0.0000020
o    -1.7503615    2.9272914   -0.3794611  0.00   -0.0000003   -0.0000018   -0.0000016
o    -1.9752498    2.1003632    1.8625472  0.00    0.0000080   -0.0000010    0.0000011
h    -1.0419030    2.4909103    1.8823329  0.00   -0.0000056   -0.0000019   -0.0000003
    13
 Energy =       0.0523943405
c    -3.9019318    1.7463655    0.2788279  0.00    0.0000000    0.0000000    0.0000000
c    -2.5078022    2.2774811    0.5911147  0.00   -0.0000000   -0.0000000   -0.0000000
c    -4.6951518    2.7069511   -0.6174749  0.00   -0.0000000   -0.0000000   -0.0000000
h    -4.2097893    2.7728978   -1.6177109  0.00    0.0000000   -0.0000000   -0.0000000
h    -4.7296029    3.7252868   -0.1730756  0.00   -0.0000000    0.0000000    0.0000000
h    -5.7349734    2.3424321   -0.7544119  0.00   -0.0000000   -0.0000000    0.0000000
n    -3.8481738    0.4376395   -0.3893815  0.00    0.0000000   -0.0000000   -0.0000000
h    -4.4158622    1.6533854    1.2656918  0.00   -0.0000000    0.0000000    0.0000000
h    -3.2965591   -0.2283429    0.2037106  0.00    0.0000000   -0.0000000    0.0000000
h    -4.8149136    0.0391149   -0.4491815  0.00   -0.0000000    0.0000000   -0.0000000
o    -1.7501956    2.9269105   -0.3796008  0.00    0.0000000    0.0000000   -0.0000001
o    -1.9753674    2.1006460    1.8626221  0.00    0.0000000   -0.0000000    0.0000001
h    -1.0419937    2.4911391    1.8823915  0.00    0.0000000    0.0000000   -0.0000000
