    13
 Energy =       0.1083442002
c    -5.2542785    2.2234594    0.0148387  0.00    0.0201181    0.0028957    0.0013396
c    -3.9771989    1.4067796   -0.1085930  0.00   -0.0391195   -0.0194846   -0.0320337
h    -5.2725085    3.0297191   -0.7266308  0.00   -0.0016785   -0.0124103    0.0141933
h    -5.3386185    2.6908192    1.0027797  0.00   -0.0018955   -0.0066595   -0.0161838
h    -6.1390782    1.5986595   -0.1458980  0.00    0.0110083    0.0124616    0.0028647
c    -2.7345792    2.2915393    0.0876696  0.00    0.1231100    0.3409768   -0.1415102
n    -3.9469789    0.3083169    0.9034877  0.00    0.0346697   -0.0311371    0.0522072
h    -3.8962089    0.9564267   -1.1036297  0.00   -0.0029433   -0.0031314    0.0241080
h    -4.4202787    0.6395118    1.7517695  0.00    0.0009405   -0.0069930   -0.0395570
h    -4.5539987   -0.4431309    0.5622098  0.00    0.0172265    0.0309098    0.0115671
o    -2.5482593    3.3795690   -0.4326279  0.00   -0.0523373   -0.2569521    0.1341181
o    -1.8330895    1.6886995    0.9078747  0.00   -0.0722759   -0.0460281   -0.0119074
h    -1.0163297    1.5718596    0.3592369  0.00   -0.0368230   -0.0044478    0.0007942
    13
 Energy =       0.0809622072
c    -5.2519168    2.2465162   -0.0093698  0.00    0.0100183   -0.0005516    0.0009304
c    -3.9631485    1.4252156   -0.0778941  0.00   -0.0213768   -0.0076140   -0.0175174
h    -5.2666324    3.0036400   -0.8166279  0.00   -0.0008923   -0.0046682    0.0045572
h    -5.3310762    2.7829198    0.9554354  0.00   -0.0008681   -0.0018278   -0.0061642
h    -6.1365269    1.5971024   -0.1275226  0.00    0.0051517    0.0051655    0.0016586
c    -2.7223938    2.2761129    0.1822123  0.00    0.0658778    0.1732968   -0.0749461
n    -4.0082060    0.3054964    0.8924207  0.00    0.0261445   -0.0105796    0.0314703
h    -3.8329808    1.0118930   -1.0958514  0.00   -0.0009820   -0.0015790    0.0104247
h    -4.5219239    0.5996355    1.7459833  0.00   -0.0018773   -0.0038939   -0.0182552
h    -4.5754394   -0.4583272    0.4751957  0.00    0.0062060    0.0116417    0.0023298
o    -2.5352617    3.4425548   -0.3653263  0.00   -0.0273297   -0.1316612    0.0692384
o    -1.7657424    1.6963632    0.9756933  0.00   -0.0640200   -0.0164015    0.0208655
h    -1.0201568    1.4131064    0.3381388  0.00    0.0039481   -0.0113271   -0.0245919
    13
 Energy =       0.0833443822
c    -5.2467353    2.2690551    0.0165640  0.00    0.0100305   -0.0005541    0.0008200
c    -3.9641136    1.4394795   -0.0725346  0.00   -0.0211897   -0.0075802   -0.0172891
h    -5.2746871    3.0188076   -0.7974599  0.00   -0.0008605   -0.0045827    0.0044010
h    -5.3008218    2.8151529    0.9781634  0.00   -0.0008814   -0.0016631   -0.0058131
h    -6.1382685    1.6241550   -0.0754175  0.00    0.0048120    0.0049493    0.0016257
c    -2.7151487    2.2841081    0.1695817  0.00    0.0654982    0.1720571   -0.0750574
n    -4.0000216    0.3203189    0.8994536  0.00    0.0262058   -0.0103914    0.0313342
h    -3.8529069    1.0263450   -1.0931589  0.00   -0.0009455   -0.0016318    0.0101945
h    -4.5245580    0.6063475    1.7495266  0.00   -0.0019479   -0.0038056   -0.0180352
h    -4.5523971   -0.4530060    0.4792255  0.00    0.0060328    0.0113795    0.0022123
o    -2.5230588    3.4405956   -0.3976208  0.00   -0.0268352   -0.1308182    0.0687025
o    -1.7476433    1.6965163    0.9443736  0.00   -0.0812946   -0.0047073    0.0404080
h    -1.0910447    1.2543533    0.2717907  0.00    0.0213754   -0.0226512   -0.0435032
    13
 Energy =       0.0775352973
c    -5.2466074    2.2789647    0.0002620  0.00    0.0090624   -0.0010230    0.0007847
c    -3.9661362    1.4362358   -0.0456492  0.00   -0.0148409   -0.0051305   -0.0126712
h    -5.2109070    3.0722765   -0.7784310  0.00    0.0000242   -0.0009872    0.0005633
h    -5.3554677    2.7769386    0.9876973  0.00   -0.0005710   -0.0004184   -0.0012925
h    -6.1392769    1.6459384   -0.1858457  0.00   -0.0000668    0.0011345    0.0002446
c    -2.7128669    2.2675259    0.2076870  0.00    0.0458011    0.1210043   -0.0536134
n    -4.0413931    0.3217565    0.9263752  0.00    0.0351959    0.0012763    0.0210069
h    -3.8343282    1.0230334   -1.0669090  0.00   -0.0004778   -0.0011714    0.0069502
h    -4.6833111    0.5641136    1.7224113  0.00   -0.0105726    0.0010089   -0.0011884
h    -4.4766876   -0.5040906    0.4436281  0.00   -0.0022156   -0.0039131   -0.0075877
o    -2.5306384    3.4556162   -0.3577109  0.00   -0.0194762   -0.0918707    0.0486683
o    -1.7126867    1.6810387    0.9490600  0.00   -0.0608258   -0.0004038    0.0331094
h    -1.0210981    1.3228812    0.2699124  0.00    0.0189632   -0.0195059   -0.0349742
    13
 Energy =       0.0761340143
c    -5.2355407    2.2569784   -0.1053553  0.00    0.0050249   -0.0012201   -0.0011701
c    -3.9507229    1.4140676   -0.0274536  0.00   -0.0112346   -0.0025366   -0.0123206
h    -5.1613367    2.9963909   -0.9371841  0.00   -0.0003896    0.0013518   -0.0021922
h    -5.3964259    2.8236441    0.8417004  0.00   -0.0014465    0.0019557    0.0023872
h    -6.1173730    1.6090608   -0.2928139  0.00   -0.0002475    0.0009879   -0.0000368
c    -2.7084541    2.2561872    0.2438999  0.00    0.0439086    0.1144960   -0.0500431
n    -4.0833763    0.3574558    1.0034330  0.00    0.0408898   -0.0006170    0.0199448
h    -3.7607069    0.9363527   -1.0154378  0.00    0.0007443   -0.0024244    0.0025512
h    -4.6907387    0.6913283    1.7991621  0.00   -0.0141241    0.0028951    0.0053044
h    -4.5873232   -0.4620217    0.5724164  0.00   -0.0051546   -0.0089219   -0.0086996
o    -2.5288888    3.4502659   -0.3174449  0.00   -0.0183428   -0.0870484    0.0460968
o    -1.7083024    1.6750220    0.9903386  0.00   -0.0579545   -0.0002015    0.0316926
h    -1.0022159    1.3374971    0.3172267  0.00    0.0183265   -0.0187167   -0.0335146
    13
 Energy =       0.0704018203
c    -5.2340551    2.2317256   -0.1366555  0.00    0.0033070   -0.0014194   -0.0005929
c    -3.9464024    1.3945689   -0.0401592  0.00   -0.0077741   -0.0002848   -0.0079800
h    -5.1398122    2.9899056   -0.9487968  0.00   -0.0001346    0.0011508   -0.0018369
h    -5.4241654    2.7756882    0.8175788  0.00   -0.0009948    0.0015608    0.0021013
h    -6.1068077    1.5826166   -0.3636334  0.00   -0.0007343    0.0000843   -0.0001022
c    -2.7140533    2.2346476    0.2825520  0.00    0.0283347    0.0689222   -0.0330175
n    -4.1180981    0.3159107    0.9550511  0.00    0.0361769    0.0011870    0.0109773
h    -3.7278356    0.9395021   -1.0336664  0.00    0.0007433   -0.0016781    0.0009668
h    -4.6337457    0.6824431    1.8028891  0.00   -0.0135828    0.0066667    0.0102014
h    -4.7189956   -0.4437566    0.5305589  0.00   -0.0087082   -0.0131692   -0.0102708
o    -2.5477315    3.4769437   -0.2317064  0.00   -0.0111908   -0.0517253    0.0297959
o    -1.7103642    1.6657832    1.0405909  0.00   -0.0590096    0.0074928    0.0410781
h    -0.9093385    1.4962502    0.3978842  0.00    0.0335673   -0.0187879   -0.0413205
    13
 Energy =       0.0677382012
c    -5.2324206    2.2001352   -0.1791556  0.00    0.0032548   -0.0020546   -0.0003165
c    -3.9259057    1.3941086   -0.0623392  0.00   -0.0068332    0.0007286   -0.0064475
h    -5.1204808    3.0007870   -0.9486617  0.00    0.0005359    0.0019628   -0.0025980
h    -5.4821285    2.6912243    0.7922939  0.00   -0.0014155    0.0024430    0.0041333
h    -6.0766351    1.5387303   -0.4798343  0.00   -0.0027151   -0.0019216   -0.0007249
c    -2.7326996    2.2542971    0.3598154  0.00    0.0194842    0.0427532   -0.0224169
n    -4.1232261    0.2649542    0.8687899  0.00    0.0249074   -0.0016312    0.0094007
h    -3.6494464    0.9923608   -1.0672602  0.00    0.0013713   -0.0020663   -0.0020980
h    -4.5990333    0.6054622    1.7478418  0.00   -0.0100006    0.0060942    0.0085602
h    -4.7589588   -0.4477480    0.4186632  0.00   -0.0074427   -0.0109932   -0.0085477
o    -2.5885247    3.5419492   -0.0838048  0.00   -0.0056069   -0.0290049    0.0201937
o    -1.7422019    1.6981735    1.1495017  0.00   -0.0435461    0.0082712    0.0336200
h    -0.8997439    1.6077946    0.5566373  0.00    0.0280065   -0.0145811   -0.0327584
    13
 Energy =       0.0672195796
c    -5.2460021    2.1859368   -0.1529540  0.00    0.0035085   -0.0021896   -0.0002443
c    -3.9379639    1.3805965   -0.0453080  0.00   -0.0078737    0.0019660   -0.0074820
h    -5.1511339    2.9662582   -0.9459281  0.00    0.0006344    0.0022944   -0.0029710
h    -5.4719151    2.7031784    0.8111947  0.00   -0.0014568    0.0026183    0.0045794
h    -6.0981204    1.5178455   -0.4163504  0.00   -0.0031731   -0.0023018   -0.0008797
c    -2.7279074    2.2499867    0.3105584  0.00    0.0170185    0.0423327   -0.0229609
n    -4.1124869    0.2834326    0.9294263  0.00    0.0244023   -0.0024361    0.0103326
h    -3.6919808    0.9439921   -1.0445900  0.00    0.0014804   -0.0022666   -0.0030525
h    -4.5730481    0.6504819    1.8060343  0.00   -0.0099738    0.0060632    0.0090222
h    -4.7533737   -0.4464889    0.5146129  0.00   -0.0079696   -0.0115776   -0.0087727
o    -2.6348741    3.5498220   -0.1172041  0.00   -0.0061059   -0.0263855    0.0186177
o    -1.6780887    1.6939188    1.0251113  0.00   -0.0409896    0.0061740    0.0381281
h    -0.8545105    1.6632684    0.3978842  0.00    0.0304985   -0.0142915   -0.0343169
    13
 Energy =       0.0670266862
c    -5.2662939    2.1294760   -0.1544532  0.00    0.0026145   -0.0013095   -0.0001470
c    -3.9283917    1.3730548   -0.0401734  0.00   -0.0069798    0.0011699   -0.0072716
h    -5.2002171    2.9068302   -0.9532485  0.00    0.0005125    0.0024374   -0.0029188
h    -5.5098079    2.6465572    0.8050874  0.00   -0.0013721    0.0025436    0.0042062
h    -6.0945420    1.4292597   -0.4119012  0.00   -0.0034591   -0.0025478   -0.0009758
c    -2.7495339    2.2903435    0.3047041  0.00    0.0145860    0.0350645   -0.0202297
n    -4.0635464    0.2800625    0.9451555  0.00    0.0222938   -0.0028096    0.0099034
h    -3.6689394    0.9346975   -1.0348836  0.00    0.0013354   -0.0022143   -0.0027936
h    -4.5116710    0.6461858    1.8277009  0.00   -0.0090390    0.0053776    0.0083354
h    -4.7004253   -0.4628022    0.5493449  0.00   -0.0074686   -0.0107193   -0.0080535
o    -2.7390517    3.6124140   -0.0805148  0.00   -0.0058138   -0.0181905    0.0151013
o    -1.6544580    1.7690274    0.9790938  0.00   -0.0365676    0.0042738    0.0369772
h    -0.8445271    1.7871224    0.3365755  0.00    0.0293578   -0.0130760   -0.0321334
    13
 Energy =       0.0672974161
c    -5.2468185    2.1632097   -0.1756746  0.00    0.0018069   -0.0010990    0.0001458
c    -3.9301866    1.3730507   -0.0354746  0.00   -0.0063218    0.0011860   -0.0078083
h    -5.1456465    2.9410927   -0.9705442  0.00    0.0004769    0.0026946   -0.0031556
h    -5.4961827    2.6839373    0.7801157  0.00   -0.0013117    0.0023808    0.0039359
h    -6.0871463    1.4842235   -0.4507567  0.00   -0.0036060   -0.0025849   -0.0009815
c    -2.7338411    2.2555702    0.3407872  0.00    0.0122071    0.0267475   -0.0185521
n    -4.1147964    0.2800810    0.9419476  0.00    0.0209366   -0.0033468    0.0102237
h    -3.6605544    0.9320330   -1.0260140  0.00    0.0013190   -0.0019620   -0.0026920
h    -4.5675675    0.6536699    1.8184599  0.00   -0.0084837    0.0049350    0.0078870
h    -4.7635923   -0.4443942    0.5324290  0.00   -0.0073105   -0.0104158   -0.0075888
o    -2.7323801    3.6150267    0.0782383  0.00   -0.0064852   -0.0067941    0.0115337
o    -1.6251330    1.6739620    0.9463024  0.00   -0.0313642    0.0002941    0.0382163
h    -0.8275600    1.7307664    0.2926715  0.00    0.0281366   -0.0120355   -0.0311641
    13
 Energy =       0.0691205914
c    -5.2500984    2.1113902   -0.2208045  0.00    0.0008507   -0.0005596   -0.0002511
c    -3.9018704    1.3806787   -0.0420235  0.00   -0.0062614   -0.0012181   -0.0068650
h    -5.1546647    2.9058137   -0.9996854  0.00    0.0006241    0.0026941   -0.0031019
h    -5.5581138    2.6067836    0.7332100  0.00   -0.0019411    0.0032062    0.0051644
h    -6.0498467    1.3993772   -0.5367965  0.00   -0.0048642   -0.0037025   -0.0014295
c    -2.7658706    2.3133621    0.4089570  0.00    0.0124766    0.0187107   -0.0165604
n    -4.0778020    0.2592026    0.9038323  0.00    0.0187945   -0.0039388    0.0093981
h    -3.5696319    0.9728012   -1.0298180  0.00    0.0021439   -0.0028972   -0.0044321
h    -4.5438190    0.6056035    1.7846189  0.00   -0.0081043    0.0048155    0.0079069
h    -4.7117585   -0.4651395    0.4721504  0.00   -0.0070998   -0.0099942   -0.0071450
o    -2.8466455    3.6913260    0.2369914  0.00   -0.0044862    0.0036239    0.0100204
o    -1.6403565    1.7692903    1.0188097  0.00   -0.0290364   -0.0005235    0.0371851
h    -0.8609277    1.7917391    0.3430455  0.00    0.0269035   -0.0102164   -0.0298898
    13
 Energy =       0.0705936551
c    -5.2482249    2.0796572   -0.2506484  0.00    0.0004251   -0.0003705   -0.0003292
c    -3.8795889    1.3929006   -0.0477390  0.00   -0.0060619   -0.0021657   -0.0062076
h    -5.1595828    2.8897487   -1.0137957  0.00    0.0007127    0.0026297   -0.0029635
h    -5.5969266    2.5495004    0.7029241  0.00   -0.0022023    0.0034344    0.0055213
h    -6.0162498    1.3469782   -0.5981758  0.00   -0.0051926   -0.0041077   -0.0015733
c    -2.7943108    2.3574277    0.4636704  0.00    0.0123516    0.0146868   -0.0153707
n    -4.0455367    0.2445930    0.8667763  0.00    0.0166143   -0.0044192    0.0084786
h    -3.5031559    1.0192030   -1.0340615  0.00    0.0025724   -0.0032229   -0.0052066
h    -4.5191660    0.5639826    1.7535206  0.00   -0.0075762    0.0045701    0.0076925
h    -4.6684565   -0.4768373    0.4158319  0.00   -0.0066501   -0.0093046   -0.0065530
o    -2.9366443    3.7390584    0.3489772  0.00   -0.0033492    0.0078888    0.0089677
o    -1.6597601    1.8441020    1.0836907  0.00   -0.0295695   -0.0011519    0.0388292
h    -0.9038022    1.7919144    0.3815168  0.00    0.0279257   -0.0084673   -0.0312852
    13
 Energy =       0.0708874109
c    -5.2463219    2.0656081   -0.2636472  0.00    0.0003531   -0.0003265   -0.0003082
c    -3.8684926    1.4009478   -0.0504421  0.00   -0.0055627   -0.0021615   -0.0056411
h    -5.1620891    2.8859661   -1.0158755  0.00    0.0006991    0.0024547   -0.0027433
h    -5.6152495    2.5181158    0.6903656  0.00   -0.0021209    0.0032550    0.0052385
h    -5.9970400    1.3244566   -0.6294559  0.00   -0.0049044   -0.0039299   -0.0014930
c    -2.8107591    2.3785130    0.4923119  0.00    0.0114950    0.0129687   -0.0140194
n    -4.0274441    0.2372986    0.8448269  0.00    0.0148687   -0.0043170    0.0076393
h    -3.4713413    1.0483343   -1.0360937  0.00    0.0024975   -0.0030669   -0.0050268
h    -4.5019162    0.5402215    1.7363609  0.00   -0.0069199    0.0042024    0.0071253
h    -4.6459681   -0.4807457    0.3840842  0.00   -0.0060506   -0.0084546   -0.0059284
o    -2.9833608    3.7586784    0.4012753  0.00   -0.0028955    0.0080777    0.0080696
o    -1.6708558    1.8814031    1.1154373  0.00   -0.0279197   -0.0012435    0.0368245
h    -0.9305669    1.7834314    0.4033398  0.00    0.0264604   -0.0074588   -0.0297370
    13
 Energy =       0.0703397254
c    -5.2454527    2.0134277   -0.2931408  0.00    0.0009207   -0.0004847    0.0000800
c    -3.8301504    1.4365782   -0.0638550  0.00   -0.0035175   -0.0009787   -0.0047371
h    -5.1904075    2.8872743   -0.9874294  0.00    0.0014453    0.0037058   -0.0029978
h    -5.6861797    2.3757059    0.6715970  0.00   -0.0038678    0.0039216    0.0071415
h    -5.9255741    1.2455710   -0.7383767  0.00   -0.0053610   -0.0059004   -0.0020909
c    -2.8791929    2.4571701    0.5939419  0.00    0.0093278    0.0084146   -0.0081140
n    -3.9441494    0.2035446    0.7423518  0.00    0.0052744   -0.0101977    0.0021205
h    -3.3666702    1.1822012   -1.0536964  0.00    0.0043546   -0.0033941   -0.0073919
h    -4.4028573    0.4284277    1.6647308  0.00   -0.0052759    0.0033735    0.0078982
h    -4.5529879   -0.4945679    0.2467832  0.00   -0.0032023   -0.0044419   -0.0028711
o    -3.1421139    3.8255313    0.5343598  0.00   -0.0004925    0.0095236    0.0034916
o    -1.7245089    2.0275964    1.2408005  0.00   -0.0270426    0.0019037    0.0424664
h    -1.0411605    1.7537686    0.5144207  0.00    0.0274369   -0.0054454   -0.0349953
    13
 Energy =       0.0699512177
c    -5.2635313    2.0160163   -0.2534163  0.00   -0.0001088   -0.0006821   -0.0002833
c    -3.8440869    1.4350147   -0.0702737  0.00   -0.0020148   -0.0013831   -0.0036356
h    -5.2277526    2.8992480   -0.9356450  0.00    0.0009668    0.0028557   -0.0024163
h    -5.6796537    2.3608487    0.7260967  0.00   -0.0030080    0.0030394    0.0055504
h    -5.9523332    1.2565513   -0.6945180  0.00   -0.0038948   -0.0042685   -0.0015914
c    -2.8704399    2.4494550    0.5544863  0.00    0.0078458   -0.0039478   -0.0045046
n    -3.9335721    0.1998270    0.7323865  0.00    0.0046735   -0.0074148    0.0013628
h    -3.4135972    1.1857105   -1.0742180  0.00    0.0034522   -0.0024738   -0.0058429
h    -4.3587494    0.4190867    1.6708242  0.00   -0.0043180    0.0025866    0.0066606
h    -4.5599064   -0.4936449    0.2539331  0.00   -0.0025868   -0.0034708   -0.0023993
o    -3.0570330    3.8254410    0.3756067  0.00   -0.0022439    0.0191072    0.0009719
o    -1.7436701    2.0115394    1.2434279  0.00   -0.0196431    0.0011762    0.0336875
h    -1.0270798    1.7771354    0.5437971  0.00    0.0208798   -0.0051241   -0.0275597
    13
 Energy =       0.0686051038
c    -5.2992653    2.0067881   -0.1711870  0.00   -0.0023480   -0.0021368   -0.0020627
c    -3.8560090    1.4603056   -0.1003351  0.00    0.0020982    0.0043417   -0.0025268
h    -5.3292872    2.9431024   -0.7827048  0.00   -0.0004749    0.0045738   -0.0034474
h    -5.6812486    2.2520589    0.8499503  0.00   -0.0025561    0.0020340    0.0049593
h    -5.9768107    1.2636945   -0.6436847  0.00    0.0000015   -0.0006947   -0.0002223
c    -2.8857853    2.4657425    0.5186951  0.00   -0.0002025   -0.0078427    0.0018735
n    -3.8561396    0.1781469    0.6299710  0.00    0.0052950   -0.0083534   -0.0025091
h    -3.4786570    1.2881204   -1.1387172  0.00    0.0021207   -0.0006998   -0.0039675
h    -4.1999962    0.3293860    1.6156361  0.00   -0.0037714    0.0014249    0.0098090
h    -4.5100472   -0.4953538    0.1649486  0.00   -0.0005755   -0.0003956   -0.0011405
o    -3.0072945    3.8240444    0.2254047  0.00   -0.0024152    0.0099805   -0.0017902
o    -1.7969869    2.0384293    1.2703021  0.00    0.0018799   -0.0020060    0.0041155
h    -1.0538779    1.7877638    0.6342083  0.00    0.0009483   -0.0002259   -0.0030906
    13
 Energy =       0.0681234207
c    -5.3053317    1.9982372   -0.1604615  0.00   -0.0018624   -0.0016186   -0.0015414
c    -3.8543686    1.4729360   -0.1234735  0.00    0.0017579    0.0036392   -0.0022576
h    -5.3565874    2.9492989   -0.7454706  0.00   -0.0003596    0.0036771   -0.0027460
h    -5.6773272    2.2087841    0.8708257  0.00   -0.0020572    0.0015968    0.0039600
h    -5.9778510    1.2583535   -0.6449089  0.00   -0.0000102   -0.0005803   -0.0001894
c    -2.8943403    2.4825001    0.5035993  0.00   -0.0051813   -0.0057454   -0.0016622
n    -3.8235520    0.1748277    0.5759706  0.00    0.0038134   -0.0070587   -0.0018759
h    -3.4896896    1.3311601   -1.1702272  0.00    0.0017495   -0.0005356   -0.0031900
h    -4.1488174    0.2999436    1.5701785  0.00   -0.0028541    0.0010883    0.0075656
h    -4.4786424   -0.4964919    0.1098180  0.00   -0.0003932   -0.0003032   -0.0007880
o    -2.9633595    3.8268413    0.1340453  0.00   -0.0033624    0.0117056   -0.0036286
o    -1.8733010    2.0681772    1.3596304  0.00    0.0023597   -0.0035104    0.0126376
h    -1.0882374    1.7676611    0.7929614  0.00    0.0063999   -0.0023548   -0.0062840
    13
 Energy =       0.0673364135
c    -5.3327673    1.9789422   -0.0694370  0.00   -0.0044518   -0.0012470   -0.0025600
c    -3.8657599    1.4996704   -0.1637876  0.00    0.0035833    0.0041294   -0.0014213
h    -5.4513765    2.9641927   -0.5867175  0.00   -0.0011174    0.0048709   -0.0032631
h    -5.6419782    2.1075521    0.9973948  0.00   -0.0026316    0.0012653    0.0059773
h    -6.0140865    1.2505416   -0.5585391  0.00   -0.0001050   -0.0001247   -0.0003329
c    -2.8977783    2.5115185    0.4446321  0.00   -0.0056799   -0.0021371   -0.0027651
n    -3.7418714    0.1679899    0.4625732  0.00    0.0047589   -0.0093332   -0.0018289
h    -3.5726210    1.4256609   -1.2420592  0.00    0.0022985   -0.0000643   -0.0054523
h    -4.0005450    0.2308493    1.4825958  0.00   -0.0024525    0.0002618    0.0086579
h    -4.4088777   -0.5002270    0.0093032  0.00   -0.0002950   -0.0003065   -0.0004637
o    -2.9026840    3.8297041   -0.0089082  0.00   -0.0023209    0.0090195   -0.0037388
o    -1.9542392    2.1245585    1.3974920  0.00   -0.0002987   -0.0027531    0.0136917
h    -1.1468203    1.7512757    0.9079451  0.00    0.0087122   -0.0035809   -0.0065008
    13
 Energy =       0.0663865457
c    -5.3416914    1.9571801    0.0099156  0.00   -0.0029573   -0.0002321   -0.0016672
c    -3.8762539    1.5232496   -0.2018242  0.00    0.0024333    0.0018148    0.0001613
h    -5.5134781    2.9629216   -0.4435869  0.00   -0.0006882    0.0025992   -0.0017441
h    -5.5835314    2.0203757    1.0973200  0.00   -0.0014740    0.0005422    0.0036319
h    -6.0366771    1.2385962   -0.4743864  0.00   -0.0001963    0.0000713   -0.0002768
c    -2.8977533    2.5350570    0.3860958  0.00   -0.0066571   -0.0003908   -0.0059377
n    -3.6770551    0.1713022    0.3517386  0.00    0.0023867   -0.0054417   -0.0006895
h    -3.6551801    1.5049882   -1.2978936  0.00    0.0013343    0.0000917   -0.0035250
h    -3.8846152    0.1789310    1.3825974  0.00   -0.0009888    0.0000546    0.0040805
h    -4.3472478   -0.4968206   -0.0965890  0.00    0.0000092   -0.0002066    0.0000099
o    -2.8224643    3.8154924   -0.1583909  0.00   -0.0018291    0.0081260   -0.0046211
o    -2.0593154    2.1945705    1.4507927  0.00   -0.0028288   -0.0012887    0.0171910
h    -1.2361423    1.7363852    1.0666982  0.00    0.0114560   -0.0057399   -0.0066133
    13
 Energy =       0.0657310294
c    -5.3497679    1.9302250    0.1046098  0.00   -0.0044698   -0.0000792   -0.0019055
c    -3.8912288    1.5484399   -0.2311141  0.00    0.0028468    0.0038168    0.0000752
h    -5.5789891    2.9522699   -0.2848337  0.00   -0.0013233    0.0036141   -0.0019510
h    -5.5151624    1.9326679    1.2095093  0.00   -0.0014884    0.0002011    0.0051717
h    -6.0593318    1.2165308   -0.3658202  0.00   -0.0004678    0.0001658   -0.0003193
c    -2.9007411    2.5564160    0.3404439  0.00   -0.0023178   -0.0000572   -0.0028077
n    -3.6168255    0.1761649    0.2381429  0.00    0.0039244   -0.0073826   -0.0019877
h    -3.7472510    1.5915965   -1.3411445  0.00    0.0012936    0.0004809   -0.0052659
h    -3.7772196    0.1197500    1.2769861  0.00   -0.0009494   -0.0006009    0.0059357
h    -4.2854707   -0.4903814   -0.2150039  0.00    0.0000589   -0.0004341    0.0000508
o    -2.7838802    3.8124474   -0.2438667  0.00   -0.0009248    0.0034744   -0.0018850
o    -2.1215639    2.2503174    1.4533421  0.00   -0.0020200   -0.0002946    0.0083137
h    -1.3039735    1.7457846    1.1312365  0.00    0.0058377   -0.0029047   -0.0034252
    13
 Energy =       0.0652754233
c    -5.3407576    1.9114571    0.1512941  0.00   -0.0012488    0.0001252   -0.0005623
c    -3.8969345    1.5624289   -0.2543414  0.00    0.0008463    0.0006954    0.0006484
h    -5.5998037    2.9366910   -0.2006341  0.00   -0.0002937    0.0009394   -0.0006120
h    -5.4563437    1.8852370    1.2588128  0.00   -0.0004719    0.0000352    0.0015042
h    -6.0593249    1.1975253   -0.3047179  0.00   -0.0002204    0.0000426   -0.0001219
c    -2.8976822    2.5682388    0.3028389  0.00   -0.0040526   -0.0024941   -0.0049388
n    -3.5851339    0.1861059    0.1653075  0.00    0.0010864   -0.0019838   -0.0003968
h    -3.8017128    1.6354258   -1.3648508  0.00    0.0004266    0.0001224   -0.0015383
h    -3.7273388    0.0929896    1.2014487  0.00   -0.0003017    0.0000017    0.0014373
h    -4.2479290   -0.4795727   -0.2978716  0.00   -0.0000177   -0.0002593    0.0000285
o    -2.6969041    3.7782936   -0.3578884  0.00   -0.0005492    0.0076033   -0.0056143
o    -2.2172828    2.3186371    1.4954760  0.00   -0.0051832    0.0017256    0.0136128
h    -1.4042576    1.7487715    1.2776135  0.00    0.0099798   -0.0065537   -0.0034468
    13
 Energy =       0.0650346029
c    -5.3420300    1.8768860    0.2252347  0.00   -0.0027082   -0.0003079   -0.0006427
c    -3.9112836    1.5851627   -0.2697089  0.00    0.0014111    0.0032089   -0.0001214
h    -5.6472581    2.9092429   -0.0686329  0.00   -0.0010503    0.0024518   -0.0009158
h    -5.3981667    1.8009949    1.3365509  0.00   -0.0005377   -0.0002088    0.0030291
h    -6.0644638    1.1620284   -0.2229740  0.00   -0.0002482    0.0001087   -0.0000554
c    -2.9100804    2.5903994    0.2837049  0.00   -0.0001423   -0.0004056   -0.0007338
n    -3.5422860    0.1990910    0.0711765  0.00    0.0026953   -0.0045280   -0.0021841
h    -3.8750087    1.7107604   -1.3806906  0.00    0.0004379    0.0005924   -0.0031415
h    -3.6459245    0.0492681    1.1066727  0.00   -0.0003445   -0.0008646    0.0039625
h    -4.2011677   -0.4632899   -0.4023007  0.00    0.0000142   -0.0004182    0.0000165
o    -2.6918111    3.7867001   -0.3867520  0.00   -0.0002766    0.0011192   -0.0006567
o    -2.2523541    2.3588615    1.4857771  0.00   -0.0009285    0.0001788    0.0022322
h    -1.4495707    1.7761235    1.2944297  0.00    0.0016777   -0.0009266   -0.0007888
    13
 Energy =       0.0649494338
c    -5.3345473    1.8697533    0.2337179  0.00   -0.0000615    0.0000255   -0.0000368
c    -3.9113065    1.5881777   -0.2769505  0.00    0.0000129    0.0000398    0.0001034
h    -5.6465384    2.8999997   -0.0504210  0.00   -0.0000052    0.0000544   -0.0000544
h    -5.3765977    1.7894912    1.3426584  0.00   -0.0000345   -0.0000046    0.0000964
h    -6.0584826    1.1530981   -0.2091038  0.00   -0.0000198    0.0000001   -0.0000102
c    -2.9074447    2.5931455    0.2715266  0.00   -0.0010309   -0.0014634   -0.0007073
n    -3.5350430    0.2045328    0.0511291  0.00    0.0000844   -0.0001095   -0.0000081
h    -3.8885969    1.7189213   -1.3849758  0.00    0.0000411   -0.0000106   -0.0001062
h    -3.6374205    0.0448396    1.0828801  0.00   -0.0000347    0.0000373    0.0001035
h    -4.1902668   -0.4569902   -0.4285385  0.00   -0.0000225   -0.0000417   -0.0000078
o    -2.6365948    3.7568104   -0.4385469  0.00    0.0001078    0.0026404   -0.0021586
o    -2.3010316    2.3961496    1.5071534  0.00   -0.0017064    0.0008043    0.0033588
h    -1.5075347    1.7842999    1.3719583  0.00    0.0026692   -0.0019718   -0.0005727
    13
 Energy =       0.0649344399
c    -5.3346622    1.8543084    0.2584723  0.00   -0.0003273   -0.0000705   -0.0000422
c    -3.9169343    1.5967273   -0.2805720  0.00    0.0001546    0.0004473   -0.0000330
h    -5.6629963    2.8855420   -0.0037962  0.00   -0.0001412    0.0003265   -0.0000989
h    -5.3570098    1.7559866    1.3667871  0.00   -0.0000541   -0.0000404    0.0003552
h    -6.0580033    1.1365357   -0.1834877  0.00   -0.0000242    0.0000070    0.0000019
c    -2.9145866    2.6029122    0.2682814  0.00   -0.0000522   -0.0001453   -0.0000773
n    -3.5202600    0.2117507    0.0181239  0.00    0.0003423   -0.0005705   -0.0003184
h    -3.9141706    1.7462183   -1.3867552  0.00    0.0000433    0.0000901   -0.0003708
h    -3.6081914    0.0318411    1.0480872  0.00   -0.0000326   -0.0001367    0.0005089
h    -4.1735860   -0.4486841   -0.4656082  0.00   -0.0000011   -0.0000599    0.0000009
o    -2.6426530    3.7647165   -0.4410399  0.00   -0.0000006    0.0002690   -0.0002111
o    -2.3099270    2.4081811    1.5033294  0.00   -0.0001836    0.0000799    0.0003510
h    -1.5184250    1.7961933    1.3706653  0.00    0.0002768   -0.0001965   -0.0000663
    13
 Energy =       0.0649335597
c    -5.3340577    1.8534112    0.2593520  0.00   -0.0000006    0.0000001   -0.0000003
c    -3.9170845    1.5970363   -0.2809351  0.00    0.0000004    0.0000008    0.0000001
h    -5.6630227    2.8843284   -0.0019013  0.00   -0.0000000    0.0000006   -0.0000006
h    -5.3551775    1.7546420    1.3673230  0.00   -0.0000004    0.0000000    0.0000008
h    -6.0574203    1.1354596   -0.1822779  0.00   -0.0000001    0.0000000   -0.0000000
c    -2.9146337    2.6032695    0.2676247  0.00   -0.0000035   -0.0000074   -0.0000011
n    -3.5197193    0.2124335    0.0163811  0.00    0.0000006   -0.0000013    0.0000001
h    -3.9155442    1.7470648   -1.3867075  0.00    0.0000004   -0.0000002   -0.0000009
h    -3.6072375    0.0316095    1.0459052  0.00   -0.0000005    0.0000004    0.0000010
h    -4.1727922   -0.4478860   -0.4678256  0.00   -0.0000001   -0.0000002    0.0000000
o    -2.6392019    3.7626368   -0.4439722  0.00   -0.0000001    0.0000119   -0.0000087
o    -2.3130478    2.4109069    1.5043495  0.00   -0.0000065    0.0000024    0.0000127
h    -1.5224662    1.7973162    1.3751713  0.00    0.0000103   -0.0000071   -0.0000029
    13
 Energy =       0.0649335586
c    -5.3340232    1.8533931    0.2594491  0.00   -0.0000000    0.0000000   -0.0000000
c    -3.9170970    1.5970556   -0.2809773  0.00    0.0000000   -0.0000000    0.0000000
h    -5.6630311    2.8843109   -0.0017432  0.00   -0.0000000    0.0000000   -0.0000000
h    -5.3550356    1.7545949    1.3674191  0.00   -0.0000000    0.0000000    0.0000000
h    -6.0574147    1.1354400   -0.1821308  0.00   -0.0000000   -0.0000000   -0.0000000
c    -2.9146040    2.6032741    0.2675300  0.00   -0.0000000   -0.0000001   -0.0000000
n    -3.5196874    0.2124480    0.0162526  0.00    0.0000000   -0.0000000   -0.0000000
h    -3.9156615    1.7471238   -1.3867444  0.00    0.0000000   -0.0000000   -0.0000000
h    -3.6071742    0.0315578    1.0457666  0.00   -0.0000000   -0.0000000    0.0000000