    27
 Energy =       0.3308557860
c    -1.4235396    2.6054793   -0.0667700  0.00   -0.0463515    0.0382558    0.0025990
c    -1.3072796    1.2134697   -0.1072300  0.00   -0.0852514   -0.0326515    0.0018606
c    -0.0178900    0.6711998   -0.1697000  0.00   -0.0889168   -0.1877324   -0.0003071
c    -0.2940599    3.4190890   -0.0891300  0.00   -0.0233051    0.0690525    0.0028681
c     0.9872197    2.8590292   -0.1560400  0.00    0.0101258    0.0640570    0.0010755
c     1.1340797    1.4562096   -0.1970299  0.00    0.0528242    0.0514777    0.0023821
n     0.3879399   -0.6395298   -0.2140799  0.00    0.1442688    0.1087985   -0.0057896
c     2.2666594    0.5727398   -0.2659299  0.00    0.1558879   -0.0859055   -0.0021994
c     1.7555995   -0.7123598   -0.2706899  0.00   -0.0990046   -0.0965956    0.0028855
h    -0.2400399   -1.4313496   -0.2047299  0.00    0.0363888    0.0478988    0.0004934
c     3.7030089    1.0223397   -0.3320099  0.00   -0.0242825    0.0113444   -0.0322415
c     4.2197688    1.4064496   -1.7267995  0.00   -0.1226920    0.1145357   -0.0077368
h     4.3261788    0.2093419    0.0639454  0.00   -0.0087297    0.0137792   -0.0039757
h     3.8370289    1.8640295    0.3610799  0.00   -0.0038954   -0.0125333   -0.0051421
c     3.7734089    0.3331939   -2.7369592  0.00    0.0785332   -0.3739806   -0.0279305
n     5.7205784    1.5052196   -1.8052095  0.00    0.0885818    0.0125885   -0.0376704
h     3.7949889    2.3605393   -2.0604594  0.00   -0.0786289   -0.0759078   -0.1522410
h     5.9422883    2.4421693   -2.1574494  0.00   -0.0182409   -0.0294682    0.0190671
h     6.0817983    1.5118596   -0.8448278  0.00   -0.0272321    0.0021023   -0.0265449
h    -2.4108593    3.0588691   -0.0157800  0.00   -0.0008362    0.0002869    0.0001723
h    -2.1896094    0.5822398   -0.0890100  0.00   -0.0036503    0.0037818    0.0002852
h    -0.4052699    4.5000487   -0.0535400  0.00    0.0009197    0.0003043    0.0003867
h     1.8590495    3.5066790   -0.1715100  0.00   -0.0009396    0.0031668    0.0007088
h     2.2327294   -1.6813195   -0.3062999  0.00   -0.0424092   -0.0110171    0.0044927
o     4.1225288   -0.8355638   -2.7317292  0.00   -0.0800823    0.2864581   -0.0020540
o     2.9198892    0.8519998   -3.6604990  0.00    0.0279707    0.0610038    0.0576882
h     2.8430892    1.8133095   -3.4268690  0.00    0.1589474    0.0169000    0.2068678
    27
 Energy =       0.3086714644
c    -1.4401422    2.5850065   -0.1390742  0.00   -0.0408745    0.0338181    0.0023148
c    -1.3238111    1.1968178   -0.1688357  0.00   -0.0752939   -0.0289657    0.0016481
c    -0.0408189    0.6554798   -0.2321398  0.00   -0.0785096   -0.1640734   -0.0008176
c    -0.3123760    3.3958212   -0.1659725  0.00   -0.0206058    0.0609844    0.0025860
c     0.9642164    2.8352771   -0.2272560  0.00    0.0089512    0.0566041    0.0009979
c     1.1040623    1.4383764   -0.2621649  0.00    0.0462165    0.0457173    0.0021799
n     0.3588574   -0.6645863   -0.2264018  0.00    0.1275768    0.0944907   -0.0045192
c     2.2317260    0.5658900   -0.3064565  0.00    0.1358844   -0.0759698   -0.0020111
c     1.7339426   -0.7191305   -0.2923309  0.00   -0.0876809   -0.0839864    0.0020951
h    -0.2666676   -1.4633195   -0.1924529  0.00    0.0318925    0.0418605    0.0006439
c     3.6719698    1.0112210   -0.3027358  0.00   -0.0211287    0.0093841   -0.0271374
c     4.2470640    1.4302712   -1.6681074  0.00   -0.1100241    0.1021784   -0.0064248
h     4.2782508    0.1835259    0.0953288  0.00   -0.0077858    0.0118998   -0.0031473
h     3.7821104    1.8347169    0.4198207  0.00   -0.0031585   -0.0105161   -0.0038701
c     3.8605243    0.3833336   -2.7268520  0.00    0.0705480   -0.3299011   -0.0218805
n     5.7464269    1.5461043   -1.6668135  0.00    0.0811326    0.0112854   -0.0354943
h     3.8257793    2.3866346   -2.0054459  0.00   -0.0699410   -0.0672912   -0.1355885
h     5.9834853    2.4880701   -2.0035930  0.00   -0.0157345   -0.0256327    0.0168691
h     6.0618793    1.5482957   -0.6860746  0.00   -0.0231447    0.0019597   -0.0214705
h    -2.4271763    3.0389435   -0.0881686  0.00   -0.0007398    0.0002517    0.0001533
h    -2.2049023    0.5643320   -0.1358260  0.00   -0.0033047    0.0032564    0.0002733
h    -0.4226821    4.4770818   -0.1354896  0.00    0.0008112    0.0002817    0.0003448
h     1.8383800    3.4798166   -0.2408357  0.00   -0.0008225    0.0027965    0.0006143
h     2.2371461   -1.6770073   -0.2815850  0.00   -0.0368443   -0.0110030    0.0039806
o     4.2125067   -0.8053936   -2.7113084  0.00   -0.0708784    0.2528895   -0.0017026
o     3.0722177    0.9111060   -3.7097226  0.00    0.0269694    0.0284939    0.0330851
h     2.8473160    1.8386975   -3.3747620  0.00    0.1364892    0.0391872    0.1962780
    27
 Energy =       0.2997922188
c    -1.3965591    2.5639299   -0.0603347  0.00   -0.0390452    0.0324074    0.0022028
c    -1.2807137    1.1773305   -0.1036778  0.00   -0.0719713   -0.0278647    0.0015764
c     0.0003235    0.6366434   -0.1660870  0.00   -0.0750884   -0.1544947   -0.0005253
c    -0.2690871    3.3737838   -0.0802366  0.00   -0.0196954    0.0583334    0.0024517
c     1.0057542    2.8133792   -0.1468428  0.00    0.0085695    0.0541481    0.0009150
c     1.1429940    1.4187027   -0.1903147  0.00    0.0437909    0.0440101    0.0020417
n     0.3952818   -0.6869031   -0.2186081  0.00    0.1223790    0.0882816   -0.0046200
c     2.2678177    0.5503050   -0.2619240  0.00    0.1275961   -0.0718491   -0.0015017
c     1.7733609   -0.7345017   -0.2762260  0.00   -0.0841881   -0.0788503    0.0021685
h    -0.2306570   -1.4881750   -0.2131792  0.00    0.0301226    0.0394506    0.0005513
c     3.7087665    0.9959460   -0.3296195  0.00   -0.0214816    0.0086045   -0.0237882
c     4.1850106    1.4579379   -1.7224843  0.00   -0.1080957    0.0961082   -0.0081430
h     4.3456085    0.1560912   -0.0016175  0.00   -0.0054038    0.0093973   -0.0021886
h     3.8619795    1.7983843    0.4110740  0.00   -0.0031817   -0.0094761   -0.0023150
c     3.7758353    0.4077914   -2.7688662  0.00    0.0683479   -0.3153865   -0.0205699
n     5.6791060    1.6336684   -1.8048472  0.00    0.0824380    0.0080829   -0.0365203
h     3.6955502    2.4007557   -2.0123047  0.00   -0.0690556   -0.0619103   -0.1306438
h     5.8501180    2.5946500   -2.1385114  0.00   -0.0144682   -0.0209236    0.0144881
h     6.0597811    1.6286171   -0.8448278  0.00   -0.0204363    0.0015793   -0.0170135
h    -2.3835701    3.0178728   -0.0094861  0.00   -0.0007096    0.0002378    0.0001462
h    -2.1622248    0.5445236   -0.0887416  0.00   -0.0032800    0.0029872    0.0002588
h    -0.3788875    4.4549033   -0.0428534  0.00    0.0007736    0.0002944    0.0003287
h     1.8806287    3.4569118   -0.1605530  0.00   -0.0007893    0.0026753    0.0005773
h     2.2826404   -1.6897716   -0.3247350  0.00   -0.0345445   -0.0122338    0.0037404
o     4.1239983   -0.7891797   -2.7464813  0.00   -0.0678996    0.2416029   -0.0016589
o     2.9521694    0.9207006   -3.7316808  0.00    0.0249786    0.0272928    0.0305591
h     2.7342593    1.8510847   -3.4012895  0.00    0.1303380    0.0374954    0.1874820
    27
 Energy =       0.2607548818
c    -1.3307163    2.5445535    0.0074073  0.00   -0.0271315    0.0226788    0.0014801
c    -1.2175782    1.1671341   -0.0513989  0.00   -0.0503946   -0.0197307    0.0011361
c     0.0492915    0.6266959   -0.1115079  0.00   -0.0522505   -0.1060572    0.0011445
c    -0.2050925    3.3463198   -0.0022976  0.00   -0.0138672    0.0408268    0.0015642
c     1.0584433    2.7835407   -0.0716345  0.00    0.0060824    0.0380554    0.0004136
c     1.1786891    1.4017281   -0.1249393  0.00    0.0300190    0.0314953    0.0012206
n     0.4222735   -0.7123767   -0.2240610  0.00    0.0855043    0.0593651   -0.0048563
c     2.2892661    0.5572268   -0.2191322  0.00    0.0881167   -0.0492682   -0.0002376
c     1.8171260   -0.7248567   -0.2691088  0.00   -0.0600308   -0.0526716    0.0025658
h    -0.2037253   -1.5246829   -0.2494464  0.00    0.0207777    0.0270126   -0.0000781
c     3.7297925    0.9997688   -0.3465614  0.00   -0.0152959    0.0053408   -0.0150447
c     4.1157518    1.4724701   -1.7673476  0.00   -0.0791979    0.0674441   -0.0093303
h     4.3870824    0.1539464   -0.0628696  0.00   -0.0028690    0.0058476   -0.0012611
h     3.9225583    1.8033432    0.3884375  0.00   -0.0020921   -0.0063223   -0.0008564
c     3.6723953    0.4339555   -2.8020229  0.00    0.0503054   -0.2209269   -0.0133543
n     5.5919052    1.6988235   -1.9105424  0.00    0.0603212    0.0044864   -0.0301002
h     3.5702254    2.4016536   -2.0153120  0.00   -0.0541572   -0.0448211   -0.0976933
h     5.7245361    2.6739401   -2.2383728  0.00   -0.0103855   -0.0132445    0.0094547
h     6.0458258    1.6653165   -0.9756405  0.00   -0.0119848    0.0007256   -0.0072964
h    -2.3166230    3.0007637    0.0566514  0.00   -0.0005079    0.0001566    0.0001031
h    -2.0989991    0.5339831   -0.0576449  0.00   -0.0024566    0.0019215    0.0001439
h    -0.3107602    4.4276105    0.0425561  0.00    0.0005355    0.0002448    0.0002227
h     1.9385730    3.4197341   -0.0832353  0.00   -0.0005056    0.0018472    0.0003759
h     2.3714026   -1.6526309   -0.3834024  0.00   -0.0227362   -0.0112359    0.0023560
o     4.0301040   -0.8050867   -2.7673498  0.00   -0.0481473    0.1693949   -0.0007245
o     2.7934163    0.9117600   -3.7438143  0.00    0.0153654    0.0173616    0.0185486
h     2.5941210    1.8607482   -3.4526660  0.00    0.0969827    0.0300736    0.1401034
    27
 Energy =       0.2459483478
c    -1.3234541    2.5605567   -0.0227315  0.00   -0.0217707    0.0179479    0.0011931
c    -1.2191218    1.1880924   -0.1116734  0.00   -0.0400403   -0.0161941    0.0010678
c     0.0384427    0.6408624   -0.1605095  0.00   -0.0408491   -0.0827289    0.0022010
c    -0.1933907    3.3512825    0.0048424  0.00   -0.0106861    0.0327055    0.0011233
c     1.0624911    2.7803379   -0.0520356  0.00    0.0050402    0.0305848    0.0001559
c     1.1669393    1.4048276   -0.1317248  0.00    0.0240236    0.0253693    0.0008725
n     0.3933914   -0.7037028   -0.3273169  0.00    0.0659612    0.0456797   -0.0054000
c     2.2671425    0.5652866   -0.2181702  0.00    0.0703384   -0.0382840   -0.0002454
c     1.7979875   -0.7114773   -0.3094691  0.00   -0.0459115   -0.0411946    0.0030345
h    -0.2396406   -1.5141129   -0.4081995  0.00    0.0148878    0.0194707   -0.0006090
c     3.7144594    0.9968334   -0.3099012  0.00   -0.0119443    0.0044300   -0.0117170
c     4.1304364    1.4590922   -1.7272912  0.00   -0.0636754    0.0534643   -0.0081464
h     4.3590983    0.1455588   -0.0082022  0.00   -0.0020839    0.0044795   -0.0009059
h     3.8981144    1.8053051    0.4237785  0.00   -0.0017072   -0.0049835   -0.0005989
c     3.6891618    0.4345088   -2.7733252  0.00    0.0400462   -0.1748821   -0.0108455
n     5.6066262    1.6728011   -1.8372853  0.00    0.0481707    0.0032668   -0.0241713
h     3.5993614    2.3961252   -1.9854078  0.00   -0.0442809   -0.0362768   -0.0798239
h     5.7651261    2.6471634   -2.1631459  0.00   -0.0080760   -0.0100138    0.0073793
h     6.0508808    1.6223815   -0.8965381  0.00   -0.0093034    0.0005394   -0.0054824
h    -2.3067514    3.0232950    0.0169005  0.00   -0.0005157    0.0000791    0.0000851
h    -2.1043385    0.5607629   -0.1558229  0.00   -0.0025253    0.0009925    0.0000710
h    -0.2908217    4.4325259    0.0704045  0.00    0.0005135    0.0004698    0.0001816
h     1.9493917    3.4076473   -0.0332826  0.00    0.0000324    0.0018018    0.0002994
h     2.3700611   -1.6279184   -0.4301456  0.00   -0.0180245   -0.0091059    0.0019818
o     4.0430020   -0.8274147   -2.7317833  0.00   -0.0384266    0.1340845   -0.0003107
o     2.8055527    0.9034467   -3.7197591  0.00    0.0122007    0.0134834    0.0146090
h     2.5891367    1.8513149   -3.4374607  0.00    0.0786062    0.0248150    0.1140011
    27
 Energy =       0.2433935513
c    -1.3030984    2.5493343    0.0254177  0.00   -0.0213346    0.0172928    0.0011617
c    -1.1964847    1.1758289   -0.0369063  0.00   -0.0388490   -0.0160637    0.0009818
c     0.0609444    0.6314809   -0.0998764  0.00   -0.0391556   -0.0790018    0.0021056
c    -0.1750232    3.3435151    0.0155440  0.00   -0.0099889    0.0319209    0.0011003
c     1.0806720    2.7752098   -0.0568224  0.00    0.0051301    0.0298283    0.0001654
c     1.1867381    1.3992970   -0.1127794  0.00    0.0234365    0.0248426    0.0008658
n     0.4158047   -0.7193107   -0.2219126  0.00    0.0617200    0.0434470   -0.0050713
c     2.2870163    0.5638334   -0.2123491  0.00    0.0680866   -0.0366107   -0.0000820
c     1.8221376   -0.7161907   -0.2691780  0.00   -0.0425120   -0.0393493    0.0028351
h    -0.2160229   -1.5364970   -0.2494464  0.00    0.0129108    0.0169814   -0.0006164
c     3.7299981    1.0003120   -0.3497533  0.00   -0.0113035    0.0044316   -0.0108003
c     4.0978165    1.4688681   -1.7783819  0.00   -0.0621408    0.0515075   -0.0082898
h     4.3886028    0.1511027   -0.0713340  0.00   -0.0016891    0.0041250   -0.0007334
h     3.9332296    1.8081202    0.3800110  0.00   -0.0016230   -0.0047362   -0.0003579
c     3.6401027    0.4405312   -2.8132567  0.00    0.0386219   -0.1689245   -0.0106647
n     5.5676100    1.7032585   -1.9286317  0.00    0.0473868    0.0029913   -0.0241133
h     3.5450024    2.3986972   -2.0176831  0.00   -0.0431247   -0.0347737   -0.0772526
h     5.7032276    2.6824873   -2.2521406  0.00   -0.0077664   -0.0092451    0.0069208
h     6.0425761    1.6498374   -1.0024352  0.00   -0.0084983    0.0004336   -0.0044796
h    -2.2869175    3.0099384    0.0767371  0.00   -0.0006111    0.0000295    0.0000829
h    -2.0805769    0.5444464   -0.0448894  0.00   -0.0029732    0.0005119    0.0000582
h    -0.2741936    4.4257283    0.0623191  0.00    0.0005930    0.0006556    0.0001809
h     1.9662644    3.4052587   -0.0695302  0.00    0.0004511    0.0020583    0.0002757
h     2.3967820   -1.6297876   -0.3990232  0.00   -0.0173484   -0.0088308    0.0018804
o     3.9979394   -0.8231477   -2.7719890  0.00   -0.0370803    0.1294956   -0.0002996
o     2.7468114    0.9046165   -3.7536773  0.00    0.0117344    0.0127690    0.0139170
h     2.5423255    1.8586138   -3.4832885  0.00    0.0759278    0.0242140    0.1102292
    27
 Energy =       0.2354726132
c    -1.2695283    2.5488184    0.0789242  0.00   -0.0182938    0.0145006    0.0009734
c    -1.1645907    1.1765873    0.0411784  0.00   -0.0329767   -0.0139339    0.0006867
c     0.0876422    0.6311407   -0.0376804  0.00   -0.0327138   -0.0657784    0.0012781
c    -0.1422422    3.3403782    0.0319631  0.00   -0.0081393    0.0272296    0.0009767
c     1.1086959    2.7699100   -0.0575081  0.00    0.0046100    0.0254021    0.0002101
c     1.2091866    1.3964962   -0.0917936  0.00    0.0199550    0.0213074    0.0008044
n     0.4356658   -0.7280381   -0.1168941  0.00    0.0500267    0.0361128   -0.0034590
c     2.3032073    0.5658146   -0.2065774  0.00    0.0575592   -0.0305842    0.0001901
c     1.8437190   -0.7145866   -0.2312818  0.00   -0.0340271   -0.0326664    0.0018340
h    -0.1959574   -1.5495984   -0.0906933  0.00    0.0094305    0.0125035   -0.0003109
c     3.7424397    0.9998565   -0.3912485  0.00   -0.0092476    0.0037964   -0.0086100
c     4.0594679    1.4697693   -1.8318233  0.00   -0.0532601    0.0435055   -0.0077087
h     4.4107566    0.1495779   -0.1362773  0.00   -0.0011101    0.0033191   -0.0005155
h     3.9707700    1.8088880    0.3311237  0.00   -0.0012920   -0.0038364    0.0000120
c     3.5784814    0.4425270   -2.8556546  0.00    0.0326996   -0.1424860   -0.0092248
n     5.5195774    1.7223141   -2.0216136  0.00    0.0406471    0.0024629   -0.0215853
h     3.4876445    2.3944141   -2.0502304  0.00   -0.0374089   -0.0295441   -0.0662191
h     5.6386373    2.7069386   -2.3394878  0.00   -0.0065975   -0.0075197    0.0056868
h     6.0308633    1.6560150   -1.1140106  0.00   -0.0064220    0.0002356   -0.0025333
h    -2.2518512    3.0110354    0.1432556  0.00   -0.0006461   -0.0000203    0.0000711
h    -2.0483071    0.5446831    0.0690112  0.00   -0.0030324    0.0000092    0.0000546
h    -0.2392719    4.4234689    0.0615083  0.00    0.0005900    0.0007256    0.0001573
h     1.9951301    3.3978245   -0.1014458  0.00    0.0008017    0.0020307    0.0002081
h     2.4256158   -1.6217657   -0.3753170  0.00   -0.0144870   -0.0075013    0.0014664
o     3.9368077   -0.8335550   -2.8110236  0.00   -0.0313296    0.1092185   -0.0002422
o     2.6713394    0.8974749   -3.7903918  0.00    0.0097897    0.0102931    0.0114253
h     2.4753857    1.8589932   -3.5412675  0.00    0.0648745    0.0212180    0.0943737
    27
 Energy =       0.2172058522
c    -1.1819861    2.5960801    0.1709715  0.00   -0.0069711    0.0043451    0.0001458
c    -1.0994338    1.2308692    0.1501454  0.00   -0.0118572   -0.0051671   -0.0003846
c     0.1284427    0.6659937    0.0426542  0.00   -0.0106525   -0.0222903   -0.0010184
c    -0.0467812    3.3615622    0.0806833  0.00   -0.0029137    0.0097389    0.0004362
c     1.1818454    2.7680961   -0.0375024  0.00    0.0020765    0.0089963    0.0002799
c     1.2458767    1.4051135   -0.0561089  0.00    0.0068471    0.0075806    0.0006483
n     0.4361435   -0.7138575   -0.0157355  0.00    0.0154288    0.0120949    0.0009856
c     2.3095337    0.5776484   -0.1976690  0.00    0.0195902   -0.0101732    0.0012113
c     1.8522662   -0.6935797   -0.1965320  0.00   -0.0103636   -0.0107583   -0.0007558
h    -0.2069056   -1.5327919    0.0555058  0.00    0.0020347    0.0030603    0.0003765
c     3.7495890    0.9815381   -0.4438832  0.00   -0.0027088    0.0008621   -0.0024061
c     3.9987499    1.4361491   -1.9040140  0.00   -0.0218060    0.0162577   -0.0065259
h     4.4147904    0.1178713   -0.2159310  0.00    0.0000606    0.0008690   -0.0002002
h     4.0274561    1.7971639    0.2585037  0.00   -0.0000694   -0.0004666    0.0010211
c     3.4572883    0.4275425   -2.9135921  0.00    0.0137313   -0.0469237   -0.0049911
n     5.4411332    1.6911035   -2.1435199  0.00    0.0128060    0.0009067   -0.0125914
h     3.4211118    2.3681158   -2.0891421  0.00   -0.0209779   -0.0148876   -0.0349255
h     5.5681728    2.6841353   -2.4448144  0.00   -0.0024231   -0.0021760    0.0019533
h     6.0153642    1.5717060   -1.2727637  0.00    0.0014220   -0.0005627    0.0043217
h    -2.1541212    3.0762230    0.2577446  0.00   -0.0007488    0.0000340    0.0000373
h    -1.9898279    0.6121832    0.2152007  0.00   -0.0017274   -0.0005010    0.0000022
h    -0.1229934    4.4465642    0.0975377  0.00    0.0002204    0.0005836    0.0000740
h     2.0799745    3.3753734   -0.1176444  0.00    0.0011138    0.0011449    0.0000283
h     2.4536650   -1.5844016   -0.3710051  0.00   -0.0043300   -0.0027078    0.0000391
o     3.7905262   -0.8997975   -2.8476063  0.00   -0.0126864    0.0356151    0.0008351
o     2.5234965    0.8620806   -3.8440289  0.00    0.0029896    0.0006496    0.0028729
h     2.3259079    1.8366973   -3.6527099  0.00    0.0319150    0.0138754    0.0485303
    27
 Energy =       0.2167672749
c    -1.1375403    2.6928211    0.1888941  0.00   -0.0070218    0.0041854    0.0001979
c    -1.0830523    1.3259439    0.1986926  0.00   -0.0113352   -0.0053601   -0.0003153
c     0.1310386    0.7336440    0.0868260  0.00   -0.0099864   -0.0205104   -0.0009445
c     0.0118039    3.4326466    0.0642921  0.00   -0.0023965    0.0096633    0.0003847
c     1.2261715    2.8112372   -0.0584688  0.00    0.0023321    0.0088912    0.0002267
c     1.2615986    1.4470759   -0.0458379  0.00    0.0065978    0.0070821    0.0006070
n     0.4083114   -0.6543494    0.0598211  0.00    0.0138393    0.0105129    0.0009744
c     2.3054096    0.5948996   -0.1832534  0.00    0.0181217   -0.0089532    0.0015049
c     1.8224257   -0.6668823   -0.1434271  0.00   -0.0093489   -0.0105744   -0.0007591
h    -0.2506598   -1.4582934    0.1622122  0.00    0.0011296    0.0018964    0.0004669
c     3.7504459    0.9606708   -0.4636243  0.00   -0.0030978    0.0004424   -0.0018158
c     3.9899436    1.3605399   -1.9430258  0.00   -0.0214077    0.0159599   -0.0055191
h     4.3986459    0.0891768   -0.2157865  0.00    0.0001483    0.0003652   -0.0001430
h     4.0571609    1.7934514    0.2072885  0.00    0.0001288    0.0003970    0.0015323
c     3.3882351    0.3450278   -2.9141816  0.00    0.0118442   -0.0380081   -0.0058142
n     5.4374174    1.5527725   -2.2165978  0.00    0.0139384    0.0000185   -0.0124813
h     3.4478797    2.3112489   -2.1441197  0.00   -0.0195586   -0.0127550   -0.0319143
h     5.6004435    2.5356209   -2.5366838  0.00   -0.0017140   -0.0006565    0.0014489
h     6.0259892    1.4218879   -1.3571468  0.00    0.0020139   -0.0002944    0.0040458
h    -2.0985298    3.1948505    0.2787178  0.00   -0.0009952    0.0001577    0.0000627
h    -1.9848706    0.7268275    0.2916514  0.00   -0.0021130   -0.0008964    0.0000546
h    -0.0419193    4.5195633    0.0569542  0.00    0.0002672    0.0011212    0.0000563
h     2.1356104    3.3979146   -0.1664779  0.00    0.0015657    0.0015027   -0.0000359
h     2.4037016   -1.5736348   -0.3067272  0.00   -0.0037778   -0.0028699   -0.0000680
o     3.6317730   -1.0039546   -2.7857643  0.00   -0.0108813    0.0248625    0.0011560
o     2.4716768    0.7937222   -3.8563280  0.00    0.0028249   -0.0007576    0.0022790
h     2.3101742    1.7809536   -3.6931550  0.00    0.0288824    0.0145775    0.0448126
    27
 Energy =       0.2135154140
c    -1.1289174    2.6338318    0.2601879  0.00   -0.0050706    0.0039437    0.0001310
c    -1.0735791    1.2679530    0.2158496  0.00   -0.0079703   -0.0044355   -0.0001942
c     0.1380410    0.6806994    0.0725667  0.00   -0.0070342   -0.0133395   -0.0003435
c     0.0183824    3.3777678    0.1573499  0.00   -0.0018357    0.0074509    0.0001904
c     1.2304012    2.7615590    0.0047982  0.00    0.0017197    0.0071068    0.0000697
c     1.2648225    1.3989864   -0.0368355  0.00    0.0044932    0.0049604    0.0004088
n     0.4138507   -0.7077965   -0.0231321  0.00    0.0105760    0.0054023    0.0003101
c     2.3067754    0.5570835   -0.2140811  0.00    0.0130092   -0.0058173    0.0014374
c     1.8295414   -0.7062842   -0.2280869  0.00   -0.0068484   -0.0084182   -0.0004816
h    -0.2441779   -1.5178382    0.0414699  0.00    0.0001470    0.0003013    0.0003658
c     3.7491849    0.9388550   -0.4806538  0.00   -0.0043058   -0.0003358    0.0001918
c     3.9715547    1.4269018   -1.9370019  0.00   -0.0156776    0.0120034   -0.0045188
h     4.4032292    0.0553170   -0.2893925  0.00    0.0007448   -0.0012883    0.0003031
h     4.0573297    1.7345133    0.2353744  0.00    0.0003359    0.0015009    0.0022057
c     3.4060843    0.4405060   -2.9603091  0.00    0.0044526   -0.0146353   -0.0038765
n     5.4098964    1.6843427   -2.1987328  0.00    0.0114569   -0.0023809   -0.0104294
h     3.3963267    2.3704860   -2.0805575  0.00   -0.0152061   -0.0073619   -0.0230980
h     5.5414033    2.6896166   -2.4669132  0.00   -0.0006172    0.0028008    0.0000574
h     6.0050061    1.5233902   -1.3492537  0.00    0.0018315   -0.0003803    0.0036147
h    -2.0892472    3.1321773    0.3748837  0.00   -0.0008981    0.0004548    0.0000687
h    -1.9742121    0.6649771    0.2886093  0.00   -0.0015602   -0.0009092    0.0000460
h    -0.0355363    4.4646980    0.1922893  0.00    0.0001004    0.0017116    0.0000563
h     2.1388255    3.3522569   -0.0844307  0.00    0.0011752    0.0013107   -0.0000661
h     2.4176236   -1.6013969   -0.4313555  0.00   -0.0022432   -0.0028468   -0.0002761
o     3.7704437   -0.9014381   -2.9445174  0.00   -0.0026587    0.0012067    0.0006231
o     2.4486963    0.8840153   -3.8681868  0.00    0.0013229   -0.0002699    0.0008465
h     2.2475358    1.8602021   -3.6851943  0.00    0.0205606    0.0122646    0.0323578
    27
 Energy =       0.2117420317
c    -1.0641127    2.6554125    0.3762716  0.00   -0.0037595    0.0033954    0.0001356
c    -1.0400989    1.2913943    0.2910462  0.00   -0.0056183   -0.0028838   -0.0000511
c     0.1527102    0.6818354    0.0986822  0.00   -0.0041151   -0.0077483   -0.0000587
c     0.0962972    3.3754277    0.2653890  0.00   -0.0019623    0.0055285    0.0001885
c     1.2890377    2.7366948    0.0645197  0.00    0.0017119    0.0047201   -0.0000810
c     1.2904897    1.3768605   -0.0185728  0.00    0.0027558    0.0027803    0.0002778
n     0.3927271   -0.7105817   -0.0482589  0.00    0.0066196    0.0019102    0.0001044
c     2.3073151    0.5201967   -0.2473010  0.00    0.0085225   -0.0038709    0.0008709
c     1.8049390   -0.7311891   -0.2862606  0.00   -0.0035048   -0.0058798   -0.0003726
h    -0.2815914   -1.5082465    0.0067211  0.00   -0.0001387   -0.0001845    0.0002310
c     3.7518061    0.8765610   -0.5358882  0.00   -0.0030843   -0.0003073    0.0008308
c     3.9438131    1.4314263   -1.9728121  0.00   -0.0083979    0.0076178   -0.0026045
h     4.3885831   -0.0324924   -0.4066290  0.00    0.0018621   -0.0025942    0.0005948
h     4.1003149    1.6294639    0.2089628  0.00    0.0007256    0.0022023    0.0029004
c     3.3213707    0.5164571   -3.0327822  0.00    0.0027873   -0.0077633   -0.0029045
n     5.3791374    1.6658747   -2.2589814  0.00    0.0024962   -0.0059336   -0.0121090
h     3.3942272    2.3989433   -2.0441093  0.00   -0.0109158   -0.0025868   -0.0148348
h     5.5367036    2.6890281   -2.4451673  0.00   -0.0002674    0.0078642   -0.0012243
h     6.0009242    1.4071458   -1.4478572  0.00    0.0065263   -0.0025801    0.0095128
h    -2.0100662    3.1717734    0.5299254  0.00   -0.0014083    0.0009249    0.0001740
h    -1.9517416    0.7065866    0.3690498  0.00   -0.0011828   -0.0006772    0.0000455
h     0.0677430    4.4619906    0.3331585  0.00   -0.0002050    0.0019396    0.0000988
h     2.2082625    3.3089697   -0.0293050  0.00    0.0009386    0.0009577   -0.0000877
h     2.3731525   -1.6300116   -0.5286232  0.00   -0.0007961   -0.0025764   -0.0003936
o     3.6699109   -0.8312363   -3.1032705  0.00   -0.0002591   -0.0039340    0.0001736
o     2.3424715    1.0174246   -3.8936445  0.00   -0.0017069    0.0004440   -0.0020081
h     2.1549588    1.9896726   -3.6795191  0.00    0.0123764    0.0092353    0.0205909
    27
 Energy =       0.2106048692
c    -1.0243309    2.6765610    0.4580256  0.00   -0.0027388    0.0024897    0.0001127
c    -1.0176084    1.3148183    0.3516694  0.00   -0.0039943   -0.0018107    0.0000062
c     0.1629475    0.6953271    0.1248024  0.00   -0.0025253   -0.0049906   -0.0000197
c     0.1413156    3.3844249    0.3335056  0.00   -0.0016292    0.0039124    0.0001604
c     1.3213980    2.7356126    0.0984600  0.00    0.0014562    0.0030304   -0.0001107
c     1.3047546    1.3786455   -0.0048414  0.00    0.0018935    0.0016713    0.0001800
n     0.3835110   -0.6975625   -0.0479976  0.00    0.0042061    0.0009070    0.0000851
c     2.3065948    0.5164221   -0.2644971  0.00    0.0057995   -0.0027353    0.0005451
c     1.7919607   -0.7282681   -0.3111892  0.00   -0.0018823   -0.0039835   -0.0003101
h    -0.2982576   -1.4888877    0.0068104  0.00   -0.0001370   -0.0001884    0.0001500
c     3.7493436    0.8624432   -0.5713881  0.00   -0.0021540   -0.0003514    0.0006147
c     3.9236934    1.4203620   -2.0075415  0.00   -0.0052424    0.0052034   -0.0014235
h     4.3834291   -0.0492480   -0.4549978  0.00    0.0013039   -0.0017393    0.0003425
h     4.1124256    1.6098481    0.1704481  0.00    0.0005368    0.0015145    0.0019409
c     3.3048385    0.4915581   -3.0582616  0.00    0.0021808   -0.0048156   -0.0013081
n     5.3542451    1.6634566   -2.3023615  0.00   -0.0048622   -0.0126533   -0.0135736
h     3.3687070    2.3849686   -2.0704896  0.00   -0.0075057   -0.0016670   -0.0100044
h     5.4872604    2.6677544   -2.6039205  0.00    0.0009607    0.0160185   -0.0039330
h     5.9735381    1.5140492   -1.4575744  0.00    0.0100390   -0.0039044    0.0146334
h    -1.9607877    3.2010140    0.6393412  0.00   -0.0013117    0.0008538    0.0001759
h    -1.9338194    0.7392776    0.4401265  0.00   -0.0008922   -0.0004531    0.0000417
h     0.1267971    4.4697135    0.4181090  0.00   -0.0002440    0.0015038    0.0000872
h     2.2450508    3.2984053   -0.0057891  0.00    0.0007304    0.0006458   -0.0000634
h     2.3492875   -1.6280247   -0.5735324  0.00   -0.0003379   -0.0018742   -0.0003141
o     3.6911237   -0.8453884   -3.1324091  0.00    0.0001841   -0.0034186    0.0002372
o     2.2977030    0.9565163   -3.9076770  0.00   -0.0017833   -0.0001152   -0.0021764
h     2.0741636    1.9215832   -3.7020864  0.00    0.0079492    0.0069500    0.0139239
    27
 Energy =       0.2096206025
c    -0.9585909    2.7127528    0.5762287  0.00   -0.0021600    0.0020278    0.0001975
c    -0.9805678    1.3544150    0.4397334  0.00   -0.0029672   -0.0008816    0.0001376
c     0.1801739    0.7187647    0.1625151  0.00   -0.0011239   -0.0026653    0.0000131
c     0.2157138    3.4012074    0.4309183  0.00   -0.0016295    0.0029091    0.0002481
c     1.3752833    2.7361774    0.1455789  0.00    0.0015834    0.0015944   -0.0002039
c     1.3294245    1.3832806    0.0136429  0.00    0.0012395    0.0006610    0.0000824
n     0.3690728   -0.6742974   -0.0470295  0.00    0.0019688   -0.0002069    0.0000755
c     2.3069429    0.5103562   -0.2919890  0.00    0.0037269   -0.0019645    0.0001773
c     1.7701963   -0.7234194   -0.3494950  0.00   -0.0001228   -0.0025765   -0.0003759
h    -0.3253801   -1.4545220    0.0093154  0.00   -0.0002221   -0.0002957    0.0000875
c     3.7471605    0.8377453   -0.6286318  0.00   -0.0010066   -0.0004197    0.0002686
c     3.8947081    1.4029751   -2.0634195  0.00   -0.0024726    0.0026509   -0.0007712
h     4.3727377   -0.0815443   -0.5332727  0.00    0.0009555   -0.0010958    0.0001499
h     4.1364888    1.5742813    0.1097194  0.00    0.0004280    0.0010418    0.0013317
c     3.2628311    0.4697904   -3.1033123  0.00    0.0025856   -0.0025624    0.0006421