    13
 Energy =       0.1026336919
c    -3.7133889    1.6950595    0.3173519  0.00   -0.1149689    0.0587469    0.0007369
c    -2.4962693    2.6345192    0.2419999  0.00    0.3780429   -0.0530081    0.0886663
c    -4.9565486    2.3924193   -0.2155699  0.00    0.0428027    0.0440486    0.0061675
h    -5.8072983    1.7014095   -0.2223689  0.00    0.0081452    0.0129096   -0.0005429
h    -4.8071186    2.7393792   -1.2437896  0.00    0.0000744   -0.0007344    0.0177715
h    -5.2375685    3.2516891    0.4029209  0.00   -0.0017227   -0.0143347   -0.0109585
n    -3.4097890    0.4519539   -0.4549189  0.00    0.0787618   -0.0568279   -0.0085705
h    -3.8575589    1.4177196    1.3669296  0.00    0.0058746   -0.0112572   -0.0260071
h    -2.5963493    0.6418898   -1.0496997  0.00   -0.0237461    0.0153687    0.0412906
h    -3.0749291   -0.2623099    0.1989099  0.00   -0.0110223    0.0305960   -0.0236228
o    -1.4040496    2.4172293    0.7380088  0.00   -0.2644342    0.0549553   -0.1118856
o    -2.7835192    3.7545589   -0.4737969  0.00   -0.0702190   -0.0613197    0.0024224
h    -2.2118794    3.7013989   -1.2803496  0.00   -0.0275885   -0.0191429    0.0245323
    13
 Energy =       0.0677783165
c    -3.6616214    1.6957766    0.3069447  0.00   -0.0342741    0.0203857    0.0009524
c    -2.5128537    2.6908801    0.2263810  0.00    0.1218767   -0.0249198    0.0174511
c    -4.9674604    2.3414651   -0.1490215  0.00    0.0189029    0.0191305    0.0006350
h    -5.7873742    1.5968009   -0.1237503  0.00    0.0011798    0.0024739    0.0003174
h    -4.8712022    2.7231506   -1.1845078  0.00    0.0021232    0.0019010    0.0046829
h    -5.2415231    3.1884462    0.5095441  0.00   -0.0009146   -0.0040388   -0.0029936
n    -3.4056036    0.4967877   -0.5242042  0.00    0.0234355   -0.0124368   -0.0064446
h    -3.7463822    1.4020465    1.3762416  0.00    0.0021574   -0.0038097   -0.0058622
h    -2.5916471    0.6660939   -1.1520240  0.00   -0.0064523    0.0068206    0.0137590
h    -3.1240841   -0.3031485    0.0880234  0.00   -0.0015885    0.0012941   -0.0036496
o    -1.3310438    2.4439756    0.7912877  0.00   -0.0852673    0.0175422   -0.0337067
o    -2.7448385    3.8755088   -0.4404585  0.00   -0.0547323    0.0005545    0.0616261
h    -2.3706325    3.7191328   -1.3988287  0.00    0.0135536   -0.0248973   -0.0467673
    13
 Energy =       0.0663756240
c    -3.6456426    1.6763104    0.2882574  0.00   -0.0296567    0.0204601    0.0021194
c    -2.5171552    2.6970291    0.2383316  0.00    0.1068885   -0.0210373    0.0150595
c    -4.9781150    2.3263782   -0.0859127  0.00    0.0155991    0.0161496    0.0010315
h    -5.7834632    1.5645038   -0.0832340  0.00    0.0008217    0.0016207    0.0004995
h    -4.9216509    2.7762350   -1.1007385  0.00    0.0019430    0.0030803    0.0012029
h    -5.2459127    3.1265955    0.6361051  0.00   -0.0018144   -0.0013560   -0.0007887
n    -3.3979610    0.5345044   -0.6268071  0.00    0.0202646   -0.0122539   -0.0111914
h    -3.6923831    1.3139439    1.3428290  0.00    0.0016127   -0.0042943   -0.0020587
h    -2.5764501    0.7359417   -1.2380022  0.00   -0.0048328    0.0063706    0.0111321
h    -3.1372509   -0.3161118   -0.0707297  0.00   -0.0003027   -0.0030510   -0.0005369
o    -1.3296880    2.4577631    0.8106582  0.00   -0.0744711    0.0154027   -0.0294208
o    -2.7557077    3.8893799   -0.4151792  0.00   -0.0479651    0.0008337    0.0541942
h    -2.3748863    3.7544431   -1.3699503  0.00    0.0119131   -0.0219252   -0.0412426
    13
 Energy =       0.0628523181
c    -3.6638989    1.6903290    0.2942703  0.00   -0.0189604    0.0163983    0.0038367
c    -2.5476391    2.7262978    0.2538962  0.00    0.0736039   -0.0145457    0.0092961
c    -4.9917421    2.2921121   -0.1780385  0.00    0.0086852    0.0095541    0.0003215
h    -5.7853726    1.5171080   -0.1579800  0.00    0.0004612    0.0007368    0.0002085
h    -4.8950388    2.6718622   -1.2215585  0.00    0.0012541    0.0032917   -0.0025610
h    -5.2998393    3.1395489    0.4773520  0.00   -0.0024902    0.0021325    0.0017473
n    -3.3623078    0.5084624   -0.5526248  0.00    0.0133021   -0.0094932   -0.0125329
h    -3.7592017    1.3824553    1.3653180  0.00    0.0012114   -0.0032628    0.0013243
h    -2.5142661    0.6834934   -1.1397163  0.00   -0.0018557    0.0037731    0.0066982
h    -3.1165332   -0.3096375    0.0593168  0.00    0.0007834   -0.0050308    0.0015035
o    -1.3633852    2.5011478    0.8729324  0.00   -0.0507828    0.0107035   -0.0190464
o    -2.7656072    3.9154625   -0.4171676  0.00   -0.0365324    0.0025488    0.0467185
h    -2.2914348    3.8182746   -1.3303724  0.00    0.0113203   -0.0168064   -0.0375143
    13
 Energy =       0.0604691402
c    -3.6816746    1.6876797    0.2785675  0.00   -0.0121261    0.0115818    0.0062979
c    -2.6069936    2.7727465    0.3139255  0.00    0.0430222   -0.0083286    0.0017785
c    -5.0044295    2.2184966   -0.2932440  0.00    0.0023921    0.0044547   -0.0017630
h    -5.7673995    1.4108491   -0.3028935  0.00   -0.0010750   -0.0002603   -0.0003443
h    -4.8543678    2.5720950   -1.3400176  0.00    0.0006798    0.0021424   -0.0034622
h    -5.3859078    3.0715367    0.3185988  0.00   -0.0029353    0.0038574    0.0032405
n    -3.2772319    0.5123134   -0.5353559  0.00    0.0027183   -0.0095886   -0.0113006
h    -3.8418126    1.3886936    1.3456562  0.00    0.0003622   -0.0014584    0.0031418
h    -2.3723495    0.6956141   -1.0403604  0.00    0.0061835    0.0023140   -0.0002535
h    -3.0810811   -0.2995712    0.1027525  0.00    0.0010207   -0.0046803    0.0030418
o    -1.4482055    2.5885629    1.0245442  0.00   -0.0253998    0.0076250   -0.0071451
o    -2.8174333    3.9690855   -0.3511839  0.00   -0.0322086    0.0046283    0.0478854
h    -2.2173800    3.9488145   -1.1953619  0.00    0.0173659   -0.0122873   -0.0411171
    13
 Energy =       0.0606012166
c    -3.6950651    1.6891590    0.2648686  0.00   -0.0105037    0.0102829    0.0058413
c    -2.5964055    2.7489963    0.3418408  0.00    0.0372421   -0.0079670    0.0009091
c    -4.9980466    2.2623491   -0.3118856  0.00    0.0018729    0.0043338   -0.0018200
h    -5.7812841    1.4742622   -0.3424862  0.00   -0.0013844   -0.0006646   -0.0003386
h    -4.8273997    2.6279807   -1.3513868  0.00    0.0005512    0.0020890   -0.0034085
h    -5.3638787    3.1155368    0.3084427  0.00   -0.0026909    0.0036412    0.0029521
n    -3.3070437    0.5240900   -0.5708666  0.00   -0.0074866   -0.0020888   -0.0143942
h    -3.8753481    1.3703472    1.3232261  0.00    0.0003234   -0.0014389    0.0033208
h    -2.3466338    0.6645813   -0.9916121  0.00    0.0142203    0.0046110   -0.0038706
h    -3.2244313   -0.3330511    0.0438910  0.00    0.0015619   -0.0140950    0.0102252
o    -1.4781063    2.5400401    1.1153517  0.00   -0.0198575    0.0060057   -0.0040503
o    -2.7433815    3.9468651   -0.3402730  0.00   -0.0301090    0.0062332    0.0426666
h    -2.1192424    3.9057598   -1.1634832  0.00    0.0162603   -0.0109424   -0.0380327
    13
 Energy =       0.0608472705
c    -3.6925643    1.6899047    0.2635117  0.00   -0.0098437    0.0094930    0.0052484
c    -2.6139296    2.7687836    0.3550753  0.00    0.0309808   -0.0072902   -0.0010672
c    -5.0005608    2.2426701   -0.3203324  0.00    0.0016377    0.0039625   -0.0017089
h    -5.7723021    1.4434280   -0.3528048  0.00   -0.0013404   -0.0006802   -0.0003159
h    -4.8299980    2.6081438   -1.3595755  0.00    0.0004935    0.0018810   -0.0030710
h    -5.3808560    3.0920484    0.2958385  0.00   -0.0024560    0.0033739    0.0027128
n    -3.2793216    0.5352387   -0.5732090  0.00   -0.0068484   -0.0022629   -0.0131266
h    -3.8766361    1.3639133    1.3188765  0.00    0.0002442   -0.0012801    0.0030335
h    -2.3158284    0.6878700   -0.9804772  0.00    0.0130503    0.0041544   -0.0036210
h    -3.1973220   -0.3243728    0.0364481  0.00    0.0013993   -0.0126949    0.0092396
o    -1.5323889    2.6059266    1.1965864  0.00   -0.0140197    0.0045070   -0.0003954
o    -2.7477558    3.9437825   -0.3702787  0.00   -0.0282597    0.0066385    0.0377443
h    -2.1168032    3.8795795   -1.1840313  0.00    0.0149620   -0.0098021   -0.0346725
    13
 Energy =       0.0613455430
c    -3.6861153    1.6893527    0.2605179  0.00   -0.0095079    0.0088412    0.0048510
c    -2.6357252    2.7940482    0.3729070  0.00    0.0261167   -0.0063397   -0.0025598
c    -5.0014884    2.2150128   -0.3307051  0.00    0.0014302    0.0036790   -0.0016585
h    -5.7563994    1.3999348   -0.3686194  0.00   -0.0014066   -0.0007971   -0.0002987
h    -4.8318197    2.5846048   -1.3683288  0.00    0.0004579    0.0016979   -0.0027781
h    -5.4026942    3.0560142    0.2833634  0.00   -0.0023102    0.0032342    0.0025587
n    -3.2383639    0.5516950   -0.5809883  0.00   -0.0065856   -0.0027725   -0.0122064
h    -3.8730255    1.3507228    1.3113312  0.00    0.0001133   -0.0011615    0.0028227
h    -2.2662285    0.7183043   -0.9604425  0.00    0.0125093    0.0038290   -0.0036578
h    -3.1657268   -0.3154001    0.0177802  0.00    0.0012188   -0.0115425    0.0085322
o    -1.5893097    2.6757246    1.2696730  0.00   -0.0095954    0.0037631    0.0022013
o    -2.7643974    3.9519124   -0.3813717  0.00   -0.0263199    0.0062917    0.0337998
h    -2.1449728    3.8649901   -1.1994895  0.00    0.0138794   -0.0087228   -0.0316063
    13
 Energy =       0.0616838133
c    -3.6808504    1.6887695    0.2572905  0.00   -0.0089853    0.0081611    0.0044321
c    -2.6523153    2.8116431    0.3897293  0.00    0.0229039   -0.0055429   -0.0030078
c    -5.0010424    2.1959943   -0.3380582  0.00    0.0012955    0.0033676   -0.0015385
h    -5.7432034    1.3696001   -0.3823488  0.00   -0.0013815   -0.0008282   -0.0002728
h    -4.8319888    2.5715120   -1.3733715  0.00    0.0004323    0.0015347   -0.0025200
h    -5.4176639    3.0286498    0.2766498  0.00   -0.0021413    0.0030271    0.0023746
n    -3.2073482    0.5677371   -0.5914430  0.00   -0.0063237   -0.0028982   -0.0113467
h    -3.8697392    1.3368064    1.3032925  0.00    0.0000183   -0.0010652    0.0026346
h    -2.2271580    0.7434335   -0.9441043  0.00    0.0118878    0.0035757   -0.0035980
h    -3.1469145   -0.3084607   -0.0058683  0.00    0.0010552   -0.0106036    0.0079541
o    -1.6331699    2.7197167    1.3226017  0.00   -0.0073158    0.0033310    0.0031310
o    -2.7734567    3.9596497   -0.3810866  0.00   -0.0244273    0.0057830    0.0306928
h    -2.1714160    3.8518649   -1.2076555  0.00    0.0129817   -0.0078422   -0.0289352
    13
 Energy =       0.0618119589
c    -3.6792284    1.6880807    0.2542775  0.00   -0.0083082    0.0074698    0.0039806
c    -2.6631335    2.8196566    0.4058162  0.00    0.0204787   -0.0049427   -0.0029529
c    -5.0000625    2.1877566   -0.3447671  0.00    0.0011929    0.0030344   -0.0013924
h    -5.7354410    1.3558597   -0.3966932  0.00   -0.0012900   -0.0007904   -0.0002469
h    -4.8288601    2.5694495   -1.3772096  0.00    0.0004029    0.0013855   -0.0022918
h    -5.4259038    3.0139742    0.2717177  0.00   -0.0019492    0.0027717    0.0021723
n    -3.1899136    0.5802124   -0.6015925  0.00   -0.0058742   -0.0027667   -0.0104322
h    -3.8721123    1.3243014    1.2954007  0.00   -0.0000299   -0.0009713    0.0024552
h    -2.2051155    0.7617328   -0.9362911  0.00    0.0109720    0.0032902   -0.0033722
h    -3.1376651   -0.3032961   -0.0275133  0.00    0.0009308   -0.0096862    0.0073161
o    -1.6645814    2.7378749    1.3626398  0.00   -0.0060630    0.0029696    0.0032978
o    -2.7712419    3.9630024   -0.3740218  0.00   -0.0224588    0.0053294    0.0278080
h    -2.1830079    3.8383114   -1.2061358  0.00    0.0119961   -0.0070934   -0.0263417
    13
 Energy =       0.0618343304
c    -3.6802043    1.6872491    0.2514962  0.00   -0.0076018    0.0067899    0.0035515
c    -2.6704021    2.8216865    0.4212897  0.00    0.0184178   -0.0044672   -0.0027339
c    -4.9989688    2.1861682   -0.3516180  0.00    0.0010920    0.0027239   -0.0012525
h    -5.7314207    1.3523709   -0.4120089  0.00   -0.0011896   -0.0007398   -0.0002238
h    -4.8234398    2.5738807   -1.3808583  0.00    0.0003709    0.0012538   -0.0020930
h    -5.4303827    3.0074813    0.2669404  0.00   -0.0017610    0.0025157    0.0019747
n    -3.1810204    0.5896496   -0.6107398  0.00   -0.0053627   -0.0025602   -0.0095202
h    -3.8788870    1.3131708    1.2877576  0.00   -0.0000537   -0.0008876    0.0022864
h    -2.1940050    0.7755066   -0.9343408  0.00    0.0099808    0.0029912   -0.0030921
h    -3.1332097   -0.2992856   -0.0459081  0.00    0.0008307   -0.0087967    0.0066641
o    -1.6881450    2.7407998    1.3954805  0.00   -0.0051943    0.0026474    0.0032251
o    -2.7622732    3.9632124   -0.3634585  0.00   -0.0205075    0.0049519    0.0250854
h    -2.1839082    3.8250261   -1.1984046  0.00    0.0109786   -0.0064221   -0.0238718
    13
 Energy =       0.0617114854
c    -3.6933848    1.6823641    0.2371351  0.00   -0.0056398    0.0039555    0.0002869
c    -2.6999405    2.8153167    0.5033126  0.00    0.0080736   -0.0034925   -0.0014424
c    -4.9931605    2.1970894   -0.3888047  0.00    0.0007349    0.0010475   -0.0004795
h    -5.7208449    1.3634359   -0.4978342  0.00   -0.0013007   -0.0011466   -0.0002030
h    -4.7877452    2.6172564   -1.3993609  0.00    0.0003429    0.0008641   -0.0019480
h    -5.4444368    2.9961706    0.2420034  0.00   -0.0008184    0.0014458    0.0012508
n    -3.1576616    0.6317705   -0.6572477  0.00   -0.0033296   -0.0021577   -0.0068708
h    -3.9290081    1.2569870    1.2467241  0.00   -0.0006487   -0.0009862    0.0031262
h    -2.1658155    0.8379509   -0.9423996  0.00    0.0056981    0.0016532   -0.0021604
h    -3.1214210   -0.2805187   -0.1350091  0.00    0.0002589   -0.0053377    0.0042038
o    -1.7943842    2.7139582    1.5542337  0.00    0.0028472    0.0003325    0.0073855
o    -2.6930135    3.9534786   -0.2977565  0.00   -0.0143580    0.0079313    0.0104192
h    -2.1554502    3.7516569   -1.1393687  0.00    0.0081394   -0.0041092   -0.0135683
    13
 Energy =       0.0613940357
c    -3.7220060    1.6786333    0.2345733  0.00    0.0014958   -0.0017054   -0.0004408
c    -2.7185440    2.7833923    0.5577036  0.00   -0.0028323   -0.0030257    0.0035380
c    -4.9968708    2.2279849   -0.4082157  0.00   -0.0004604   -0.0000672    0.0002257
h    -5.7310689    1.4076566   -0.5564676  0.00   -0.0001688   -0.0003008    0.0000027
h    -4.7621935    2.6705264   -1.4006312  0.00   -0.0000957    0.0000156   -0.0002079
h    -5.4525606    3.0143858    0.2309422  0.00    0.0002861   -0.0003120   -0.0002724
n    -3.1840342    0.6453101   -0.6696097  0.00   -0.0118518    0.0069372   -0.0009200
h    -3.9932253    1.2297429    1.2216293  0.00   -0.0000113    0.0000895    0.0002771
h    -2.2398458    0.9180075   -1.0539589  0.00    0.0106188    0.0025029   -0.0036905
h    -3.0297055   -0.2459310   -0.1287496  0.00    0.0003583   -0.0085432    0.0049185
o    -1.8456360    2.6285069    1.6242679  0.00    0.0011580    0.0000021   -0.0004520
o    -2.6027849    3.9107824   -0.2508049  0.00    0.0028273    0.0032713   -0.0056538
h    -2.0777914    3.6679183   -1.0750512  0.00   -0.0013241    0.0011357    0.0026753
    13
 Energy =       0.0614013472
c    -3.7163645    1.6788756    0.2355229  0.00    0.0013812   -0.0015492   -0.0004024
c    -2.7156605    2.7891898    0.5479787  0.00   -0.0025436   -0.0027528    0.0031749
c    -5.0008935    2.2218147   -0.3934985  0.00   -0.0004957   -0.0000522    0.0002115
h    -5.7320384    1.3976557   -0.5353565  0.00   -0.0001824   -0.0002879    0.0000025
h    -4.7786248    2.6669046   -1.3877350  0.00   -0.0000723    0.0000468   -0.0002589
h    -5.4544819    3.0049454    0.2512517  0.00    0.0002358   -0.0002683   -0.0002336
n    -3.1823554    0.6488041   -0.6749993  0.00   -0.0106468    0.0062514   -0.0008757
h    -3.9744349    1.2283272    1.2254396  0.00   -0.0000366    0.0000495    0.0003310
h    -2.2375515    0.9197245   -1.0572580  0.00    0.0095611    0.0022601   -0.0033244
h    -3.0315285   -0.2457828   -0.1398164  0.00    0.0003374   -0.0077287    0.0044478
o    -1.8363789    2.6429578    1.6105698  0.00    0.0010955   -0.0000067   -0.0003434
o    -2.6098915    3.9134791   -0.2657089  0.00    0.0025567    0.0030157   -0.0051351
h    -2.0860626    3.6700208   -1.0907627  0.00   -0.0011902    0.0010220    0.0024059
    13
 Energy =       0.0614043568
c    -3.7118799    1.6791285    0.2362154  0.00    0.0012644   -0.0014067   -0.0003677
c    -2.7140156    2.7942622    0.5403772  0.00   -0.0022861   -0.0024963    0.0028508
c    -5.0039190    2.2164025   -0.3822641  0.00   -0.0004958   -0.0000399    0.0001963
h    -5.7322088    1.3889353   -0.5192995  0.00   -0.0001833   -0.0002709    0.0000027
h    -4.7913421    2.6635041   -1.3777769  0.00   -0.0000569    0.0000628   -0.0002764
h    -5.4563015    2.9968018    0.2667121  0.00    0.0001990   -0.0002340   -0.0002041
n    -3.1804059    0.6517242   -0.6790234  0.00   -0.0095727    0.0056326   -0.0008155
h    -3.9596091    1.2273314    1.2282494  0.00   -0.0000488    0.0000240    0.0003474
h    -2.2349615    0.9212458   -1.0590205  0.00    0.0086089    0.0020400   -0.0029953
h    -3.0326974   -0.2454597   -0.1483641  0.00    0.0003131   -0.0069815    0.0040179
o    -1.8305558    2.6557895    1.6005578  0.00    0.0010201   -0.0000113   -0.0002690
o    -2.6160396    3.9156696   -0.2777883  0.00    0.0023087    0.0027628   -0.0046525
h    -2.0923306    3.6715813   -1.1029475  0.00   -0.0010704    0.0009184    0.0021655
    13
 Energy =       0.0614047842
c    -3.7082831    1.6793620    0.2367256  0.00    0.0011513   -0.0012753   -0.0003353
c    -2.7130617    2.7985721    0.5343478  0.00   -0.0020561   -0.0022589    0.0025604
c    -5.0062517    2.2117942   -0.3734727  0.00   -0.0004777   -0.0000306    0.0001807
h    -5.7320091    1.3815375   -0.5068146  0.00   -0.0001773   -0.0002519    0.0000029
h    -4.8013719    2.6605391   -1.3698932  0.00   -0.0000461    0.0000699   -0.0002759
h    -5.4579134    2.9898987    0.2788176  0.00    0.0001706   -0.0002058   -0.0001800
n    -3.1785222    0.6541677   -0.6821624  0.00   -0.0086107    0.0050739   -0.0007508
h    -3.9477541    1.2265816    1.2303571  0.00   -0.0000538    0.0000080    0.0003439
h    -2.2325061    0.9225744   -1.0600111  0.00    0.0077512    0.0018403   -0.0026988
h    -3.0334953   -0.2450652   -0.1551860  0.00    0.0002879   -0.0063004    0.0036265
o    -1.8268407    2.6668713    1.5930875  0.00    0.0009409   -0.0000137   -0.0002155
o    -2.6212109    3.9173863   -0.2876414  0.00    0.0020822    0.0025199   -0.0042072
h    -2.0970467    3.6726968   -1.1125268  0.00   -0.0009624    0.0008248    0.0019492
    13
 Energy =       0.0613977059
c    -3.6849219    1.6810162    0.2397827  0.00    0.0007848   -0.0006795   -0.0002882
c    -2.7087210    2.8277352    0.4954946  0.00   -0.0003756   -0.0009686    0.0002288
c    -5.0209742    2.1805505   -0.3173139  0.00   -0.0014109    0.0002020    0.0002574
h    -5.7290434    1.3315123   -0.4276506  0.00   -0.0005426   -0.0004165    0.0000449
h    -4.8657913    2.6402824   -1.3189832  0.00    0.0001476    0.0005905   -0.0011900
h    -5.4691637    2.9430930    0.3563108  0.00   -0.0003273    0.0001543    0.0001225
n    -3.1647449    0.6706357   -0.7023147  0.00   -0.0015610    0.0012462   -0.0008605
h    -3.8708233    1.2218520    1.2432556  0.00   -0.0003557   -0.0006000    0.0013853
h    -2.2148603    0.9318737   -1.0645568  0.00    0.0017147    0.0005664   -0.0006939
h    -3.0379608   -0.2417261   -0.1997272  0.00    0.0003088   -0.0020159    0.0011839
o    -1.8079498    2.7430697    1.5477001  0.00    0.0012191   -0.0001066    0.0011258
o    -2.6558391    3.9280650   -0.3526767  0.00    0.0005161    0.0019798   -0.0017068
h    -2.1254731    3.6789569   -1.1736933  0.00   -0.0001180    0.0000479    0.0003907
    13
 Energy =       0.0613868845
c    -3.6858929    1.6806687    0.2391648  0.00    0.0000017   -0.0000017    0.0000028
c    -2.7095381    2.8255106    0.4964455  0.00   -0.0000198    0.0000054   -0.0000124
c    -5.0194734    2.1822952   -0.3170066  0.00    0.0000005    0.0000010   -0.0000002
h    -5.7279152    1.3346192   -0.4294494  0.00   -0.0000005   -0.0000031    0.0000009
h    -4.8635241    2.6428511   -1.3168178  0.00   -0.0000008   -0.0000006   -0.0000019
h    -5.4663665    2.9443200    0.3576406  0.00    0.0000001    0.0000009    0.0000004
n    -3.1673650    0.6704239   -0.7035825  0.00   -0.0000231    0.0000152   -0.0000115
h    -3.8724272    1.2212055    1.2408083  0.00    0.0000014    0.0000006    0.0000015
h    -2.2211680    0.9335243   -1.0707622  0.00    0.0000340    0.0000035   -0.0000023
h    -3.0357269   -0.2397671   -0.2011573  0.00   -0.0000100   -0.0000200    0.0000110
o    -1.8143785    2.7423548    1.5523268  0.00    0.0000228   -0.0000062    0.0000165
o    -2.6537352    3.9239240   -0.3518081  0.00   -0.0000202    0.0000098    0.0000143
h    -2.1187557    3.6749863   -1.1701747  0.00    0.0000140   -0.0000048   -0.0000190
    13
 Energy =       0.0613868798
c    -3.6857101    1.6808026    0.2389908  0.00   -0.0000023    0.0000029   -0.0000043
c    -2.7099622    2.8261770    0.4961496  0.00    0.0000257   -0.0000095    0.0000161
c    -5.0198586    2.1820171   -0.3161619  0.00   -0.0000008   -0.0000016    0.0000005
h    -5.7277964    1.3339976   -0.4291090  0.00    0.0000007    0.0000044   -0.0000012
h    -4.8645744    2.6435990   -1.3156149  0.00    0.0000014    0.0000013    0.0000022
h    -5.4669875    2.9431356    0.3593452  0.00   -0.0000006   -0.0000008   -0.0000002
n    -3.1671581    0.6713649   -0.7046141  0.00    0.0000313   -0.0000205    0.0000150
h    -3.8713626    1.2207296    1.2405208  0.00   -0.0000024   -0.0000011   -0.0000017
h    -2.2201095    0.9337278   -1.0699818  0.00   -0.0000479   -0.0000035    0.0000021
h    -3.0375203   -0.2398182   -0.2035354  0.00    0.0000155    0.0000252   -0.0000135
o    -1.8170880    2.7451614    1.5540887  0.00   -0.0000288    0.0000075   -0.0000179
o    -2.6526312    3.9230734   -0.3539467  0.00    0.0000252   -0.0000094   -0.0000191
h    -2.1155077    3.6729487   -1.1705039  0.00   -0.0000169    0.0000051    0.0000222
    13
 Energy =       0.0613868604
c    -3.6856110    1.6808744    0.2388965  0.00   -0.0000044    0.0000057   -0.0000083
c    -2.7101895    2.8265352    0.4959889  0.00    0.0000477   -0.0000185    0.0000298
c    -5.0200672    2.1818681   -0.3157018  0.00   -0.0000017   -0.0000031    0.0000010
h    -5.7277336    1.3336639   -0.4289211  0.00    0.0000012    0.0000083   -0.0000023
h    -4.8651444    2.6440058   -1.3149608  0.00    0.0000027    0.0000025    0.0000039
h    -5.4673211    2.9424961    0.3602722  0.00   -0.0000012   -0.0000013   -0.0000003
n    -3.1670490    0.6718738   -0.7051746  0.00    0.0000585   -0.0000382    0.0000278
h    -3.8707850    1.2204705    1.2403648  0.00   -0.0000045   -0.0000022   -0.0000030
h    -2.2195427    0.9338392   -1.0695674  0.00   -0.0000901   -0.0000062    0.0000036
h    -3.0384886   -0.2398450   -0.2048247  0.00    0.0000296    0.0000466   -0.0000249
o    -1.8185503    2.7466753    1.5550388  0.00   -0.0000532    0.0000138   -0.0000321
o    -2.6520323    3.9226123   -0.3551018  0.00    0.0000464   -0.0000163   -0.0000357
h    -2.1137521    3.6718468   -1.1706815  0.00   -0.0000310    0.0000091    0.0000403
    13
 Energy =       0.0613868524
c    -3.6861345    1.6804970    0.2393958  0.00    0.0000083   -0.0000053    0.0000112
c    -2.7089908    2.8246465    0.4968414  0.00   -0.0001039    0.0000165   -0.0000657
c    -5.0189614    2.1826530   -0.3181471  0.00    0.0000013    0.0000031   -0.0000002
h    -5.7280598    1.3354228   -0.4299281  0.00   -0.0000029   -0.0000148    0.0000039
h    -4.8621194    2.6418476   -1.3184346  0.00   -0.0000026   -0.0000006   -0.0000115
h    -5.4655622    2.9458791    0.3553502  0.00   -0.0000014    0.0000064    0.0000035
n    -3.1676135    0.6691823   -0.7022036  0.00   -0.0001148    0.0000760   -0.0000601
h    -3.8738447    1.2218469    1.2411926  0.00    0.0000048    0.0000017    0.0000092
h    -2.2225004    0.9332335   -1.0717062  0.00    0.0001603    0.0000229   -0.0000156
h    -3.0334027   -0.2397203   -0.1980016  0.00   -0.0000404   -0.0001077    0.0000606
o    -1.8107881    2.7386554    1.5500039  0.00    0.0001234   -0.0000355    0.0001039
o    -2.6552257    3.9250705   -0.3489850  0.00   -0.0001113    0.0000682    0.0000725
h    -2.1230635    3.6777020   -1.1697503  0.00    0.0000791   -0.0000309   -0.0001117
    13
 Energy =       0.0613867476
c    -3.6864129    1.6802876    0.2396605  0.00    0.0000163   -0.0000093    0.0000210
c    -2.7083348    2.8236174    0.4972935  0.00   -0.0002066    0.0000283   -0.0001308
c    -5.0183788    2.1830856   -0.3194114  0.00    0.0000022    0.0000055    0.0000001
h    -5.7282508    1.3363833   -0.4304240  0.00   -0.0000059   -0.0000288    0.0000077
h    -4.8605346    2.6407281   -1.3202415  0.00   -0.0000046   -0.0000001   -0.0000233
h    -5.4646078    2.9476868    0.3527910  0.00   -0.0000036    0.0000134    0.0000076
n    -3.1679462    0.6677505   -0.7006499  0.00   -0.0002265    0.0001498   -0.0001195
h    -3.8754579    1.2225556    1.2416272  0.00    0.0000086    0.0000028    0.0000188
h    -2.2241571    0.9329521   -1.0729658  0.00    0.0003122    0.0000476   -0.0000330
h    -3.0306350   -0.2396334   -0.1943945  0.00   -0.0000753   -0.0002156    0.0001220
o    -1.8066454    2.7343540    1.5473193  0.00    0.0002472   -0.0000720    0.0002129
o    -2.6568943    3.9263565   -0.3457225  0.00   -0.0002232    0.0001419    0.0001436
h    -2.1280113    3.6807922   -1.1692543  0.00    0.0001593   -0.0000634   -0.0002272
    13
 Energy =       0.0613859490
c    -3.6849467    1.6814159    0.2382896  0.00   -0.0000108    0.0000368   -0.0000404
c    -2.7117602    2.8290422    0.4949495  0.00    0.0000736   -0.0001253    0.0000439
c    -5.0213349    2.1808001   -0.3130602  0.00   -0.0000106   -0.0000189    0.0000090
h    -5.7271681    1.3313308   -0.4280405  0.00    0.0000002    0.0000248   -0.0000089
h    -4.8685715    2.6463799   -1.3111234  0.00    0.0000181    0.0000236   -0.0000057
h    -5.4695897    2.9383593    0.3657107  0.00   -0.0000187    0.0000125    0.0000096
n    -3.1660526    0.6751488   -0.7085674  0.00    0.0000916   -0.0000633    0.0000322
h    -3.8671585    1.2190174    1.2394117  0.00   -0.0000288   -0.0000155    0.0000061
h    -2.2149675    0.9340283   -1.0655640  0.00   -0.0002385    0.0000453   -0.0000422
h    -3.0456120   -0.2403232   -0.2130134  0.00    0.0001457    0.0000026    0.0000156
o    -1.8277453    2.7565164    1.5609839  0.00   -0.0000506   -0.0000004    0.0000918
o    -2.6485974    3.9199685   -0.3624887  0.00    0.0000211    0.0001129   -0.0000668
h    -2.1027624    3.6652320   -1.1718605  0.00    0.0000078   -0.0000353   -0.0000443
    13
 Energy =       0.0613857687
c    -3.6872148    1.6797745    0.2403466  0.00    0.0000515   -0.0000053    0.0000465
c    -2.7070959    2.8212850    0.4985465  0.00   -0.0005762    0.0000247   -0.0003729
c    -5.0171515    2.1839926   -0.3224254  0.00   -0.0000020    0.0000051    0.0000077
h    -5.7287193    1.3384363   -0.4317761  0.00   -0.0000176   -0.0000747    0.0000218
h    -4.8569035    2.6381187   -1.3244781  0.00   -0.0000060    0.0000144   -0.0000747
h    -5.4626893    2.9516970    0.3467805  0.00   -0.0000220    0.0000483    0.0000330
n    -3.1686966    0.6644069   -0.6968993  0.00   -0.0007222    0.0004717   -0.0003790
h    -3.8795019    1.2241418    1.2426796  0.00    0.0000117   -0.0000007    0.0000657
h    -2.2287266    0.9333277   -1.0771420  0.00    0.0008933    0.0002011   -0.0001518
h    -3.0224423   -0.2390255   -0.1853519  0.00   -0.0001440   -0.0007425    0.0004271
o    -1.7981897    2.7250277    1.5422047  0.00    0.0007098   -0.0002110    0.0006790
o    -2.6603120    3.9288899   -0.3386369  0.00   -0.0006646    0.0004812    0.0004042
h    -2.1386234    3.6868439   -1.1682207  0.00    0.0004883   -0.0002124   -0.0007066
    13
 Energy =       0.0613824609
c    -3.6938647    1.6798373    0.2406397  0.00    0.0001871    0.0000736    0.0001616
c    -2.7127721    2.8179527    0.5105523  0.00   -0.0010530    0.0000139   -0.0007154
c    -5.0122101    2.1863452   -0.3477104  0.00   -0.0002049   -0.0000418    0.0000095
h    -5.7259304    1.3431521   -0.4620392  0.00   -0.0000627   -0.0001456    0.0000450
h    -4.8338136    2.6320455   -1.3506606  0.00    0.0000098    0.0001007   -0.0003231
h    -5.4649859    2.9612272    0.3085577  0.00   -0.0001255    0.0001734    0.0001355
n    -3.1634065    0.6570873   -0.6819982  0.00   -0.0012973    0.0009181   -0.0009723
h    -3.9056958    1.2302356    1.2419878  0.00   -0.0000277   -0.0000438    0.0003306
h    -2.2243990    0.9301494   -1.0630511  0.00    0.0017133    0.0003989   -0.0002853
h    -3.0102889   -0.2385716   -0.1577309  0.00   -0.0002133   -0.0016131    0.0008973
o    -1.8057674    2.7112666    1.5555647  0.00    0.0013956   -0.0004170    0.0013405
o    -2.6617624    3.9320759   -0.3181533  0.00   -0.0012608    0.0009932    0.0007369
h    -2.1413700    3.6941133   -1.1503309  0.00    0.0009394   -0.0004103   -0.0013607
    13
 Energy =       0.0613810674
c    -3.6661936    1.6826738    0.2411043  0.00    0.0012340    0.0006405    0.0003017
c    -2.6961079    2.8420391    0.4591772  0.00    0.0016969   -0.0007593    0.0005199
c    -5.0331501    2.1689324   -0.2532700  0.00   -0.0027242   -0.0005095    0.0002650
h    -5.7331324    1.3115104   -0.3448673  0.00   -0.0004808   -0.0000297    0.0000632
h    -4.9260627    2.6432582   -1.2558165  0.00    0.0001944    0.0010653   -0.0022387
h    -5.4646298    2.9168871    0.4484871  0.00   -0.0009361    0.0007127    0.0007440
n    -3.1736375    0.6864165   -0.7323303  0.00    0.0016110    0.0004001   -0.0024575
h    -3.8002851    1.2145137    1.2499997  0.00   -0.0005965   -0.0007606    0.0027361
h    -2.2215081    0.9362919   -1.0914375  0.00   -0.0012191    0.0002686    0.0001578