    27
 Energy =       0.3331830126
c    -1.4235396    2.6054793   -0.0667700  0.00   -0.0462407    0.0383191    0.0027734
c    -1.3072796    1.2134697   -0.1072300  0.00   -0.0852092   -0.0325659    0.0020340
c    -0.0178900    0.6711998   -0.1697000  0.00   -0.0885398   -0.1879554   -0.0012066
c    -0.2940599    3.4190890   -0.0891300  0.00   -0.0230311    0.0691116    0.0029574
c     0.9872197    2.8590292   -0.1560400  0.00    0.0105596    0.0643160    0.0010602
c     1.1340797    1.4562096   -0.1970299  0.00    0.0533233    0.0515543    0.0020801
n     0.3879399   -0.6395298   -0.2140799  0.00    0.1434483    0.1091356   -0.0029723
c     2.2666594    0.5727398   -0.2659299  0.00    0.1401299   -0.0570055   -0.0204379
c     1.7555995   -0.7123598   -0.2706899  0.00   -0.0951342   -0.0974600    0.0040568
h    -0.2400399   -1.4313496   -0.2047299  0.00    0.0367230    0.0477412   -0.0006454
c     3.7030089    1.0223397   -0.3320099  0.00    0.0146683    0.0071902    0.0166491
c     4.7465686   -0.0024900    0.1378100  0.00   -0.0625520   -0.0019408    0.0073266
h     3.7978489    1.9290294    0.2803699  0.00    0.0013140   -0.0130090   -0.0112377
h     3.9233889    1.3348996   -1.3618196  0.00   -0.0042157   -0.0028597    0.0137955
c     6.0911583    0.7171698    0.3515799  0.00    0.1246050    0.2694999    0.1839744
n     4.9813086   -1.1161597   -0.8485798  0.00    0.1039574   -0.0285616   -0.0556914
h     4.4627987   -0.4486599    1.0982597  0.00    0.0052985   -0.0025089   -0.0200638
h     4.3153288   -0.9829797   -1.6165895  0.00    0.0160818    0.0148524    0.0338869
h     5.8957383   -0.9560407   -1.2856796  0.00    0.1839467    0.2216057    0.2054339
h    -2.4108593    3.0588691   -0.0157800  0.00   -0.0008363    0.0002484    0.0000205
h    -2.1896094    0.5822398   -0.0890100  0.00   -0.0036358    0.0037341    0.0000480
h    -0.4052699    4.5000487   -0.0535400  0.00    0.0008376    0.0001707    0.0002508
h     1.8590495    3.5066790   -0.1715100  0.00   -0.0008340    0.0026222    0.0006475
h     2.2327294   -1.6813195   -0.3062999  0.00   -0.0413534   -0.0103344    0.0018554
o     6.2733082    1.6803095    1.0775897  0.00   -0.0469458   -0.2236909   -0.1818591
o     7.0804880    0.1383800   -0.3810899  0.00   -0.2973394   -0.2419075   -0.1736058
h     7.7404778   -0.1816049    0.2872119  0.00   -0.0390259   -0.0003015   -0.0111307
    27
 Energy =       0.2608538387
c    -1.4058956    2.5028951   -0.0384234  0.00   -0.0238304    0.0205361    0.0014588
c    -1.2713396    1.1283063   -0.0786758  0.00   -0.0456538   -0.0171681    0.0010854
c     0.0011582    0.6072697   -0.1377232  0.00   -0.0477633   -0.1013828    0.0000889
c    -0.2943538    3.3210629   -0.0613711  0.00   -0.0121223    0.0367770    0.0016298
c     0.9748387    2.7778279   -0.1263810  0.00    0.0068507    0.0341856    0.0005585
c     1.1141467    1.4004998   -0.1625296  0.00    0.0265476    0.0295250    0.0012267
n     0.3982997   -0.7297616   -0.1973121  0.00    0.0729118    0.0577467   -0.0025900
c     2.2413039    0.5847622   -0.2287365  0.00    0.0766333   -0.0298262   -0.0107752
c     1.7982198   -0.7070067   -0.2427823  0.00   -0.0528312   -0.0478492    0.0029830
h    -0.2072238   -1.5600229   -0.2005239  0.00    0.0196251    0.0241349   -0.0006828
c     3.6655764    1.0866502   -0.3179875  0.00    0.0075343    0.0039493    0.0087811
c     4.7554922    0.0757067    0.0995638  0.00   -0.0334246   -0.0007147    0.0034564
h     3.7457672    1.9755019    0.3359742  0.00    0.0000189   -0.0061467   -0.0053490
h     3.8559776    1.4430388   -1.3478817  0.00   -0.0020493   -0.0007921    0.0062763
c     6.0849095    0.8018498    0.2965877  0.00    0.0692681    0.1399433    0.1038738
n     4.9575431   -1.0068677   -0.9090557  0.00    0.0595094   -0.0154239   -0.0277983
h     4.5059270   -0.3840206    1.0730244  0.00    0.0029591   -0.0016429   -0.0100705
h     4.2608720   -0.9012846   -1.6682729  0.00    0.0071748    0.0079527    0.0178475
h     5.8716720   -0.8295901   -1.3751778  0.00    0.1230477    0.1436639    0.1302576
h    -2.3985234    2.9444118    0.0105727  0.00   -0.0005093    0.0002147    0.0000177
h    -2.1420565    0.4811989   -0.0647062  0.00   -0.0021071    0.0019551    0.0000134
h    -0.4164582    4.4011104   -0.0289789  0.00    0.0004818    0.0001517    0.0001394
h     1.8446477    3.4278299   -0.1460816  0.00   -0.0001109    0.0009855    0.0003798
h     2.3809351   -1.6226270   -0.2904596  0.00   -0.0179703   -0.0092553    0.0005271
o     6.2196829    1.8390626    1.0638821  0.00   -0.0279267   -0.1191451   -0.0979816
o     7.1222150    0.2963903   -0.4528751  0.00   -0.2055748   -0.1290052   -0.1560647
h     7.6828174   -0.2395066    0.2259143  0.00   -0.0006885   -0.0233696    0.0307108
    27
 Energy =       0.2568735136
c    -1.4293994    2.4319756   -0.0545932  0.00   -0.0229074    0.0193032    0.0014048
c    -1.2767864    1.0609286   -0.1277874  0.00   -0.0432088   -0.0168356    0.0010806
c     0.0022386    0.5574249   -0.1690711  0.00   -0.0444257   -0.0934260    0.0006485
c    -0.3281057    3.2640367   -0.0317674  0.00   -0.0109010    0.0351855    0.0015310
c     0.9478216    2.7381818   -0.0783140  0.00    0.0069172    0.0326083    0.0004882
c     1.1034042    1.3650382   -0.1435749  0.00    0.0251877    0.0283721    0.0011388
n     0.4177862   -0.7742153   -0.2883880  0.00    0.0652073    0.0527661   -0.0031614
c     2.2422476    0.5708084   -0.1961746  0.00    0.0723915   -0.0281750   -0.0095969
c     1.8222170   -0.7264774   -0.2510481  0.00   -0.0463149   -0.0440381    0.0032354
h    -0.1748678   -1.6150162   -0.3592770  0.00    0.0161224    0.0194865   -0.0010158
c     3.6578706    1.1073489   -0.2342259  0.00    0.0066960    0.0027160    0.0083620
c     4.7781120    0.1032213    0.1216183  0.00   -0.0318454   -0.0008167    0.0038207
h     3.7079636    1.9520434    0.4843239  0.00   -0.0003021   -0.0030347   -0.0030014
h     3.8494583    1.5413314   -1.2378276  0.00   -0.0010111    0.0005206    0.0030594
c     6.0955615    0.8570239    0.3008097  0.00    0.0622493    0.1315167    0.0991133
n     4.9749614   -0.9439055   -0.9247504  0.00    0.0557004   -0.0162141   -0.0250727
h     4.5638540   -0.3907762    1.0884927  0.00    0.0024492   -0.0020714   -0.0084228
h     4.2528947   -0.8304403   -1.6606074  0.00    0.0059547    0.0076743    0.0159783
h     5.8685019   -0.7254024   -1.4180179  0.00    0.1176493    0.1353629    0.1210521
h    -2.4287429    2.8599603   -0.0201919  0.00   -0.0007557    0.0001770    0.0000216
h    -2.1397533    0.4025027   -0.1595371  0.00   -0.0028790    0.0010512   -0.0000234
h    -0.4642553    4.3418154    0.0235053  0.00    0.0005685    0.0005499    0.0001476
h     1.8104975    3.3990117   -0.0601324  0.00    0.0005493    0.0014623    0.0003686
h     2.4254215   -1.6292023   -0.2883853  0.00   -0.0166690   -0.0089733    0.0005304
o     6.2113570    1.9095179    1.0605692  0.00   -0.0255823   -0.1114181   -0.0920447
o     7.1271564    0.4085288   -0.4966904  0.00   -0.1915023   -0.1206384   -0.1498063
h     7.7287364   -0.1205769    0.1506265  0.00    0.0006620   -0.0231114    0.0301640
    27
 Energy =       0.2518000855
c    -1.4133986    2.4704377   -0.0310468  0.00   -0.0223160    0.0183674    0.0013598
c    -1.2719084    1.0975512   -0.0720933  0.00   -0.0414558   -0.0167077    0.0009958
c     0.0012521    0.5843166   -0.1296627  0.00   -0.0419462   -0.0875556    0.0004762
c    -0.3059778    3.2944983   -0.0526769  0.00   -0.0099598    0.0340767    0.0014900
c     0.9645090    2.7584849   -0.1167701  0.00    0.0069346    0.0315903    0.0005032
c     1.1080570    1.3836212   -0.1526054  0.00    0.0243073    0.0275299    0.0011042
n     0.4002086   -0.7574175   -0.1934906  0.00    0.0596928    0.0490525   -0.0027932
c     2.2382551    0.5804554   -0.2176491  0.00    0.0691878   -0.0270822   -0.0086423
c     1.8077094   -0.7148891   -0.2324566  0.00   -0.0415817   -0.0412947    0.0028664
h    -0.2028966   -1.5969475   -0.2005239  0.00    0.0133413    0.0158762   -0.0009259
c     3.6602202    1.0976277   -0.3135323  0.00    0.0063631    0.0017491    0.0082631
c     4.7620176    0.0913273    0.0952887  0.00   -0.0305591   -0.0007708    0.0042676
h     3.7348357    1.9889666    0.3485686  0.00   -0.0003014   -0.0004796   -0.0012816
h     3.8460335    1.4617136   -1.3481920  0.00   -0.0002861    0.0014267    0.0003542
c     6.0877488    0.8258098    0.2843981  0.00    0.0584449    0.1256999    0.0951886
n     4.9630113   -0.9870299   -0.9183384  0.00    0.0536445   -0.0163534   -0.0238822
h     4.5208593   -0.3719150    1.0722239  0.00    0.0020777   -0.0023186   -0.0073032
h     4.2461008   -0.9005844   -1.6637411  0.00    0.0053371    0.0072297    0.0145798
h     5.8650792   -0.7904349   -1.4074035  0.00    0.1127111    0.1292396    0.1151695
h    -2.4088860    2.9062793    0.0168695  0.00   -0.0009055    0.0001163    0.0000250
h    -2.1399373    0.4437325   -0.0605788  0.00   -0.0034968    0.0003272   -0.0000133
h    -0.4330884    4.3745784   -0.0202042  0.00    0.0006601    0.0008667    0.0001481
h     1.8321053    3.4136963   -0.1359263  0.00    0.0011132    0.0018881    0.0003427
h     2.4054260   -1.6209952   -0.2790101  0.00   -0.0158420   -0.0086323    0.0004958
o     6.2121659    1.8856523    1.0392809  0.00   -0.0242399   -0.1062191   -0.0877273
o     7.1308748    0.3419734   -0.4787743  0.00   -0.1826479   -0.1145774   -0.1453161
h     7.7357749   -0.1458214    0.1976303  0.00    0.0017228   -0.0230451    0.0302551
    27
 Energy =       0.2414994979
c    -1.4034009    2.4721334   -0.0064803  0.00   -0.0195301    0.0157584    0.0011830
c    -1.2636618    1.1007518   -0.0144313  0.00   -0.0357490   -0.0149587    0.0007374
c     0.0042538    0.5854473   -0.0840328  0.00   -0.0357449   -0.0739228   -0.0002086
c    -0.2965532    3.2925666   -0.0700643  0.00   -0.0081247    0.0296956    0.0013452
c     0.9694179    2.7533714   -0.1475838  0.00    0.0061924    0.0276269    0.0005376
c     1.1077023    1.3805622   -0.1521852  0.00    0.0211425    0.0240269    0.0010194
n     0.3956813   -0.7633054   -0.0936251  0.00    0.0497134    0.0409715   -0.0016308
c     2.2318621    0.5796412   -0.2239517  0.00    0.0595456   -0.0231123   -0.0071384
c     1.8044888   -0.7150530   -0.1963629  0.00   -0.0341596   -0.0350648    0.0019036
h    -0.2092779   -1.6040689   -0.0417708  0.00    0.0098083    0.0113843   -0.0005135
c     3.6535579    1.0900803   -0.3738043  0.00    0.0058276    0.0011503    0.0073534
c     4.7559416    0.0953191    0.0645408  0.00   -0.0260837   -0.0004630    0.0039658
h     3.7445408    2.0125434    0.2446243  0.00   -0.0000404    0.0008598   -0.0002864
h     3.8221826    1.4033521   -1.4291956  0.00    0.0000273    0.0017118   -0.0011665
c     6.0809255    0.8284873    0.2511416  0.00    0.0502883    0.1070793    0.0819786
n     4.9584698   -1.0025975   -0.9250917  0.00    0.0473087   -0.0147982   -0.0188263
h     4.5081910   -0.3458401    1.0511783  0.00    0.0017165   -0.0021063   -0.0060161
h     4.2197800   -0.9656860   -1.6565304  0.00    0.0028563    0.0060430    0.0107380
h     5.8484078   -0.7974787   -1.4377689  0.00    0.0988462    0.1128289    0.0997892
h    -2.3972824    2.9103092    0.0516066  0.00   -0.0008792    0.0000423    0.0000229
h    -2.1311261    0.4473787    0.0372036  0.00   -0.0036162   -0.0003062    0.0000168
h    -0.4213469    4.3735681   -0.0616245  0.00    0.0006794    0.0010709    0.0001300
h     1.8374944    3.4064502   -0.2019310  0.00    0.0014489    0.0020578    0.0002785
h     2.4082104   -1.6170685   -0.2441463  0.00   -0.0136299   -0.0074742    0.0003445
o     6.1973623    1.9156444    0.9891231  0.00   -0.0209704   -0.0904756   -0.0753055
o     7.1349278    0.3394981   -0.4959771  0.00   -0.1629803   -0.0963657   -0.1316456
h     7.7854025   -0.0613192    0.1967230  0.00    0.0061071   -0.0232599    0.0313941
    27
 Energy =       0.2315608233
c    -1.3980851    2.4485318    0.0226437  0.00   -0.0162122    0.0127415    0.0009825
c    -1.2538545    1.0804966    0.0498946  0.00   -0.0290801   -0.0127444    0.0004567
c     0.0101826    0.5677333   -0.0297627  0.00   -0.0290104   -0.0593435   -0.0008068
c    -0.2961867    3.2681723   -0.0846474  0.00   -0.0060621    0.0245160    0.0011566
c     0.9665505    2.7302069   -0.1739874  0.00    0.0052569    0.0229620    0.0005495
c     1.1053387    1.3612817   -0.1435961  0.00    0.0173960    0.0197640    0.0009113
n     0.4009047   -0.7843111    0.0067754  0.00    0.0394679    0.0323867   -0.0006049
c     2.2262228    0.5679863   -0.2192107  0.00    0.0480546   -0.0185898   -0.0055113
c     1.8094984   -0.7263912   -0.1450009  0.00   -0.0271397   -0.0285219    0.0010340
h    -0.2006803   -1.6264883    0.1090875  0.00    0.0067528    0.0075391   -0.0001029
c     3.6424740    1.0785904   -0.4297586  0.00    0.0050147    0.0007933    0.0062413
c     4.7602496    0.1123663    0.0376872  0.00   -0.0207484   -0.0000429    0.0031848
h     3.7424938    2.0341380    0.1375329  0.00    0.0003827    0.0022600    0.0007063
h     3.7862707    1.3363249   -1.5051668  0.00    0.0001859    0.0019708   -0.0028242
c     6.0746067    0.8660139    0.2086779  0.00    0.0403545    0.0841506    0.0665020
n     4.9766360   -1.0027651   -0.9259736  0.00    0.0410166   -0.0153988   -0.0043903
h     4.5173426   -0.3064224    1.0364611  0.00    0.0014026   -0.0018620   -0.0045680
h     4.1833051   -1.0611931   -1.6078964  0.00   -0.0070145    0.0039717    0.0016101
h     5.8197179   -0.7429836   -1.5038188  0.00    0.0885260    0.0967527    0.0788765
h    -2.3918586    2.8855635    0.0892006  0.00   -0.0007898   -0.0000171    0.0000203
h    -2.1171913    0.4255020    0.1400135  0.00   -0.0034856   -0.0008078    0.0000571
h    -0.4233782    4.3489714   -0.1029112  0.00    0.0006753    0.0012654    0.0000982
h     1.8314860    3.3836774   -0.2648927  0.00    0.0017130    0.0021407    0.0001885
h     2.4238624   -1.6214255   -0.1858182  0.00   -0.0109580   -0.0061902    0.0000962
o     6.1664569    1.9945657    0.9138764  0.00   -0.0168544   -0.0708765   -0.0607168
o     7.1373146    0.3991113   -0.5434806  0.00   -0.1407771   -0.0761860   -0.1155295
h     7.8464723    0.0974339    0.1436545  0.00    0.0119327   -0.0226334    0.0323826
    27
 Energy =       0.2242902706
c    -1.3858367    2.4902742   -0.0122887  0.00   -0.0143029    0.0111625    0.0008743
c    -1.2528313    1.1226894    0.0114114  0.00   -0.0255652   -0.0112399    0.0004259
c     0.0051466    0.6000774   -0.0623991  0.00   -0.0254044   -0.0519923   -0.0006376
c    -0.2771065    3.2998122   -0.1106872  0.00   -0.0053437    0.0215738    0.0010096
c     0.9803155    2.7513467   -0.1925245  0.00    0.0046550    0.0202001    0.0004620
c     1.1055375    1.3832296   -0.1650241  0.00    0.0152597    0.0173651    0.0007815
n     0.3799321   -0.7577498   -0.0341311  0.00    0.0344569    0.0283421   -0.0006057
c     2.2181045    0.5837571   -0.2315281  0.00    0.0420439   -0.0163975   -0.0048846
c     1.7927461   -0.7069959   -0.1659789  0.00   -0.0235602   -0.0250556    0.0009456
h    -0.2310720   -1.5958031    0.0537271  0.00    0.0057605    0.0064196   -0.0000832
c     3.6433717    1.0806133   -0.4174119  0.00    0.0044273    0.0010312    0.0055117
c     4.7387951    0.0896264    0.0529491  0.00   -0.0198183    0.0017092    0.0027484
h     3.7507089    2.0264198    0.1642394  0.00    0.0004432    0.0021199    0.0006998
h     3.8051549    1.3484810   -1.4875317  0.00    0.0001814    0.0017890   -0.0027098
c     6.0752058    0.8040677    0.2331253  0.00    0.0311280    0.0755399    0.0623301
n     4.9142857   -1.0472952   -0.8954626  0.00    0.0291294   -0.0201188    0.0121934
h     4.4805566   -0.3117930    1.0556842  0.00    0.0010554   -0.0018280   -0.0038389
h     4.1751804   -1.0209566   -1.6479374  0.00   -0.0158864    0.0047514   -0.0060611
h     5.8390285   -0.9017367   -1.4027463  0.00    0.0949586    0.0883321    0.0606711
h    -2.3763003    2.9354492    0.0491033  0.00   -0.0007474   -0.0000027    0.0000226
h    -2.1216529    0.4742684    0.0928817  0.00   -0.0031173   -0.0007608    0.0000585
h    -0.3949611    4.3816254   -0.1270782  0.00    0.0005883    0.0011600    0.0000839
h     1.8519461    3.3966853   -0.2754815  0.00    0.0015716    0.0019362    0.0001519
h     2.4058365   -1.6034959   -0.2003443  0.00   -0.0093594   -0.0054037    0.0000324
o     6.1868196    1.9625202    0.9011294  0.00   -0.0148970   -0.0607857   -0.0523440
o     7.1599002    0.2595592   -0.4395262  0.00   -0.1248753   -0.0682828   -0.1152098
h     7.8773400    0.0700110    0.2834146  0.00    0.0172184   -0.0215643    0.0373720
    27
 Energy =       0.2101715776
c    -1.3789947    2.4874630   -0.0412285  0.00   -0.0080992    0.0063232    0.0005318
c    -1.2454501    1.1252569    0.0012356  0.00   -0.0144540   -0.0065034    0.0001517
c     0.0055375    0.6021833   -0.0689165  0.00   -0.0143973   -0.0295733   -0.0005539
c    -0.2724605    3.2912620   -0.1552108  0.00   -0.0029760    0.0122862    0.0007012
c     0.9793887    2.7403719   -0.2314820  0.00    0.0026173    0.0115696    0.0003874
c     1.0984644    1.3787774   -0.1834838  0.00    0.0085641    0.0098878    0.0005513
n     0.3711861   -0.7621875   -0.0297687  0.00    0.0194619    0.0160078   -0.0003097
c     2.2043427    0.5888860   -0.2372108  0.00    0.0239001   -0.0091959   -0.0028667
c     1.7898967   -0.6995637   -0.1568487  0.00   -0.0133513   -0.0142291    0.0004357
h    -0.2413285   -1.6012455    0.0633852  0.00    0.0032691    0.0036135   -0.0000408
c     3.6302172    1.0851637   -0.4239465  0.00    0.0024391    0.0005991    0.0030383
c     4.7253163    0.0959071    0.0552834  0.00   -0.0127819    0.0039543    0.0010796
h     3.7367160    2.0327865    0.1524094  0.00    0.0003255    0.0012261    0.0003724
h     3.7944546    1.3453734   -1.4941868  0.00    0.0001270    0.0009859   -0.0015624
c     6.0725211    0.7932835    0.2297453  0.00    0.0108376    0.0338800    0.0436816
n     4.8610613   -1.0690569   -0.8640266  0.00    0.0068209   -0.0161143    0.0205413
h     4.4650931   -0.2762034    1.0704299  0.00    0.0004395   -0.0011353   -0.0017994
h     4.1932473   -0.9892954   -1.6794833  0.00   -0.0165590    0.0042087   -0.0093966
h     5.8426646   -1.0517281   -1.2942760  0.00    0.0785044    0.0566248    0.0308918
h    -2.3687287    2.9342646    0.0163146  0.00   -0.0004280    0.0000154    0.0000128
h    -2.1126154    0.4777124    0.0930073  0.00   -0.0017950   -0.0004885    0.0000239
h    -0.3890762    4.3725882   -0.1880122  0.00    0.0003344    0.0007998    0.0000574
h     1.8515694    3.3819445   -0.3268746  0.00    0.0009484    0.0011583    0.0000996
h     2.4199605   -1.5849578   -0.1785195  0.00   -0.0047673   -0.0031492   -0.0001236
o     6.1682485    2.0613076    0.7539974  0.00   -0.0125039   -0.0135085   -0.0241382
o     7.1982880    0.1511702   -0.2949174  0.00   -0.0958083   -0.0581544   -0.1196239
h     7.9466314    0.2032233    0.4421677  0.00    0.0393318   -0.0110886    0.0578575
    27
 Energy =       0.2060217529
c    -1.3431947    2.5702595   -0.0390865  0.00   -0.0078859    0.0060292    0.0005167
c    -1.2371191    1.2061906    0.0121753  0.00   -0.0137571   -0.0062856    0.0001694
c     0.0024260    0.6574654   -0.0563355  0.00   -0.0134811   -0.0275948   -0.0005233
c    -0.2205901    3.3504610   -0.1597725  0.00   -0.0028110    0.0118259    0.0006447
c     1.0196983    2.7734819   -0.2340358  0.00    0.0026848    0.0110154    0.0003320
c     1.1105102    1.4104065   -0.1775224  0.00    0.0081135    0.0092486    0.0004997
n     0.3383994   -0.7144552   -0.0077725  0.00    0.0179867    0.0146499   -0.0002520
c     2.1993899    0.5980537   -0.2271409  0.00    0.0223914   -0.0084679   -0.0027295
c     1.7586243   -0.6813661   -0.1364760  0.00   -0.0122681   -0.0135525    0.0003826
h    -0.2922085   -1.5398355    0.0917858  0.00    0.0027737    0.0030111    0.0000059
c     3.6364664    1.0622298   -0.4172180  0.00    0.0020719    0.0008769    0.0023924
c     4.7078343    0.0380767    0.0427118  0.00   -0.0120132    0.0037590    0.0019260
h     3.7719098    2.0003066    0.1700420  0.00    0.0003625    0.0016265    0.0005496
h     3.8000701    1.3290693   -1.4858361  0.00    0.0000711    0.0009523   -0.0014837
c     6.0742120    0.6975081    0.2167690  0.00    0.0086208    0.0203329    0.0337550
n     4.8008231   -1.1227443   -0.8860866  0.00    0.0062729   -0.0160464    0.0189829
h     4.4455358   -0.3349861    1.0572961  0.00    0.0004374   -0.0010506   -0.0016712
h     4.1267885   -1.0216986   -1.6936065  0.00   -0.0157267    0.0038409   -0.0091417
h     5.7752136   -1.1273389   -1.3263912  0.00    0.0732538    0.0525277    0.0284941
h    -2.3237385    3.0375545    0.0170138  0.00   -0.0006435    0.0001272    0.0000262
h    -2.1170853    0.5767322    0.1096618  0.00   -0.0018947   -0.0006234    0.0000469
h    -0.3152050    4.4339169   -0.1992564  0.00    0.0002886    0.0010288    0.0000440
h     1.9054065    3.3958959   -0.3341559  0.00    0.0011302    0.0012624    0.0000666
h     2.3708560   -1.5797249   -0.1508960  0.00   -0.0043164   -0.0031939   -0.0001107
o     6.2137399    1.9025545    0.8841511  0.00   -0.0111825    0.0013828   -0.0139666
o     7.1806586    0.0718443   -0.3727100  0.00   -0.0882485   -0.0565799   -0.1138389
h     7.9567296    0.1248297    0.3322757  0.00    0.0377691   -0.0101024    0.0548827
    27
 Energy =       0.1989575179
c    -1.3076939    2.6420898   -0.0326783  0.00   -0.0062256    0.0046176    0.0004160
c    -1.2255605    1.2785104    0.0374191  0.00   -0.0105129   -0.0050065    0.0001342
c     0.0017740    0.7070712   -0.0276308  0.00   -0.0100802   -0.0206814   -0.0004688
c    -0.1721494    3.3991994   -0.1681300  0.00   -0.0021150    0.0092224    0.0004980
c     1.0560060    2.7986415   -0.2377768  0.00    0.0021921    0.0085322    0.0002457
c     1.1205488    1.4368894   -0.1624433  0.00    0.0062184    0.0068818    0.0003653
n     0.3101793   -0.6719756    0.0376743  0.00    0.0134127    0.0106429   -0.0001208
c     2.1926444    0.6079125   -0.2033454  0.00    0.0168538   -0.0061047   -0.0021040
c     1.7324128   -0.6621384   -0.0937796  0.00   -0.0090977   -0.0104878    0.0002135
h    -0.3357081   -1.4850309    0.1488831  0.00    0.0018043    0.0019240    0.0000562
c     3.6377290    1.0458692   -0.3989361  0.00    0.0007726    0.0009418    0.0013494
c     4.6923125   -0.0154902    0.0158673  0.00   -0.0088431    0.0035902    0.0031022
h     3.8021637    1.9635486    0.2141296  0.00    0.0003698    0.0020193    0.0009394
h     3.7927642    1.3377227   -1.4622545  0.00   -0.0000805    0.0008308   -0.0014829
c     6.0796613    0.6038112    0.1773320  0.00    0.0053774    0.0081215    0.0189515
n     4.7216341   -1.1646438   -0.9306015  0.00    0.0042503   -0.0145861    0.0145156
h     4.4425858   -0.3960458    1.0314966  0.00    0.0003952   -0.0007076   -0.0010746
h     4.0581508   -1.0181673   -1.7381736  0.00   -0.0131773    0.0029013   -0.0080439
h     5.6910114   -1.2215361   -1.3669330  0.00    0.0572464    0.0404936    0.0216647
h    -2.2795013    3.1278275    0.0200366  0.00   -0.0006865    0.0001943    0.0000311
h    -2.1158825    0.6659963    0.1464617  0.00   -0.0016261   -0.0006558    0.0000586
h    -0.2471710    4.4836075   -0.2226756  0.00    0.0002014    0.0010940    0.0000216
h     1.9534034    3.4021794   -0.3490627  0.00    0.0011024    0.0011497    0.0000155
h     2.3330807   -1.5685734   -0.0973873  0.00   -0.0031315   -0.0025643   -0.0001083
o     6.2678519    1.7438014    0.9526633  0.00   -0.0073443    0.0097482   -0.0037398
o     7.1674611   -0.0108513   -0.4554850  0.00   -0.0685730   -0.0447404   -0.0896625
h     7.9764428    0.0844620    0.1949135  0.00    0.0312969   -0.0073711    0.0442273
    27
 Energy =       0.1956853798
c    -1.2785630    2.6990272    0.0041083  0.00   -0.0053983    0.0038650    0.0003628
c    -1.2143998    1.3361637    0.0923956  0.00   -0.0088635   -0.0043780    0.0001198
c     0.0034032    0.7472311    0.0247090  0.00   -0.0083834   -0.0171636   -0.0004306
c    -0.1341168    3.4379787   -0.1514385  0.00   -0.0016574    0.0079003    0.0004024
c     1.0842978    2.8193964   -0.2232180  0.00    0.0019815    0.0072701    0.0001897
c     1.1295965    1.4590312   -0.1299667  0.00    0.0052950    0.0056827    0.0002802
n     0.2921233   -0.6359476    0.1060940  0.00    0.0109698    0.0086082   -0.0000366
c     2.1888679    0.6169673   -0.1698311  0.00    0.0139838   -0.0047021   -0.0017497
c     1.7142279   -0.6452097   -0.0381465  0.00   -0.0075893   -0.0089334    0.0001311
h    -0.3640121   -1.4388941    0.2341309  0.00    0.0012366    0.0012840    0.0001002
c     3.6374822    1.0355705   -0.3830141  0.00   -0.0005520    0.0010391    0.0008284
c     4.6841871   -0.0568962   -0.0290224  0.00   -0.0071053    0.0040367    0.0043191
h     3.8308205    1.9304553    0.2560317  0.00    0.0002288    0.0025003    0.0014062
h     3.7733835    1.3579784   -1.4405285  0.00   -0.0001923    0.0008675   -0.0018894
c     6.0930893    0.5266714    0.0915759  0.00    0.0048314    0.0061405    0.0154471
n     4.6414582   -1.1918366   -0.9926280  0.00    0.0030252   -0.0148663    0.0115374
h     4.4650695   -0.4465382    0.9909062  0.00    0.0003488   -0.0004401   -0.0002571
h     3.9805594   -0.9993218   -1.7922489  0.00   -0.0122188    0.0025347   -0.0079401
h     5.5997175   -1.2963401   -1.4382964  0.00    0.0488792    0.0335475    0.0174561
h    -2.2431168    3.1988819    0.0583895  0.00   -0.0006965    0.0002085    0.0000335
h    -2.1118607    0.7373210    0.2174720  0.00   -0.0015440   -0.0007089    0.0000742
h    -0.1945029    4.5225198   -0.2202694  0.00    0.0001849    0.0011268    0.0000042
h     1.9897128    3.4078796   -0.3502692  0.00    0.0011537    0.0011111   -0.0000190
h     2.3048087   -1.5583419   -0.0364430  0.00   -0.0026182   -0.0022476   -0.0000927
o     6.3321887    1.6470291    0.8824596  0.00   -0.0057412    0.0095960   -0.0018961
o     7.1534299   -0.1067975   -0.5695287  0.00   -0.0570858   -0.0380229   -0.0766666
h     7.9882996    0.0107085    0.0361604  0.00    0.0275276   -0.0058560    0.0382857
    27
 Energy =       0.1933764890
c    -1.2948881    2.6642438   -0.0603045  0.00   -0.0048617    0.0033075    0.0003399
c    -1.2230738    1.3016977    0.0193593  0.00   -0.0078532   -0.0038558    0.0001387
c    -0.0011026    0.7212180   -0.0348831  0.00   -0.0073493   -0.0149574   -0.0003338
c    -0.1533173    3.4112607   -0.1942233  0.00   -0.0013736    0.0069892    0.0003347
c     1.0696021    2.8011920   -0.2513457  0.00    0.0018989    0.0063500    0.0001392
c     1.1219497    1.4411968   -0.1664216  0.00    0.0046717    0.0050041    0.0002197
n     0.2949424   -0.6615129    0.0378729  0.00    0.0091663    0.0075128   -0.0000399
c     2.1870669    0.6079151   -0.1931461  0.00    0.0120351   -0.0039379   -0.0015640
c     1.7203506   -0.6583213   -0.0805415  0.00   -0.0064845   -0.0078130    0.0001222
h    -0.3579435   -1.4703899    0.1464261  0.00    0.0008462    0.0008592    0.0001211
c     3.6368822    1.0387594   -0.3716631  0.00   -0.0007458    0.0009309    0.0006218
c     4.6842736   -0.0402653    0.0205708  0.00   -0.0067378    0.0037776    0.0042227
h     3.8043301    1.9400359    0.2657260  0.00    0.0001299    0.0024481    0.0014782
h     3.7981660    1.3550005   -1.4274940  0.00   -0.0001487    0.0007898   -0.0019870
c     6.0772261    0.5665690    0.2020642  0.00    0.0036434    0.0046323    0.0128158
n     4.6942891   -1.1728184   -0.9484769  0.00    0.0020802   -0.0139960    0.0099527
h     4.4300579   -0.4360935    1.0306968  0.00    0.0001499   -0.0003602    0.0004751
h     4.0600997   -0.9881940   -1.7704597  0.00   -0.0111974    0.0022015   -0.0077574
h     5.6686160   -1.2716212   -1.3598977  0.00    0.0435128    0.0286014    0.0143390
h    -2.2633945    3.1574842   -0.0168764  0.00   -0.0007062    0.0001903    0.0000380
h    -2.1183381    0.6961750    0.1265623  0.00   -0.0015085   -0.0007105    0.0000876
h    -0.2196823    4.4957369   -0.2569038  0.00    0.0001841    0.0010211   -0.0000021
h     1.9728106    3.3965029   -0.3607062  0.00    0.0011772    0.0010512   -0.0000363
h     2.3197761   -1.5656946   -0.0744813  0.00   -0.0022968   -0.0020203   -0.0000593
o     6.2701051    1.6623567    1.0412127  0.00   -0.0043602    0.0108672    0.0003386
o     7.1701642   -0.0177862   -0.4477902  0.00   -0.0490745   -0.0337685   -0.0678406
h     7.9971831    0.1400402    0.1547075  0.00    0.0252026   -0.0051147    0.0338356
    27
 Energy =       0.1883519884
c    -1.2908380    2.6616828   -0.1320993  0.00   -0.0030061    0.0018789    0.0002506
c    -1.2230306    1.3006668   -0.0482134  0.00   -0.0047487   -0.0021862    0.0001421
c    -0.0032026    0.7178313   -0.0792412  0.00   -0.0042600   -0.0087179   -0.0001299
c    -0.1461306    3.4047576   -0.2468805  0.00   -0.0009127    0.0041701    0.0002101
c     1.0748782    2.7919641   -0.2784989  0.00    0.0013274    0.0036033    0.0000555
c     1.1211915    1.4341783   -0.1895227  0.00    0.0026825    0.0029389    0.0000925
n     0.2872200   -0.6671406   -0.0027434  0.00    0.0048013    0.0044727   -0.0000917
c     2.1836913    0.6029098   -0.1912006  0.00    0.0068009   -0.0026283   -0.0009235
c     1.7168906   -0.6620499   -0.0881076  0.00   -0.0032500   -0.0044982    0.0000588
h    -0.3690811   -1.4757743    0.0897075  0.00    0.0003302    0.0003456    0.0000863
c     3.6374589    1.0356950   -0.3266421  0.00   -0.0001077    0.0003751    0.0005018
c     4.6751138   -0.0551745    0.0546827  0.00   -0.0040228    0.0023211    0.0020915
h     3.7916951    1.9172329    0.3404833  0.00    0.0003216    0.0019508    0.0012494
h     3.8215760    1.3830700   -1.3688185  0.00    0.0000142    0.0007302   -0.0019084
c     6.0606175    0.5503119    0.2889756  0.00    0.0006085    0.0006781    0.0049311