    13
 Energy =       0.1262188313
c    -3.7133889    1.6950595    0.3173519  0.00   -0.0524355   -0.0213312    0.0127894
c    -2.4962693    2.6345192    0.2419999  0.00    0.0846630    0.3264306    0.1004509
c    -4.9565486    2.3924193   -0.2155699  0.00    0.0126574    0.0234722    0.0115768
h    -5.8072983    1.7014095   -0.2223689  0.00    0.0084281    0.0133799   -0.0005371
h    -4.8071186    2.7393792   -1.2437896  0.00   -0.0072276   -0.0031845    0.0162565
h    -5.2375685    3.2516891    0.4029209  0.00   -0.0017284   -0.0139920   -0.0116093
n    -3.4097890    0.4519539   -0.4549189  0.00    0.1098287   -0.0334632   -0.0147354
h    -3.8575589    1.4177196    1.3669296  0.00    0.0067137   -0.0106020   -0.0248717
h    -2.5963493    0.6418898   -1.0496997  0.00    0.0856546    0.1468876    0.1129079
h    -3.0749291   -0.2623099    0.1989099  0.00   -0.0110336    0.0288596   -0.0210531
o    -2.4571893    3.7760389    0.6681628  0.00   -0.0152492   -0.2702658   -0.1114825
o    -1.4389296    2.0221094   -0.3549299  0.00   -0.1794603   -0.1787980   -0.0574612
h    -0.7518168    1.9408394    0.3531709  0.00   -0.0408109   -0.0073933   -0.0122313
    13
 Energy =       0.0866245196
c    -3.6915228    1.6995681    0.3222551  0.00   -0.0243729   -0.0072049    0.0063909
c    -2.4760567    2.6182907    0.2409136  0.00    0.0409739    0.1424153    0.0523951
c    -4.9479323    2.3963536   -0.1917527  0.00    0.0058772    0.0096360    0.0052097
h    -5.7886508    1.6807071   -0.2330638  0.00    0.0035527    0.0051378   -0.0005344
h    -4.7867367    2.7928147   -1.2114419  0.00   -0.0029139   -0.0005511    0.0063388
h    -5.2354885    3.2332989    0.4705910  0.00   -0.0011456   -0.0056908   -0.0042369
n    -3.4496623    0.4787601   -0.4796058  0.00    0.0512653   -0.0099599   -0.0085909
h    -3.8249242    1.4255409    1.3858016  0.00    0.0034561   -0.0046872   -0.0109795
h    -2.6316412    0.6596869   -1.0993511  0.00    0.0556050    0.0889009    0.0627954
h    -3.1519359   -0.2948570    0.1468784  0.00   -0.0042057    0.0089902   -0.0076993
o    -2.4881377    3.8503663    0.6914499  0.00   -0.0104241   -0.1201074   -0.0513146
o    -1.3789968    2.0801005   -0.3975672  0.00   -0.1208038   -0.0915824   -0.0828049
h    -0.7530683    1.7820863    0.3630619  0.00    0.0031357   -0.0152965    0.0330307
    13
 Energy =       0.0835118550
c    -3.6641172    1.6843899    0.3139024  0.00   -0.0197382   -0.0052415    0.0063992
c    -2.4682452    2.6256261    0.1963332  0.00    0.0381351    0.1288098    0.0471818
c    -4.9688890    2.3804612   -0.0842309  0.00    0.0017840    0.0089554    0.0052770
h    -5.8018925    1.6529703   -0.0885376  0.00    0.0022137    0.0045535   -0.0003485
h    -4.8881715    2.8155767   -1.1023609  0.00   -0.0025806    0.0008704    0.0021159
h    -5.2189636    3.1903765    0.6293441  0.00   -0.0020627   -0.0037043   -0.0022357
n    -3.4604092    0.5005210   -0.5544444  0.00    0.0470176   -0.0085904   -0.0128770
h    -3.7191108    1.3648764    1.3768864  0.00    0.0028721   -0.0049401   -0.0058804
h    -2.6361667    0.6839970   -1.1671821  0.00    0.0508783    0.0813718    0.0572071
h    -3.1979488   -0.3242127    0.0267569  0.00   -0.0024451    0.0041227   -0.0046345
o    -2.4982247    3.8681216    0.6389205  0.00   -0.0093857   -0.1087299   -0.0466043
o    -1.3702392    2.1105606   -0.4614516  0.00   -0.1108528   -0.0828636   -0.0770522
h    -0.7123759    1.8494526    0.2842330  0.00    0.0041645   -0.0146136    0.0314516
    13
 Energy =       0.0795614436
c    -3.6881238    1.6882771    0.3223255  0.00   -0.0168868   -0.0033973    0.0065890
c    -2.4763852    2.6104389    0.2243522  0.00    0.0358699    0.1186024    0.0438382
c    -4.9636462    2.3804338   -0.1760994  0.00   -0.0005973    0.0070219    0.0054087
h    -5.8097834    1.6673065   -0.1625731  0.00    0.0018942    0.0038126   -0.0000318
h    -4.8326094    2.7423523   -1.2213570  0.00   -0.0020434    0.0022093   -0.0019266
h    -5.2274300    3.2454984    0.4705910  0.00   -0.0032330   -0.0005260   -0.0000916
n    -3.4555216    0.4629702   -0.4816688  0.00    0.0432959   -0.0078460   -0.0168923
h    -3.8054598    1.4190723    1.3970827  0.00    0.0022672   -0.0050495   -0.0022602
h    -2.6387759    0.6396016   -1.1081316  0.00    0.0475428    0.0758763    0.0529738
h    -3.1525758   -0.3156194    0.1472091  0.00   -0.0007619    0.0000514   -0.0014884
o    -2.5064896    3.8689929    0.6374423  0.00   -0.0089553   -0.0999504   -0.0429276
o    -1.3659519    2.0763513   -0.3983735  0.00   -0.1077975   -0.0759459   -0.0793772
h    -0.6820016    1.9170412    0.3573696  0.00    0.0094051   -0.0148589    0.0361861
    13
 Energy =       0.0711747197
c    -3.7043646    1.6839128    0.3343715  0.00   -0.0117615   -0.0007796    0.0055225
c    -2.4902448    2.6003519    0.2367721  0.00    0.0285075    0.0868150    0.0348971
c    -4.9634644    2.3505692   -0.2365561  0.00   -0.0015343    0.0044796    0.0043741
h    -5.8133307    1.6407972   -0.2001305  0.00    0.0013715    0.0025579    0.0001069
h    -4.8031730    2.6488786   -1.2994244  0.00   -0.0014115    0.0024169   -0.0038477
h    -5.2367960    3.2563884    0.3517779  0.00   -0.0031829    0.0016307    0.0011681
n    -3.4543184    0.4239080   -0.4061391  0.00    0.0301625   -0.0053007   -0.0178559
h    -3.8605389    1.4654757    1.4175411  0.00    0.0014956   -0.0040685    0.0002657
h    -2.6646410    0.5998495   -1.0725159  0.00    0.0395618    0.0614974    0.0404135
h    -3.0860981   -0.3000346    0.2593360  0.00    0.0017498   -0.0046536    0.0033739
o    -2.5441835    3.8955631    0.5857345  0.00   -0.0079179   -0.0724518   -0.0328808
o    -1.3600444    2.0612630   -0.3493497  0.00   -0.1020861   -0.0604174   -0.0830760
h    -0.6235564    2.0757944    0.3867515  0.00    0.0250455   -0.0117261    0.0475386
    13
 Energy =       0.0688272598
c    -3.7210001    1.6997692    0.3181265  0.00   -0.0111861   -0.0001815    0.0051652
c    -2.4773207    2.5814209    0.2490078  0.00    0.0238725    0.0815738    0.0337302
c    -4.9403812    2.3879387   -0.3133417  0.00   -0.0024754    0.0047178    0.0044194
h    -5.8124386    1.7037981   -0.2891539  0.00    0.0006810    0.0020487    0.0003034
h    -4.7336033    2.6542913   -1.3777372  0.00   -0.0009823    0.0027143   -0.0049910
h    -5.2074511    3.3162858    0.2428245  0.00   -0.0034326    0.0021550    0.0013394
n    -3.4858217    0.4121041   -0.3811262  0.00    0.0126902    0.0025786   -0.0185589
h    -3.9237446    1.5154030    1.4013538  0.00    0.0008733   -0.0040964    0.0018575
h    -2.6125050    0.5078530   -0.9691758  0.00    0.0490440    0.0578243    0.0283402
h    -3.2448512   -0.3322027    0.3320796  0.00    0.0051713   -0.0149390    0.0133044
o    -2.5120333    3.8905325    0.5636947  0.00   -0.0075732   -0.0658421   -0.0300030
o    -1.3270659    1.9988963   -0.2579374  0.00   -0.0912788   -0.0579385   -0.0810011
h    -0.6065378    2.0666268    0.4895543  0.00    0.0245961   -0.0106150    0.0460944
    13
 Energy =       0.0618035741
c    -3.7271378    1.7053330    0.3207267  0.00   -0.0067327    0.0020135    0.0037643
c    -2.4833353    2.5856108    0.2378149  0.00    0.0145943    0.0428487    0.0267204
c    -4.9330464    2.3551558   -0.3721212  0.00   -0.0025568    0.0023165    0.0029242
h    -5.8061676    1.6720464   -0.3253432  0.00    0.0003595    0.0009964    0.0002807
h    -4.7036771    2.5598529   -1.4456191  0.00   -0.0004619    0.0022809   -0.0052375
h    -5.2067450    3.3157088    0.1250570  0.00   -0.0027546    0.0032673    0.0018498
n    -3.4893694    0.3819887   -0.3051948  0.00    0.0073016    0.0004760   -0.0145925
h    -3.9557710    1.5815334    1.4084220  0.00    0.0003410   -0.0028034    0.0032523
h    -2.6054194    0.4337085   -0.8824071  0.00    0.0357394    0.0398504    0.0188181
h    -3.2697691   -0.3254981    0.4472673  0.00    0.0039916   -0.0117865    0.0102042
o    -2.5542583    3.9455630    0.4049416  0.00   -0.0090310   -0.0260312   -0.0194412
o    -1.2968092    1.9793453   -0.1591189  0.00   -0.0705938   -0.0500690   -0.0757453
h    -0.5732488    2.2123684    0.5537437  0.00    0.0298033   -0.0033596    0.0472026
    13
 Energy =       0.0633246082
c    -3.7184944    1.7060489    0.3189489  0.00   -0.0063236    0.0015717    0.0038023
c    -2.4866095    2.6018557    0.2166347  0.00    0.0139997    0.0320718    0.0258995
c    -4.9439452    2.3354336   -0.3592364  0.00   -0.0026718    0.0023817    0.0026446
h    -5.8054459    1.6382197   -0.3017065  0.00    0.0001760    0.0008372    0.0002995
h    -4.7300173    2.5432524   -1.4353293  0.00   -0.0004184    0.0022582   -0.0051538
h    -5.2267428    3.2923213    0.1395770  0.00   -0.0027127    0.0032057    0.0017778
n    -3.4705041    0.3849924   -0.3083189  0.00    0.0069572    0.0003291   -0.0140704
h    -3.9303411    1.5815830    1.4099036  0.00    0.0002932   -0.0027351    0.0032589
h    -2.5807453    0.4400579   -0.8774186  0.00    0.0345623    0.0384342    0.0180338
h    -3.2562941   -0.3237372    0.4440681  0.00    0.0038649   -0.0113806    0.0098780
o    -2.5903469    3.9787437    0.2461885  0.00   -0.0108047   -0.0125435   -0.0181180
o    -1.2821856    1.9846234   -0.1069208  0.00   -0.0664216   -0.0514913   -0.0745742
h    -0.5830820    2.2393224    0.6217788  0.00    0.0294995   -0.0029391    0.0463220
    13
 Energy =       0.0596897327
c    -3.7312360    1.7077486    0.3219618  0.00   -0.0058019    0.0015328    0.0039137
c    -2.4852494    2.5858921    0.2360610  0.00    0.0136819    0.0202080    0.0226219
c    -4.9289475    2.3463138   -0.3964018  0.00   -0.0030844    0.0024978    0.0024768
h    -5.8039202    1.6649796   -0.3462512  0.00   -0.0000426    0.0006855    0.0003818
h    -4.6872672    2.5314246   -1.4709748  0.00   -0.0002474    0.0023189   -0.0054862
h    -5.2069226    3.3160955    0.0802568  0.00   -0.0028310    0.0033469    0.0017834
n    -3.4918607    0.3714021   -0.2745460  0.00    0.0066938   -0.0001657   -0.0138371
h    -3.9726192    1.6062481    1.4097002  0.00    0.0000680   -0.0026785    0.0037499
h    -2.6067931    0.4089742   -0.8503871  0.00    0.0330760    0.0366320    0.0170074
h    -3.2753656   -0.3198580    0.4931097  0.00    0.0037603   -0.0111811    0.0097654
o    -2.5585279    3.9611010    0.4049416  0.00   -0.0116831    0.0003706   -0.0151682
o    -1.2927073    1.9747224   -0.1452142  0.00   -0.0634120   -0.0514852   -0.0727494
h    -0.5633376    2.2476731    0.5459131  0.00    0.0298224   -0.0020821    0.0455406
    13
 Energy =       0.0543904268
c    -3.7471827    1.7118960    0.3274286  0.00   -0.0042673    0.0018320    0.0037282
c    -2.4863800    2.5702275    0.2582938  0.00    0.0113587    0.0069458    0.0149611
c    -4.9083094    2.3486982   -0.4501003  0.00   -0.0035707    0.0022927    0.0021871
h    -5.7985909    1.6865320   -0.4029029  0.00   -0.0003020    0.0004158    0.0005082
h    -4.6303682    2.4911396   -1.5228029  0.00    0.0001442    0.0022347   -0.0059905
h    -5.1806353    3.3395965   -0.0144216  0.00   -0.0028869    0.0037083    0.0018028
n    -3.5170575    0.3517588   -0.2148808  0.00    0.0056457   -0.0013068   -0.0128281
h    -4.0280532    1.6511161    1.4096745  0.00   -0.0003945   -0.0023182    0.0046213
h    -2.6392347    0.3607734   -0.8004349  0.00    0.0281217    0.0307015    0.0140072
h    -3.2965637   -0.3075497    0.5784367  0.00    0.0033437   -0.0102899    0.0091615
o    -2.5259476    3.9295570    0.5636947  0.00   -0.0105911    0.0119797   -0.0092678
o    -1.3042516    1.9724313   -0.1759472  0.00   -0.0559899   -0.0463810   -0.0645745
h    -0.5421794    2.2965403    0.4521314  0.00    0.0293885    0.0001853    0.0416834
    13
 Energy =       0.0482108178
c    -3.7662694    1.7168385    0.3408672  0.00   -0.0010146    0.0032089    0.0034729
c    -2.4991302    2.5663764    0.2911498  0.00    0.0063062   -0.0025737    0.0060240
c    -4.8822944    2.3216535   -0.5244502  0.00   -0.0048041    0.0014711    0.0015467
h    -5.7827869    1.6727838   -0.4798661  0.00   -0.0003954    0.0002216    0.0005400
h    -4.5544554    2.3992307   -1.5907476  0.00    0.0007755    0.0018728   -0.0071433
h    -5.1599759    3.3391438   -0.1559528  0.00   -0.0029695    0.0047517    0.0020041
n    -3.5302723    0.3261693   -0.1140215  0.00    0.0034368   -0.0034716   -0.0127922
h    -4.1019129    1.7175138    1.4109809  0.00   -0.0011338   -0.0013370    0.0063442
h    -2.6710041    0.3046067   -0.7241049  0.00    0.0205231    0.0216537    0.0093313
h    -3.2827545   -0.2747851    0.7167464  0.00    0.0030015   -0.0097392    0.0096218
o    -2.5188296    3.8956106    0.7224478  0.00   -0.0082156    0.0177045   -0.0025894
o    -1.3238076    2.0058800   -0.2085164  0.00   -0.0455684   -0.0381094   -0.0514767
h    -0.5312611    2.4116951    0.3236363  0.00    0.0300584    0.0043468    0.0351165
    13
 Energy =       0.0444312702
c    -3.7754241    1.7272373    0.3624202  0.00    0.0003233    0.0049300    0.0031650
c    -2.5035773    2.5679835    0.2967077  0.00    0.0016559   -0.0023970    0.0039085
c    -4.8647288    2.2908449   -0.5610687  0.00   -0.0043075    0.0007802    0.0010649
h    -5.7705326    1.6500659   -0.5042067  0.00   -0.0003361   -0.0000154    0.0004864
h    -4.5102909    2.3096724   -1.6212231  0.00    0.0009428    0.0014616   -0.0068615
h    -5.1427399    3.3282434   -0.2527898  0.00   -0.0026204    0.0050340    0.0019381
n    -3.5444974    0.3110043   -0.0066753  0.00   -0.0001143   -0.0052250   -0.0121807
h    -4.1376386    1.7896129    1.4223131  0.00   -0.0013455   -0.0007380    0.0065276
h    -2.7157000    0.2550426   -0.6556117  0.00    0.0163452    0.0156184    0.0049713
h    -3.2556215   -0.2293057    0.8524190  0.00    0.0029268   -0.0092746    0.0108251
o    -2.4995598    3.8737108    0.7918995  0.00   -0.0068050    0.0151119   -0.0006494
o    -1.3489293    2.0363171   -0.2808983  0.00   -0.0340513   -0.0308950   -0.0412042
h    -0.5355143    2.4922876    0.1648832  0.00    0.0273858    0.0056089    0.0280086
    13
 Energy =       0.0423221032
c    -3.7768413    1.7353500    0.3824614  0.00    0.0009655    0.0064756    0.0036583
c    -2.5171865    2.5917061    0.2893986  0.00   -0.0023271   -0.0010174    0.0042623
c    -4.8577933    2.2325272   -0.5877846  0.00   -0.0042158    0.0002034    0.0000471
h    -5.7554401    1.5818459   -0.5125622  0.00   -0.0004116   -0.0002734    0.0002873
h    -4.4853607    2.2004429   -1.6411367  0.00    0.0008237    0.0011020   -0.0065656
h    -5.1540329    3.2811233   -0.3387698  0.00   -0.0024007    0.0055437    0.0019248
n    -3.5247965    0.3028919    0.0973848  0.00   -0.0012747   -0.0070366   -0.0122238
h    -4.1570005    1.8513577    1.4315240  0.00   -0.0011782   -0.0001902    0.0064927
h    -2.7093377    0.2187401   -0.5642385  0.00    0.0125613    0.0111866    0.0032360
h    -3.2134509   -0.1793989    0.9826859  0.00    0.0030326   -0.0088123    0.0110784
o    -2.5069907    3.8770021    0.8326658  0.00   -0.0061177    0.0128488    0.0002403
o    -1.3837843    2.1060897   -0.3695898  0.00   -0.0245631   -0.0258421   -0.0351258
h    -0.5627389    2.6030390    0.0061301  0.00    0.0251057    0.0058119    0.0226880
    13
 Energy =       0.0422611343
c    -3.7650172    1.7445768    0.3996209  0.00    0.0005653    0.0076098    0.0051113
c    -2.5300693    2.6305644    0.2436190  0.00   -0.0041416    0.0013521    0.0056311
c    -4.8704336    2.1638545   -0.5818000  0.00   -0.0043141    0.0002883   -0.0013851
h    -5.7480893    1.4901168   -0.4679219  0.00   -0.0012255   -0.0011104    0.0002369
h    -4.5066376    2.0945959   -1.6366517  0.00    0.0006334    0.0010560   -0.0068345
h    -5.1942480    3.2147921   -0.3778960  0.00   -0.0024155    0.0064232    0.0019248
n    -3.4813433    0.3036605    0.1861845  0.00   -0.0024359   -0.0091338   -0.0129653
h    -4.1351564    1.9055054    1.4469386  0.00   -0.0009873   -0.0001073    0.0071043
h    -2.6548691    0.1983245   -0.4585698  0.00    0.0114081    0.0085693    0.0024585
h    -3.1791180   -0.1342264    1.0979009  0.00    0.0034334   -0.0090849    0.0119971
o    -2.5203849    3.9119499    0.7946900  0.00   -0.0057693    0.0118584    0.0002115
o    -1.4226834    2.1808507   -0.4853224  0.00   -0.0195287   -0.0236382   -0.0346723
h    -0.5967041    2.6981519   -0.1526230  0.00    0.0247776    0.0059175    0.0211818
    13
 Energy =       0.0406238370
c    -3.7886650    1.7346848    0.3870691  0.00   -0.0004099    0.0065628    0.0068645
c    -2.5157026    2.5823829    0.3230268  0.00   -0.0038172    0.0037971    0.0065836
c    -4.8428760    2.2357044   -0.6165684  0.00   -0.0044070    0.0013678   -0.0033023
h    -5.7514158    1.5931669   -0.5567631  0.00   -0.0029964   -0.0024529    0.0002553
h    -4.4473783    2.1904303   -1.6613416  0.00    0.0005654    0.0011659   -0.0072307
h    -5.1319161    3.2914655   -0.3849969  0.00   -0.0023843    0.0069495    0.0017021
n    -3.5449998    0.2962413    0.1178075  0.00   -0.0071476   -0.0092413   -0.0126718
h    -4.1928262    1.8579303    1.4274328  0.00   -0.0010112   -0.0004855    0.0079691
h    -2.7632136    0.2003303   -0.5853570  0.00    0.0127291    0.0053649   -0.0012530
h    -3.1863830   -0.1648441    0.9990348  0.00    0.0045235   -0.0096216    0.0142749
o    -2.4963088    3.8519907    0.9000228  0.00   -0.0045400    0.0115522    0.0002030
o    -1.3803507    2.1091891   -0.3473279  0.00   -0.0143725   -0.0205844   -0.0329118
h    -0.5627182    2.6240445    0.0061301  0.00    0.0232681    0.0056256    0.0195172
    13
 Energy =       0.0378387068
c    -3.8158650    1.7269568    0.3782879  0.00   -0.0007522    0.0011622    0.0046561
c    -2.5138391    2.5330726    0.4152362  0.00   -0.0003056    0.0017183    0.0034816
c    -4.7961238    2.2842216   -0.6683515  0.00   -0.0034116    0.0023793   -0.0033828
h    -5.7322162    1.6778961   -0.6636593  0.00   -0.0038615   -0.0027421    0.0003301
h    -4.3497457    2.2376390   -1.6907854  0.00    0.0007226    0.0008829   -0.0057211
h    -5.0547239    3.3451811   -0.4363252  0.00   -0.0017254    0.0046213    0.0007540
n    -3.6011548    0.2939365    0.0846175  0.00   -0.0081309   -0.0049494   -0.0074757
h    -4.2759681    1.8322866    1.3957774  0.00   -0.0011973   -0.0008274    0.0066081
h    -2.8677768    0.2019393   -0.6697151  0.00    0.0100154    0.0025963   -0.0039678
h    -3.1870425   -0.1682045    0.9378330  0.00    0.0036599   -0.0065442    0.0111823
o    -2.4767016    3.7695695    1.0587759  0.00   -0.0011902    0.0101835    0.0013705
o    -1.3672513    2.0585698   -0.2261357  0.00   -0.0090881   -0.0128073   -0.0202298
h    -0.5663454    2.6096527    0.0926132  0.00    0.0152650    0.0043266    0.0123943
    13
 Energy =       0.0359835287
c    -3.8369980    1.7236082    0.3800404  0.00    0.0006139   -0.0020116    0.0007823
c    -2.5232371    2.4961488    0.4884406  0.00    0.0008103   -0.0027579   -0.0009862
c    -4.7429706    2.3009650   -0.7146812  0.00   -0.0018710    0.0017824   -0.0011081
h    -5.6946426    1.7245030   -0.7557342  0.00   -0.0022314   -0.0013104    0.0003019
h    -4.2443606    2.2346571   -1.7090293  0.00    0.0007861    0.0002904   -0.0029509
h    -4.9809109    3.3674588   -0.5020067  0.00   -0.0007882    0.0013949    0.0000640
n    -3.6410146    0.2907593    0.1009009  0.00   -0.0040342   -0.0004731   -0.0017754
h    -4.3505018    1.8400265    1.3670596  0.00   -0.0010044   -0.0004903    0.0031521
h    -2.9542749    0.1858107   -0.6910828  0.00    0.0044635    0.0011468   -0.0029776
h    -3.1791263   -0.1521692    0.9339753  0.00    0.0013992   -0.0020793    0.0046652
o    -2.4702468    3.6829901    1.2175290  0.00   -0.0000019    0.0078957    0.0031369
o    -1.3839498    2.0518731   -0.1774168  0.00   -0.0068624   -0.0071399   -0.0068956
h    -0.6025201    2.6560855    0.0701742  0.00    0.0087204    0.0037524    0.0045916
    13
 Energy =       0.0355238212
c    -3.8459266    1.7332185    0.3970284  0.00    0.0014151    0.0021345    0.0005131
c    -2.5352273    2.5029019    0.5051117  0.00   -0.0060960   -0.0027656    0.0021237
c    -4.7076407    2.2585680   -0.7556960  0.00   -0.0015869    0.0001674   -0.0004895
h    -5.6567182    1.6831963   -0.8081206  0.00   -0.0001690    0.0000573   -0.0000269
h    -4.1703723    2.1450511   -1.7246725  0.00    0.0007545   -0.0001584   -0.0019159
h    -4.9500386    3.3342877   -0.6018761  0.00   -0.0006203    0.0016220    0.0003079
n    -3.6477196    0.2862361    0.2002232  0.00   -0.0012354   -0.0033371   -0.0009174
h    -4.3918703    1.9036592    1.3575255  0.00   -0.0008223    0.0004141    0.0020478
h    -2.9820824    0.1366937   -0.6002654  0.00    0.0012799    0.0002616   -0.0016336
h    -3.1656302   -0.1053263    1.0456350  0.00    0.0008818   -0.0010220    0.0022181
o    -2.4554124    3.6247341    1.3290662  0.00   -0.0025629    0.0073931    0.0053878
o    -1.4320059    2.1345372   -0.2686666  0.00    0.0059481   -0.0053152   -0.0076720
h    -0.6641099    2.7649595   -0.0671239  0.00    0.0028134    0.0005483    0.0000570
    13
 Energy =       0.0353516749
c    -3.8573782    1.7485298    0.3942055  0.00    0.0002360    0.0003225    0.0001895
c    -2.5441704    2.5121541    0.5122234  0.00    0.0023339   -0.0004105   -0.0014432
c    -4.6769654    2.2294783   -0.8057903  0.00   -0.0006479    0.0000261   -0.0001471
h    -5.6267592    1.6562542   -0.8668677  0.00   -0.0000560    0.0000276    0.0000069
h    -4.1079071    2.0746681   -1.7493781  0.00    0.0003470   -0.0000720   -0.0007227
h    -4.9174100    3.3107397   -0.7049775  0.00   -0.0002539    0.0006365    0.0000466
n    -3.6626933    0.2954833    0.2637047  0.00   -0.0004366   -0.0001356    0.0000809
h    -4.4331557    1.9605449    1.3271155  0.00   -0.0004053    0.0001133    0.0006545
h    -2.9822500    0.1068718   -0.5150740  0.00    0.0005995   -0.0004904   -0.0007436
h    -3.2008995   -0.0622866    1.1337945  0.00    0.0004428   -0.0004419    0.0004781
o    -2.4412974    3.5919093    1.3794501  0.00    0.0007191   -0.0005950   -0.0010485
o    -1.4583607    2.1731908   -0.2831749  0.00   -0.0017784    0.0012342    0.0026021
h    -0.6955075    2.8051794   -0.0770622  0.00   -0.0011002   -0.0002147    0.0000466
    13
 Energy =       0.0353484839
c    -3.8685428    1.7609804    0.3859231  0.00    0.0001113    0.0003769    0.0002300
c    -2.5454951    2.5045974    0.5237107  0.00    0.0012532   -0.0001516   -0.0007193
c    -4.6529729    2.2392683   -0.8387899  0.00   -0.0007544    0.0002991   -0.0001924
h    -5.6106527    1.6806111   -0.9139040  0.00   -0.0002752   -0.0000517    0.0000425
h    -4.0651177    2.0628891   -1.7672392  0.00    0.0005322   -0.0000791   -0.0009261
h    -4.8780751    3.3255794   -0.7576438  0.00   -0.0003230    0.0007470   -0.0000307
n    -3.6949445    0.3031552    0.2791733  0.00   -0.0009047   -0.0002411    0.0002365
h    -4.4618753    1.9948058    1.3027934  0.00   -0.0006203    0.0001130    0.0008568
h    -2.9996797    0.0933445   -0.4812913  0.00    0.0009750   -0.0005154   -0.0011007
h    -3.2591499   -0.0505083    1.1645913  0.00    0.0006357   -0.0006708    0.0009259
o    -2.4446557    3.5936079    1.3799148  0.00    0.0003564   -0.0002981   -0.0005984
o    -1.4466924    2.1369859   -0.2428843  0.00   -0.0004903    0.0005358    0.0012689
h    -0.6769004    2.7574002   -0.0261852  0.00   -0.0004960   -0.0000641    0.0000069
    13
 Energy =       0.0353323200
c    -3.8619635    1.7523673    0.3929800  0.00    0.0001116    0.0005862    0.0003260
c    -2.5393945    2.4980449    0.5221701  0.00   -0.0009014   -0.0014378   -0.0006157
c    -4.6649094    2.2444457   -0.8143728  0.00   -0.0008757    0.0003185   -0.0002414
h    -5.6211656    1.6827588   -0.8846292  0.00   -0.0002739   -0.0000428    0.0000441
h    -4.0884903    2.0833784   -1.7529426  0.00    0.0005943   -0.0001032   -0.0010229
h    -4.8932612    3.3286109   -0.7153849  0.00   -0.0003515    0.0008238   -0.0000297
n    -3.6839598    0.2968918    0.2633562  0.00   -0.0009991   -0.0003863    0.0002315
h    -4.4436873    1.9711433    1.3211376  0.00   -0.0006804    0.0001547    0.0009681
h    -2.9969417    0.1007670   -0.5083526  0.00    0.0010825   -0.0005410   -0.0012086
h    -3.2375501   -0.0680183    1.1389797  0.00    0.0006824   -0.0007124    0.0010524
o    -2.4117266    3.5366973    1.4392994  0.00   -0.0005426    0.0028877    0.0028042
o    -1.4680023    2.1813736   -0.3082127  0.00    0.0025426   -0.0016091   -0.0024068
h    -0.6937019    2.7942563   -0.0858592  0.00   -0.0003889    0.0000617    0.0000988
    13
 Energy =       0.0353069560
c    -3.8637669    1.7583894    0.3932987  0.00    0.0000520    0.0001033    0.0000513
c    -2.5435600    2.5079542    0.5174606  0.00    0.0001433    0.0003405    0.0002620
c    -4.6572912    2.2233406   -0.8289370  0.00    0.0001722   -0.0001662   -0.0000181
h    -5.6115916    1.6585218   -0.8958177  0.00    0.0000969    0.0000041   -0.0000323
h    -4.0737104    2.0441270   -1.7582444  0.00   -0.0001632    0.0000246    0.0001878
h    -4.8870140    3.3082092   -0.7540754  0.00    0.0000682   -0.0000563    0.0000541
n    -3.6835572    0.3017700    0.2942008  0.00    0.0000978   -0.0001231   -0.0002860
h    -4.4522754    1.9951733    1.3111863  0.00    0.0001947   -0.0000118   -0.0001627
h    -2.9879134    0.0922611   -0.4645958  0.00   -0.0002308    0.0001153    0.0001982
h    -3.2487553   -0.0448195    1.1819968  0.00   -0.0000563    0.0000623   -0.0000338
o    -2.4029170    3.5231941    1.4545505  0.00    0.0000192   -0.0005630   -0.0006981
o    -1.4852109    2.2134337   -0.3337278  0.00   -0.0005648    0.0002520    0.0004928
h    -0.7071910    2.8211622   -0.1091267  0.00    0.0001707    0.0000182   -0.0000153
    13
 Energy =       0.0353052546
c    -3.8660163    1.7624198    0.3927862  0.00    0.0000366    0.0000791    0.0000181
c    -2.5443071    2.5093808    0.5173941  0.00    0.0000180    0.0000076    0.0000056
c    -4.6517023    2.2183565   -0.8382310  0.00   -0.0000097   -0.0000334   -0.0000176
h    -5.6070066    1.6551550   -0.9053797  0.00    0.0000154    0.0000003   -0.0000041
h    -4.0629904    2.0294574   -1.7626966  0.00    0.0000014   -0.0000080   -0.0000219
h    -4.8794529    3.3044420   -0.7746552  0.00   -0.0000063    0.0000495    0.0000091
n    -3.6884148    0.3045259    0.3078289  0.00   -0.0000434   -0.0000843   -0.0000616
h    -4.4593700    2.0088032    1.3053172  0.00    0.0000002    0.0000156    0.0000253
h    -2.9888723    0.0865661   -0.4452761  0.00    0.0000193   -0.0000077   -0.0000288
h    -3.2597012   -0.0352666    1.2013122  0.00    0.0000250   -0.0000266    0.0000727
o    -2.3975116    3.5156654    1.4638523  0.00    0.0000051   -0.0000225   -0.0000444
o    -1.4895574    2.2192049   -0.3402291  0.00   -0.0001031    0.0000168    0.0000447
h    -0.7098513    2.8240067   -0.1138539  0.00    0.0000416    0.0000137    0.0000028
    13
 Energy =       0.0353052373
c    -3.8660489    1.7624549    0.3927634  0.00   -0.0000000    0.0000000    0.0000000
c    -2.5442788    2.5093482    0.5174066  0.00   -0.0000001   -0.0000002   -0.0000002
c    -4.6516694    2.2183001   -0.8382997  0.00   -0.0000000    0.0000000   -0.0000000
h    -5.6070044    1.6551243   -0.9054423  0.00    0.0000000   -0.0000000   -0.0000000
h    -4.0628908    2.0293513   -1.7626909  0.00    0.0000000   -0.0000000   -0.0000000
h    -4.8794050    3.3043464   -0.7748441  0.00    0.0000000    0.0000000   -0.0000000
n    -3.6884730    0.3046156    0.3079606  0.00   -0.0000000   -0.0000000   -0.0000000
h    -4.4594751    2.0088951    1.3052060  0.00   -0.0000000    0.0000000    0.0000000
h    -2.9889790    0.0865715   -0.4451376  0.00    0.0000000    0.0000000    0.0000000
h    -3.2597004   -0.0350704    1.2014020  0.00   -0.0000000   -0.0000000    0.0000000
o    -2.3972313    3.5151071    1.4644227  0.00    0.0000000    0.0000003    0.0000003
o    -1.4896390    2.2194563   -0.3405229  0.00    0.0000000   -0.0000001   -0.0000001
h    -0.7099591    2.8242166   -0.1140549  0.00    0.0000000    0.0000000    0.0000000
    13
 Energy =       0.0353052373
c    -3.8660486    1.7624545    0.3927633  0.00    0.0000000    0.0000000   -0.0000000
c    -2.5442789    2.5093487    0.5174061  0.00   -0.0000000   -0.0000000   -0.0000000
c    -4.6516706    2.2183006   -0.8382986  0.00   -0.0000000    0.0000000   -0.0000000
h    -5.6070054    1.6551245   -0.9054408  0.00   -0.0000000   -0.0000000   -0.0000000
h    -4.0628929    2.0293530   -1.7626905  0.00    0.0000000   -0.0000000   -0.0000000
h    -4.8794066    3.3043467   -0.7748416  0.00   -0.0000000    0.0000000   -0.0000000
n    -3.6884721    0.3046154    0.3079590  0.00   -0.0000000   -0.0000000    0.0000000
h    -4.4594741    2.0088936    1.3052067  0.00   -0.0000000    0.0000000    0.0000000
h    -2.9889790    0.0865723   -0.4451405  0.00    0.0000000   -0.0000000   -0.0000000
h    -3.2596977   -0.0350710    1.2013994  0.00    0.0000000   -0.0000000    0.0000000
o    -2.3972358    3.5151157    1.4644140  0.00   -0.0000000    0.0000000    0.0000000
o    -1.4896356    2.2194503   -0.3405169  0.00    0.0000000   -0.0000000   -0.0000000
h    -0.7099569    2.8242127   -0.1140506  0.00    0.0000000    0.0000000    0.0000000
