    24
 Energy =       3.5687907260
c     0.0448833    2.3534058   -1.3813971  0.00   -0.0372281    0.0565950   -0.0569934
c     0.1418476    2.9248573   -0.1206726  0.00   -0.0424978    0.0998482   -0.0102517
c     0.7555652    2.2402731    0.9181560  0.00   -0.0062060    0.0575611    0.0792984
c     0.5800579    1.0803682   -1.5985351  0.00   -0.0541850   -0.2411947   -0.2364292
c     1.2047783    0.3610782   -0.5608861  0.00    0.0848134   -0.0887226    0.0390011
c     1.2772621    0.9610456    0.7017654  0.00    0.0244050   -0.0339867    0.0376333
o    -0.3596449    4.1638607    0.1435223  0.00    0.0640130   -0.0041776    0.0485223
h     0.3725708    4.7444238    0.4083143  0.00   -0.0439740   -0.0528814   -0.0306527
h     1.7275121    0.4624698    1.5506282  0.00   -0.0065035    0.0135653    0.0060301
h     0.4997167    0.6426498   -2.5929302  0.00   -7.8773322  -32.8640755   -7.7927877
h    -0.4370006    2.8749235   -2.2021886  0.00    0.0017063   -0.0077723   -0.0083698
h     0.8245662    2.6993933    1.9006814  0.00    0.0029479    0.0011072    0.0013078
c     1.7669373   -1.0073413   -0.8964724  0.00   -0.0464274   -0.0256036   -0.0112470
c     0.8861134   -2.0194266   -1.6556448  0.00    0.1756517   -0.0514805    0.0091500
h     2.1212937   -1.4658931    0.0371405  0.00   -0.0052443    0.0130090   -0.0099504
h     2.6645729   -0.8285312   -1.5058794  0.00   -0.0107418    0.0010708    0.0069829
c    -0.2550706   -2.4993401   -0.7313897  0.00   -0.3948679    0.1505812    0.0367532
o    -1.3218979   -1.9331566   -0.5537303  0.00    0.2613270   -0.1306945   -0.0447254
o     0.0940721   -3.6455349   -0.0862695  0.00    0.0286585    0.0215425   -0.0316463
h    -0.6437886   -4.2813848   -0.2677699  0.00    0.0284339    0.0268590   -0.0179198
n     0.2410616   -1.4915667   -2.9017470  0.00   -0.0906222    0.0748648   -0.0148843
h     1.4642165   -2.9122299   -1.9206526  0.00   -0.0169343    0.0132369    0.0011561
h    -0.7513888   -1.7528500   -2.8797219  0.00    0.0412535   -0.0005173    0.0435565
h     0.2327904   -0.4700704   -2.8568985  0.00    7.9195542   32.9712657    7.9564662
    24
 Energy =       2.7078341490
c     0.0562994    2.3611971   -1.3722884  0.00   -0.0255287    0.0391906   -0.0393283
c     0.1593032    2.9209115   -0.1190569  0.00   -0.0289785    0.0691474   -0.0069163
c     0.7794973    2.2359998    0.9013593  0.00   -0.0042979    0.0402576    0.0549318
c     0.5876949    1.1042907   -1.6036653  0.00   -0.0382072   -0.1738010   -0.1698185
c     1.2062083    0.3856165   -0.5819498  0.00    0.0585498   -0.0616132    0.0272112
c     1.2950044    0.9694092    0.6743418  0.00    0.0168924   -0.0234569    0.0261249
o    -0.3616559    4.1610923    0.1454720  0.00    0.0419114   -0.0053364    0.0340671
h     0.3702102    4.7837078    0.3667745  0.00   -0.0283344   -0.0348253   -0.0212004
h     1.7601681    0.4552952    1.5075487  0.00   -0.0042106    0.0091048    0.0042977
h     0.4877481    0.6519635   -2.5980556  0.00   -5.8274338  -24.3115857   -5.7658486
h    -0.4409731    2.8923296   -2.1770087  0.00    0.0011028   -0.0052144   -0.0057791
h     0.8512297    2.6877541    1.8865693  0.00    0.0021965    0.0006769    0.0010409
c     1.7831171   -0.9767647   -0.9155892  0.00   -0.0336617   -0.0164565   -0.0074006
c     0.8598880   -2.0111013   -1.5980052  0.00    0.1210545   -0.0372839    0.0073817
h     2.2072402   -1.4199547    0.0040176  0.00   -0.0024485    0.0081649   -0.0049684
h     2.6398984   -0.7977710   -1.5925387  0.00   -0.0053784    0.0015653    0.0027494
c    -0.2311977   -2.5085559   -0.6398023  0.00   -0.2744275    0.1147013    0.0219420
o    -1.3497153   -1.9327743   -0.4541859  0.00    0.1804662   -0.0926565   -0.0317512
o     0.0542323   -3.7250064   -0.0722219  0.00    0.0380249    0.0238991   -0.0094706
h    -0.6515498   -4.3621261   -0.4265230  0.00    0.0017613    0.0016180   -0.0226638
n     0.2030421   -1.5206128   -2.8483557  0.00   -0.0631003    0.0501047   -0.0105503
h     1.4524556   -2.9023446   -1.8595813  0.00   -0.0116885    0.0092576    0.0004302
h    -0.8016631   -1.7642746   -2.8116734  0.00    0.0278865   -0.0005579    0.0313418
h     0.2145444   -0.4868575   -2.8681593  0.00    5.8578496   24.3950994    5.8841772
    24
 Energy =       1.6110694122
c     0.1190517    2.3603881   -1.3862339  0.00   -0.0115406    0.0149445   -0.0153873
c     0.1750161    2.8883745   -0.1295146  0.00   -0.0115339    0.0279429   -0.0011177
c     0.7523513    2.1866233    0.8866668  0.00   -0.0004458    0.0172013    0.0225289
c     0.6608108    1.1288663   -1.6300325  0.00   -0.0246399   -0.0801886   -0.0758729
c     1.2139687    0.3933579   -0.6057617  0.00    0.0243057   -0.0243385    0.0122269
c     1.2617387    0.9371457    0.6546640  0.00    0.0076257   -0.0087803    0.0116950
o    -0.3548517    4.1397608    0.1251249  0.00    0.0080309   -0.0101546    0.0151181
h     0.3888679    4.8118954    0.2439090  0.00   -0.0028807   -0.0070077   -0.0088066
h     1.6963135    0.3876923    1.4855109  0.00   -0.0010463    0.0031118    0.0026997
h     0.6465012    0.6699264   -2.6610502  0.00   -3.2488637  -13.5841572   -3.2351444
h    -0.3475428    2.9217360   -2.1885855  0.00   -0.0004304   -0.0018904   -0.0024967
h     0.7844706    2.6167089    1.8841739  0.00    0.0012151    0.0005223    0.0019176
c     1.7950637   -0.9763534   -0.9128275  0.00   -0.0132885   -0.0051792   -0.0026319
c     0.8147269   -2.0139622   -1.5251282  0.00    0.0465935   -0.0180466    0.0057475
h     2.2484186   -1.4081657    0.0044144  0.00   -0.0006758    0.0034229   -0.0016266
h     2.6304477   -0.8289652   -1.6307461  0.00   -0.0016413    0.0012046   -0.0003331
c    -0.2629180   -2.4673287   -0.5466880  0.00   -0.1097141    0.0465745    0.0103480
o    -1.4344816   -1.8160302   -0.4349312  0.00    0.0679269   -0.0333921   -0.0193032
o    -0.0833458   -3.7042935    0.0435404  0.00    0.0356102    0.0206548    0.0163027
h    -0.7007152   -4.3487608   -0.4725256  0.00   -0.0125969   -0.0151765   -0.0330393
n     0.2098737   -1.5606503   -2.8084805  0.00   -0.0135364    0.0009537   -0.0030346
h     1.3958296   -2.9348809   -1.7407009  0.00   -0.0048995    0.0023516    0.0003298
h    -0.8387378   -1.6604598   -2.7648081  0.00   -0.0066954   -0.0016945    0.0177576
h     0.3601691   -0.5212010   -2.9425673  0.00    3.2731214   13.6511212    3.2821227
    24
 Energy =       1.1789985922
c     0.1407981    2.3902188   -1.3790773  0.00   -0.0077487    0.0096392   -0.0102678
c     0.1771339    2.8921697   -0.1150309  0.00   -0.0073023    0.0180763   -0.0008426
c     0.7170989    2.1615905    0.8972664  0.00    0.0001771    0.0107978    0.0151784
c     0.6676162    1.1593601   -1.6349197  0.00   -0.0159705   -0.0530883   -0.0503963
c     1.1949942    0.4016929   -0.6189755  0.00    0.0155960   -0.0157110    0.0078239
c     1.2196384    0.9162533    0.6507800  0.00    0.0049231   -0.0053744    0.0081206
o    -0.3373058    4.1513544    0.1495020  0.00    0.0001853   -0.0096549    0.0094402
h     0.4144046    4.8316500    0.1887546  0.00    0.0027594   -0.0012816   -0.0052852
h     1.6331706    0.3434327    1.4772740  0.00   -0.0006659    0.0017454    0.0023162
h     0.6391717    0.7073577   -2.6697518  0.00   -2.2704654   -9.4906454   -2.2618695
h    -0.3054501    2.9736095   -2.1772939  0.00   -0.0003093   -0.0008971   -0.0018844
h     0.7294974    2.5707994    1.9038215  0.00    0.0006773    0.0003673    0.0018341
c     1.7953284   -0.9591972   -0.9373431  0.00   -0.0084960   -0.0032603   -0.0016892
c     0.8283547   -2.0096069   -1.5528651  0.00    0.0302044   -0.0106649    0.0035753
h     2.2580608   -1.3943728   -0.0248339  0.00   -0.0005081    0.0020203   -0.0008938
h     2.6292647   -0.7968292   -1.6542563  0.00   -0.0008856    0.0008242   -0.0000674
c    -0.2098499   -2.5203796   -0.5650711  0.00   -0.0676874    0.0244952    0.0024445
o    -1.3801688   -1.8537469   -0.3465505  0.00    0.0379603   -0.0178051   -0.0106997
o    -0.0002912   -3.7634520    0.0067839  0.00    0.0733092    0.0460872    0.0350751
h    -0.8133904   -4.3620049   -0.3137725  0.00   -0.0563393   -0.0421662   -0.0446803
n     0.1998007   -1.5526795   -2.8212185  0.00   -0.0084336    0.0017089   -0.0023846
h     1.4349959   -2.9108202   -1.7927444  0.00   -0.0026252    0.0008520    0.0000551
h    -0.8465471   -1.6576631   -2.7647290  0.00   -0.0045954   -0.0009200    0.0117276
h     0.3447005   -0.5173131   -2.9583265  0.00    2.2862407    9.5348552    2.2933699
    24
 Energy =       0.8939461374
c     0.1545428    2.4005153   -1.4011569  0.00   -0.0053189    0.0065869   -0.0068875
c     0.1869213    2.8960182   -0.1370045  0.00   -0.0048263    0.0121933   -0.0006034
c     0.7084794    2.1543951    0.8742463  0.00    0.0002499    0.0071927    0.0103156
c     0.6678626    1.1669355   -1.6581071  0.00   -0.0108647   -0.0370003   -0.0350960
c     1.1860788    0.4043871   -0.6460554  0.00    0.0104313   -0.0105595    0.0052541
c     1.2042531    0.9093359    0.6248322  0.00    0.0033284   -0.0035788    0.0055268
o    -0.3158600    4.1618275    0.1278345  0.00   -0.0023468   -0.0082430    0.0063067
h     0.4343131    4.8471669    0.1081567  0.00    0.0043102    0.0009622   -0.0035124
h     1.6093066    0.3275532    1.4492250  0.00   -0.0004415    0.0011316    0.0016296
h     0.6266566    0.7124686   -2.6876850  0.00   -1.6408937   -6.8578037   -1.6343491
h    -0.2834281    2.9915155   -2.1980543  0.00   -0.0002055   -0.0005106   -0.0012753
h     0.7157917    2.5582609    1.8824988  0.00    0.0004870    0.0002570    0.0012868
c     1.7894922   -0.9539298   -0.9671524  0.00   -0.0057006   -0.0019282   -0.0009536
c     0.8091923   -2.0124549   -1.5463925  0.00    0.0212204   -0.0067568    0.0025076
h     2.2798178   -1.3797063   -0.0632996  0.00   -0.0001547    0.0012082   -0.0002291
h     2.6044847   -0.7944164   -1.7071031  0.00   -0.0003028    0.0006782   -0.0003039
c    -0.1787809   -2.5386693   -0.5154403  0.00   -0.0443398    0.0162007    0.0002328
o    -1.3510529   -1.8789160   -0.2368607  0.00    0.0234554   -0.0115725   -0.0058443
o     0.0723362   -3.7687680    0.0722574  0.00    0.0538702    0.0333005    0.0283899
h    -0.7565275   -4.3659752   -0.1550193  0.00   -0.0423809   -0.0319583   -0.0336285
n     0.1355595   -1.5647872   -2.7955294  0.00   -0.0036230   -0.0015886   -0.0036137
h     1.4191281   -2.9067255   -1.8068881  0.00   -0.0014600    0.0005288   -0.0001347
h    -0.9121460   -1.6212449   -2.6867948  0.00   -0.0073477   -0.0011072    0.0082896
h     0.3246053   -0.5433624   -2.9830851  0.00    1.6528542    6.8923674    1.6566922
    24
 Energy =       0.6865223667
c     0.1682544    2.4082770   -1.4288503  0.00   -0.0037164    0.0044752   -0.0047911
c     0.1868417    2.8965486   -0.1630771  0.00   -0.0032706    0.0083127   -0.0004191
c     0.6896139    2.1463396    0.8497794  0.00    0.0003357    0.0048165    0.0071573
c     0.6762113    1.1742074   -1.6853453  0.00   -0.0076530   -0.0260006   -0.0247520
c     1.1796252    0.4065481   -0.6727951  0.00    0.0070722   -0.0072166    0.0035019
c     1.1834635    0.9023316    0.5997912  0.00    0.0023559   -0.0023976    0.0038593
o    -0.3140902    4.1644640    0.1013148  0.00   -0.0021170   -0.0060028    0.0042834
h     0.4303469    4.8542486    0.0550543  0.00    0.0034722    0.0010231   -0.0023418
h     1.5764757    0.3127613    1.4245514  0.00   -0.0001794    0.0007254    0.0011696
h     0.6382288    0.7213011   -2.7133223  0.00   -1.1941323   -4.9904537   -1.1895324
h    -0.2586619    3.0054905   -2.2269463  0.00   -0.0002314   -0.0003145   -0.0008855
h     0.6852760    2.5443311    1.8600884  0.00    0.0004421    0.0001658    0.0009750
c     1.7830237   -0.9508530   -0.9929052  0.00   -0.0038034   -0.0012163   -0.0005479
c     0.7906324   -2.0129349   -1.5435021  0.00    0.0162315   -0.0033048    0.0025798
h     2.2942407   -1.3687158   -0.0962220  0.00    0.0000805    0.0007329   -0.0000145
h     2.5831707   -0.7962072   -1.7504054  0.00   -0.0000600    0.0005347   -0.0004776
c    -0.1390111   -2.5698469   -0.4733558  0.00   -0.0290963    0.0104724   -0.0005473
o    -1.3126810   -1.9303198   -0.1272664  0.00    0.0132653   -0.0068471   -0.0022484
o     0.1677602   -3.7904521    0.1116683  0.00    0.0463572    0.0269009    0.0242009
h    -0.6829128   -4.3806632    0.0037338  0.00   -0.0379942   -0.0275752   -0.0263163
n     0.0590730   -1.5585438   -2.7585588  0.00    0.0048872   -0.0099651   -0.0066328
h     1.4020651   -2.8955294   -1.8420932  0.00   -0.0003061   -0.0000572   -0.0003809
h    -0.9843371   -1.5155160   -2.5685612  0.00   -0.0182813   -0.0007925    0.0076100
h     0.3284177   -0.5658432   -3.0153527  0.00    1.2063414    5.0239846    1.2045506
    24
 Energy =       0.5634746260
c     0.1469735    2.4079730   -1.4280975  0.00   -0.0028871    0.0033901   -0.0037437
c     0.1460718    2.8814665   -0.1571203  0.00   -0.0024170    0.0062263   -0.0001942
c     0.6487468    2.1262597    0.8511133  0.00    0.0001989    0.0039030    0.0055601
c     0.6733238    1.1842202   -1.6938787  0.00   -0.0058523   -0.0201693   -0.0191300
c     1.1786999    0.4133291   -0.6865430  0.00    0.0052984   -0.0056258    0.0023897
c     1.1629461    0.8931862    0.5912283  0.00    0.0018152   -0.0018480    0.0030303
o    -0.3777861    4.1389521    0.1174214  0.00   -0.0021130   -0.0043893    0.0035138
h     0.3512744    4.8444065    0.0691596  0.00    0.0028938    0.0010281   -0.0017149
h     1.5563954    0.2985968    1.4121158  0.00   -0.0001049    0.0005492    0.0009013
h     0.6455421    0.7398191   -2.7246666  0.00   -0.9372424   -3.9176105   -0.9341887
h    -0.2826957    3.0079960   -2.2224656  0.00   -0.0002615   -0.0001967   -0.0006204
h     0.6278958    2.5118322    1.8660386  0.00    0.0003318    0.0002340    0.0009666
c     1.8018796   -0.9326666   -1.0155915  0.00   -0.0028815   -0.0009704   -0.0005241
c     0.8170591   -2.0066460   -1.5545066  0.00    0.0122251   -0.0023343    0.0020070
h     2.3300440   -1.3443595   -0.1256194  0.00    0.0002027    0.0004361    0.0000163
h     2.5907381   -0.7657142   -1.7825134  0.00    0.0000655    0.0005202   -0.0005267
c    -0.1005225   -2.5666863   -0.4759117  0.00   -0.0202730    0.0089341   -0.0014013
o    -1.3120261   -1.9683128   -0.1722084  0.00    0.0074641   -0.0034550   -0.0016919
o     0.2492677   -3.7533490    0.1579763  0.00    0.0442691    0.0229752    0.0199037
h    -0.6068601   -4.3416424    0.1624869  0.00   -0.0365270   -0.0269091   -0.0206577
n     0.0809502   -1.5661862   -2.7714778  0.00    0.0037372   -0.0076848   -0.0050709
h     1.4355084   -2.8856836   -1.8491434  0.00   -0.0001901   -0.0000190   -0.0004413
h    -0.9617270   -1.5436321   -2.5889609  0.00   -0.0142673   -0.0003774    0.0059725
h     0.3293276   -0.5717347   -3.0314126  0.00    0.9465154    3.9433933    0.9456446
    24
 Energy =       0.4485433724
c     0.1319230    2.4047116   -1.4387129  0.00   -0.0021065    0.0023374   -0.0029488
c     0.1012733    2.8650150   -0.1636686  0.00   -0.0016824    0.0043967    0.0000616
c     0.5952583    2.1061551    0.8453387  0.00    0.0000673    0.0030633    0.0041988
c     0.6785695    1.1911226   -1.7071695  0.00   -0.0042215   -0.0149022   -0.0141580
c     1.1779589    0.4187438   -0.6998425  0.00    0.0037414   -0.0042131    0.0012429
c     1.1317976    0.8839329    0.5820143  0.00    0.0012892   -0.0012652    0.0024075
o    -0.4468966    4.1122840    0.1139661  0.00   -0.0019538   -0.0029876    0.0028141
h     0.2681060    4.8319848    0.0732441  0.00    0.0022735    0.0009872   -0.0011822
h     1.5180126    0.2851256    1.4032382  0.00   -0.0000838    0.0004236    0.0007178
h     0.6697156    0.7546939   -2.7394336  0.00   -0.7025951   -2.9380850   -0.7009510
h    -0.2933614    3.0064147   -2.2340506  0.00   -0.0002413   -0.0001312   -0.0004405
h     0.5492238    2.4803110    1.8638176  0.00    0.0001911    0.0003324    0.0010688
c     1.8216785   -0.9165914   -1.0307668  0.00   -0.0019945   -0.0007245   -0.0005074
c     0.8460656   -2.0030390   -1.5591238  0.00    0.0086693   -0.0015674    0.0015211
h     2.3619108   -1.3189071   -0.1435766  0.00    0.0002543    0.0002201    0.0000149
h     2.6028308   -0.7406623   -1.8035606  0.00    0.0000970    0.0004645   -0.0004528
c    -0.0612658   -2.5625279   -0.4720217  0.00   -0.0140339    0.0075738   -0.0017829
o    -1.2910313   -1.9873051   -0.1878265  0.00    0.0046459   -0.0020590   -0.0012387
o     0.3192447   -3.7187718    0.2010218  0.00    0.0406795    0.0205333    0.0145444
h    -0.5388963   -4.2872423    0.3212400  0.00   -0.0343782   -0.0256044   -0.0143952
n     0.1062295   -1.5770704   -2.7785155  0.00    0.0024961   -0.0053823   -0.0036442
h     1.4714782   -2.8790814   -1.8479341  0.00   -0.0000965   -0.0000028   -0.0004544
h    -0.9343374   -1.5613986   -2.5983456  0.00   -0.0102268   -0.0000876    0.0043818
h     0.3455389   -0.5864740   -3.0519094  0.00    0.7092100    2.9566799    0.7091823
    24
 Energy =       0.3455706198
c     0.1420312    2.4096468   -1.4777035  0.00   -0.0014797    0.0013595   -0.0028948
c     0.0616953    2.8609849   -0.2013293  0.00   -0.0011480    0.0031277    0.0003156
c     0.5188027    2.0964879    0.8208078  0.00    0.0002278    0.0019631    0.0036477
c     0.7011611    1.1996515   -1.7336377  0.00   -0.0031145   -0.0101188   -0.0104564
c     1.1652507    0.4235508   -0.7127303  0.00    0.0024423   -0.0031849    0.0002089
c     1.0687678    0.8784804    0.5697305  0.00    0.0009175   -0.0006470    0.0025301
o    -0.5017082    4.1047376    0.0634780  0.00   -0.0017390   -0.0019994    0.0021939
h     0.2084955    4.8296832    0.0441139  0.00    0.0017724    0.0008783   -0.0007454
h     1.4250708    0.2738182    1.4007622  0.00    0.0001204    0.0001402    0.0010195
h     0.7295657    0.7694871   -2.7669294  0.00   -0.4971206   -2.0802401   -0.4973631
h    -0.2556512    3.0155946   -2.2844762  0.00   -0.0003776    0.0000538   -0.0007108
h     0.4325325    2.4630708    1.8399054  0.00    0.0001732    0.0003831    0.0015882
c     1.8213249   -0.9083678   -1.0272795  0.00   -0.0012453   -0.0004525   -0.0006003
c     0.8538583   -2.0010191   -1.5566900  0.00    0.0078241    0.0010510    0.0023319
h     2.3593820   -1.3008786   -0.1341846  0.00    0.0002789    0.0000550   -0.0000504
h     2.6074060   -0.7330418   -1.7951500  0.00    0.0000382    0.0003396   -0.0004140
c     0.0002311   -2.6141568   -0.4530219  0.00   -0.0079789    0.0040757   -0.0011410
o    -1.2284308   -2.0686490   -0.0970693  0.00   -0.0003472   -0.0001436    0.0007492
o     0.4413698   -3.7662610    0.1912913  0.00    0.0388186    0.0172086    0.0097109
h    -0.4014965   -4.3136887    0.4354934  0.00   -0.0331373   -0.0227029   -0.0082139
n     0.0592799   -1.5524614   -2.7336007  0.00    0.0130189   -0.0178948   -0.0075688
h     1.4884120   -2.8543076   -1.8947075  0.00    0.0009966   -0.0009469   -0.0007722
h    -0.9616379   -1.4026455   -2.4635872  0.00   -0.0271677    0.0023810    0.0074405
h     0.3953142   -0.6082928   -3.0860628  0.00    0.5082269    2.1053147    0.4991948
    24
 Energy =       0.2863286065
c     0.1680356    2.4014184   -1.5029973  0.00   -0.0011290    0.0010376   -0.0022479
c     0.0729104    2.8546087   -0.2289859  0.00   -0.0008586    0.0023476    0.0002112
c     0.5125582    2.0890927    0.7996157  0.00    0.0002107    0.0014015    0.0028137
c     0.7242503    1.1886705   -1.7500206  0.00   -0.0023799   -0.0077721   -0.0080960
c     1.1735562    0.4132560   -0.7230614  0.00    0.0018008   -0.0023704    0.0001126
c     1.0612369    0.8691291    0.5571790  0.00    0.0007040   -0.0005087    0.0019755
o    -0.4882215    4.1015648    0.0262730  0.00   -0.0013365   -0.0014262    0.0016201
h     0.2240657    4.8241477    0.0108530  0.00    0.0013285    0.0006597   -0.0005558
h     1.4032865    0.2631278    1.3931495  0.00    0.0001240    0.0000499    0.0008563
h     0.7635871    0.7607910   -2.7798537  0.00   -0.3836095   -1.6054392   -0.3837014
h    -0.2161094    3.0083495   -2.3155047  0.00   -0.0003189    0.0000951   -0.0006167
h     0.4135961    2.4567961    1.8168278  0.00    0.0001360    0.0002916    0.0012637
c     1.8238690   -0.9234278   -1.0267626  0.00   -0.0009186   -0.0001912   -0.0004423
c     0.8453405   -2.0122100   -1.5409330  0.00    0.0060593    0.0012380    0.0017467
h     2.3603058   -1.3106331   -0.1303455  0.00    0.0002221    0.0000215   -0.0000171
h     2.6094541   -0.7617396   -1.7981184  0.00    0.0000928    0.0002725   -0.0003773
c    -0.0313842   -2.5792475   -0.4299362  0.00   -0.0054930    0.0042636   -0.0017007
o    -1.2631085   -2.0129027   -0.1160199  0.00   -0.0015652    0.0006992    0.0007636
o     0.3973724   -3.7013223    0.2745712  0.00    0.0335116    0.0139152    0.0071441
h    -0.4444668   -4.2043474    0.5942465  0.00   -0.0288773   -0.0206661   -0.0043828
n     0.0756359   -1.5771494   -2.7390320  0.00    0.0098402   -0.0130499   -0.0063415
h     1.4682178   -2.8855241   -1.8488921  0.00    0.0011423   -0.0012245   -0.0007858
h    -0.9445819   -1.4160700   -2.4902591  0.00   -0.0204876    0.0018531    0.0055851
h     0.4216206   -0.6449546   -3.1045708  0.00    0.3918018    1.6245023    0.3851724
    24
 Energy =       0.2273446736
c     0.1968178    2.3930341   -1.5314304  0.00   -0.0007821    0.0007036   -0.0017267
c     0.0785794    2.8464317   -0.2600127  0.00   -0.0005788    0.0016305    0.0001294
c     0.4946291    2.0789474    0.7765668  0.00    0.0002066    0.0008444    0.0020953
c     0.7522263    1.1781894   -1.7677454  0.00   -0.0016808   -0.0055068   -0.0059017
c     1.1808547    0.4025871   -0.7330332  0.00    0.0011996   -0.0016266   -0.0000471
c     1.0442034    0.8577160    0.5446360  0.00    0.0004897   -0.0003546    0.0015391
o    -0.4825469    4.0958577   -0.0161883  0.00   -0.0009992   -0.0009026    0.0010821
h     0.2314758    4.8165105   -0.0221058  0.00    0.0009444    0.0004756   -0.0003767
h     1.3667796    0.2494613    1.3867073  0.00    0.0001357   -0.0000543    0.0007662
h     0.8094187    0.7550954   -2.7941652  0.00   -0.2732563   -1.1438898   -0.2732702
h    -0.1688266    3.0017868   -2.3510926  0.00   -0.0002746    0.0001519   -0.0005859
h     0.3762292    2.4463941    1.7915561  0.00    0.0000962    0.0002198    0.0010361
c     1.8271101   -0.9383892   -1.0233447  0.00   -0.0005999   -0.0000402   -0.0002677
c     0.8392585   -2.0236940   -1.5239159  0.00    0.0042134    0.0012269    0.0011579
h     2.3602887   -1.3190936   -0.1221627  0.00    0.0001681   -0.0000177    0.0000188
h     2.6138562   -0.7904059   -1.7962209  0.00    0.0001250    0.0001973   -0.0003177
c    -0.0575825   -2.5470806   -0.4075096  0.00   -0.0032421    0.0038602   -0.0019671
o    -1.2873412   -1.9582057   -0.1272415  0.00   -0.0020426    0.0010343    0.0006741
o     0.3583762   -3.6394780    0.3492274  0.00    0.0285907    0.0117125    0.0032695
h    -0.4783626   -4.0824052    0.7529996  0.00   -0.0253384   -0.0182967    0.0000560
n     0.0920767   -1.6016868   -2.7400423  0.00    0.0068347   -0.0088983   -0.0046719
h     1.4506832   -2.9142053   -1.8039991  0.00    0.0010854   -0.0012503   -0.0006906
h    -0.9240022   -1.4177920   -2.5078225  0.00   -0.0140589    0.0012293    0.0038329
h     0.4568253   -0.6881517   -3.1262379  0.00    0.2787641    1.1575519    0.2741660
    24
 Energy =       0.1680347805
c     0.2398811    2.3846101   -1.5747216  0.00   -0.0004484    0.0003747   -0.0018429
c     0.0744521    2.8380387   -0.3085836  0.00   -0.0003261    0.0011655    0.0001172
c     0.4462234    2.0681340    0.7431699  0.00    0.0002596    0.0002122    0.0019875
c     0.7977429    1.1672532   -1.7902206  0.00   -0.0010709   -0.0033193   -0.0043911
c     1.1853150    0.3911524   -0.7399696  0.00    0.0007138   -0.0011708   -0.0004446
c     0.9999809    0.8453089    0.5320048  0.00    0.0002803   -0.0001930    0.0017280
o    -0.4902529    4.0902159   -0.0866315  0.00   -0.0011067   -0.0004264    0.0006383
h     0.2259349    4.8084757   -0.0691674  0.00    0.0008733    0.0004841   -0.0002140
h     1.2858545    0.2341405    1.3856937  0.00    0.0002171   -0.0003196    0.0011250
h     0.8925726    0.7511699   -2.8116542  0.00   -0.1660611   -0.6957009   -0.1664377
h    -0.0906590    2.9958195   -2.4078912  0.00   -0.0003292    0.0003765   -0.0009684
h     0.2890383    2.4351184    1.7532950  0.00    0.0000179    0.0002411    0.0013238
c     1.8297875   -0.9552430   -1.0045961  0.00   -0.0003101   -0.0001807   -0.0000333
c     0.8366454   -2.0369833   -1.4990338  0.00    0.0022208    0.0010296    0.0006034
h     2.3501669   -1.3262727   -0.0917451  0.00    0.0001801   -0.0001315    0.0001458
h     2.6262030   -0.8242728   -1.7706635  0.00    0.0002248    0.0001048   -0.0003029
c    -0.0769294   -2.5256580   -0.3815260  0.00   -0.0012247    0.0024660   -0.0016451
o    -1.2974406   -1.9098345   -0.1195234  0.00   -0.0017524    0.0008276    0.0004977
o     0.3258180   -3.5945066    0.4127316  0.00    0.0238553    0.0102415   -0.0025554
h    -0.4962504   -3.9563266    0.9117527  0.00   -0.0222190   -0.0147077    0.0051649
n     0.1077186   -1.6208976   -2.7264454  0.00    0.0053774   -0.0086127   -0.0020005
h     1.4379233   -2.9398518   -1.7585425  0.00    0.0007448   -0.0008633   -0.0004354
h    -0.8918020   -1.3690838   -2.4955372  0.00   -0.0106457    0.0009959    0.0029564
h     0.5231028   -0.7490831   -3.1547729  0.00    0.1705294    0.7071063    0.1649834
    24
 Energy =       0.1108443788
c     0.3019743    2.3775039   -1.6322637  0.00    0.0000441   -0.0000858   -0.0027452
c     0.0594992    2.8259791   -0.3760683  0.00   -0.0001438    0.0010257    0.0003050
c     0.3616445    2.0498606    0.6939424  0.00    0.0002576   -0.0004379    0.0025674
c     0.8662975    1.1584746   -1.8192124  0.00   -0.0006130   -0.0019486   -0.0041063
c     1.1879318    0.3782063   -0.7490812  0.00    0.0003226   -0.0011494   -0.0013019
c     0.9237633    0.8264875    0.5118662  0.00   -0.0001001    0.0000588    0.0026584
o    -0.5134316    4.0797032   -0.1843593  0.00   -0.0018526   -0.0003854    0.0003071
h     0.2030459    4.7958934   -0.1241027  0.00    0.0013620    0.0009056   -0.0000133
h     1.1511756    0.2086917    1.3793058  0.00    0.0002694   -0.0006978    0.0019696
h     1.0237531    0.7590770   -2.8329451  0.00   -0.0684938   -0.2872684   -0.0695332
h     0.0272897    2.9948021   -2.4820967  0.00   -0.0003871    0.0007050   -0.0017886
h     0.1416257    2.4122283    1.6948197  0.00   -0.0002010    0.0003889    0.0022383
c     1.8303966   -0.9747672   -0.9773290  0.00   -0.0001029   -0.0004345    0.0003178
c     0.8315665   -2.0518943   -1.4667970  0.00    0.0007902    0.0011933    0.0002234
h     2.3329407   -1.3316281   -0.0487179  0.00    0.0002117   -0.0002639    0.0002679
h     2.6407211   -0.8656139   -1.7321982  0.00    0.0003418    0.0000101   -0.0002873
c    -0.0851142   -2.5176754   -0.3444898  0.00    0.0011809   -0.0009680   -0.0002515
o    -1.2762762   -1.8553335   -0.0590982  0.00   -0.0021127    0.0009720    0.0005341
o     0.3028208   -3.5847192    0.4554027  0.00    0.0200017    0.0077373   -0.0106336
h    -0.4801321   -3.8331529    1.0705059  0.00   -0.0193751   -0.0082189    0.0107457
n     0.1019144   -1.6250056   -2.6866087  0.00    0.0100527   -0.0238624    0.0016062
h     1.4202745   -2.9622881   -1.7248979  0.00    0.0002044   -0.0001162   -0.0000954
h    -0.8434354   -1.2141668   -2.4215640  0.00   -0.0218386    0.0074719    0.0068687
h     0.6207812   -0.8492388   -3.1965902  0.00    0.0801816    0.3053687    0.0601467
    24
 Energy =       0.0755885035
c     0.3228057    2.3885762   -1.6320660  0.00    0.0001916   -0.0004524   -0.0002593
c     0.0193053    2.7921378   -0.3760840  0.00   -0.0001678   -0.0001084    0.0005996
c     0.2850329    1.9853390    0.6771521  0.00   -0.0002235    0.0005644    0.0000896
c     0.9101002    1.1832345   -1.8363932  0.00    0.0000630   -0.0030467   -0.0013917
c     1.1990638    0.3736906   -0.7808607  0.00    0.0002043   -0.0003809   -0.0010354
c     0.8722531    0.7767934    0.4791326  0.00   -0.0003893    0.0000915    0.0001720
o    -0.5780669    4.0316592   -0.1684349  0.00   -0.0008141   -0.0009616    0.0002488
h     0.1235979    4.7560464   -0.0557760  0.00    0.0008656    0.0012536    0.0001819
h     1.0660342    0.1319786    1.3326191  0.00   -0.0001186    0.0002291   -0.0000394
h     1.1223828    0.8421578   -2.8515578  0.00   -0.0154260   -0.0628482   -0.0145744
h     0.0797959    3.0319400   -2.4698319  0.00    0.0000796   -0.0003049    0.0000399
h     0.0147207    2.3105700    1.6769518  0.00   -0.0001504    0.0003779    0.0005377
c     1.8511745   -0.9715406   -1.0210464  0.00   -0.0000208    0.0007067   -0.0000324
c     0.8405064   -2.0580395   -1.4622290  0.00   -0.0003915   -0.0004269   -0.0003929
h     2.3865844   -1.3123748   -0.1048508  0.00    0.0003813   -0.0001242    0.0003434
h     2.6355743   -0.8647826   -1.8031219  0.00    0.0003103    0.0001296   -0.0002790
c    -0.0670289   -2.4729983   -0.3126357  0.00    0.0009525   -0.0004354   -0.0000080
o    -1.2177638   -1.7526555   -0.0035013  0.00   -0.0015767    0.0009609    0.0006883
o     0.3029530   -3.5357679    0.5009983  0.00    0.0028674    0.0007224   -0.0022732
h    -0.4168937   -3.6743998    1.2024000  0.00   -0.0029002   -0.0007005    0.0023434
n     0.0972402   -1.6516835   -2.6780730  0.00   -0.0012444    0.0057770   -0.0016095
h     1.4144954   -2.9825033   -1.7031410  0.00   -0.0000307   -0.0002342   -0.0001866
h    -0.7826768   -1.1528613   -2.4091974  0.00    0.0044350   -0.0042230   -0.0010728
h     0.6498362   -0.9730930   -3.2530304  0.00    0.0131032    0.0634341    0.0179101
    24
 Energy =       0.0697453240
c     0.3426197    2.3963746   -1.6432150  0.00    0.0000167   -0.0000506   -0.0000955
c     0.0348243    2.7973149   -0.3879594  0.00   -0.0000446   -0.0000120    0.0001070