    27
 Energy =       2.0539230866
c    -1.4235396    2.6054793   -0.0667700  0.00   -0.0463851    0.0382925    0.0025838
c    -1.3072796    1.2134697   -0.1072300  0.00   -0.0850630   -0.0326919    0.0018354
c    -0.0178900    0.6711998   -0.1697000  0.00   -0.0886551   -0.1876922   -0.0002430
c    -0.2940599    3.4190890   -0.0891300  0.00   -0.0231048    0.0689964    0.0027980
c     0.9872197    2.8590292   -0.1560400  0.00    0.0100852    0.0642945    0.0009313
c     1.1340797    1.4562096   -0.1970299  0.00    0.0551822    0.0495959    0.0016596
n     0.3879399   -0.6395298   -0.2140799  0.00    0.1441315    0.1079042   -0.0072672
c     2.2666594    0.5727398   -0.2659299  0.00    3.6608832   -4.2710871   -3.7077096
c     1.7555995   -0.7123598   -0.2706899  0.00    3.5017306    0.6081842   -2.4079874
h    -0.2400399   -1.4313496   -0.2047299  0.00    0.0360643    0.0478549    0.0009132
c     3.7030089    1.0223397   -0.3320099  0.00   -0.5451009   -1.2809807   -0.7765622
c     4.2197688    1.4064496   -1.7267995  0.00   -0.1028504   -0.0341916    0.1420486
h     4.3261788    0.2093419    0.0639454  0.00   -0.0765454   -0.0226500   -0.0733371
h     3.8370289    1.8640295    0.3610799  0.00   -0.0044410   -0.0133562   -0.0064643
c     3.7734089    0.3331939   -2.7369592  0.00    0.0353134   -0.0431290   -0.3603786
n     5.7205784    1.5052196   -1.8052095  0.00    0.0881138    0.0171514   -0.0426092
h     3.7949889    2.3605393   -2.0604594  0.00    0.0280587   -0.0109412    0.0015451
h     5.9422883    2.4421693   -2.1574494  0.00   -0.0188790   -0.0295035    0.0199185
h     6.0817983    1.5118596   -0.8448278  0.00   -0.0271149    0.0019011   -0.0268933
h    -2.4108593    3.0588691   -0.0157800  0.00   -0.0007134    0.0002207    0.0001700
h    -2.1896094    0.5822398   -0.0890100  0.00   -0.0036044    0.0038152    0.0002865
h    -0.4052699    4.5000487   -0.0535400  0.00    0.0008907    0.0002231    0.0004194
h     1.8590495    3.5066790   -0.1715100  0.00   -0.0009114    0.0035050    0.0007808
h     2.2327294   -1.6813195   -0.3062999  0.00    0.0670059    0.1406381   -0.1084833
o     3.9573089    0.3724499   -3.9421789  0.00   -0.0409967   -0.0117293    0.2908800
o     3.1342991   -0.6931888   -2.1135494  0.00   -0.1112011    0.1318858    0.3188053
h     3.1158391   -0.4388009   -1.1546097  0.00   -6.4518931    4.6534896    6.7323597
    27
 Energy =       1.7709035348
c    -1.4660550    2.6346264   -0.0852225  0.00   -0.0366142    0.0303869    0.0020643
c    -1.3389159    1.2503561   -0.1278947  0.00   -0.0676372   -0.0260615    0.0014352
c    -0.0585580    0.7092913   -0.1873528  0.00   -0.0675225   -0.1483273    0.0001914
c    -0.3482210    3.4541031   -0.1036488  0.00   -0.0182790    0.0548590    0.0022214
c     0.9284614    2.9069865   -0.1672676  0.00    0.0088438    0.0507842    0.0006377
c     1.0748938    1.5190154   -0.2087936  0.00    0.0439671    0.0410873    0.0011680
n     0.3000675   -0.6428534   -0.2402076  0.00    0.1122571    0.0830217   -0.0061206
c     2.2020083    0.6879151   -0.2711028  0.00    2.9469737   -3.4014228   -3.0078484
c     1.6805877   -0.7647873   -0.2594583  0.00    2.7481167    0.4233757   -1.8957220
h    -0.3666597   -1.4132260   -0.2522301  0.00    0.0271628    0.0369821    0.0004899
c     3.7513394    1.0664805   -0.3188036  0.00   -0.4110335   -1.0128410   -0.6097887
c     4.3260654    1.3622987   -1.7317708  0.00   -0.0768157   -0.0231215    0.1117744
h     4.2994461    0.2066135    0.1154815  0.00   -0.0608649   -0.0236504   -0.0578880
h     3.9206179    1.9309093    0.3428622  0.00   -0.0039748   -0.0092268   -0.0050769
c     3.9077088    0.2230883   -2.6807626  0.00    0.0286389   -0.0342209   -0.2849755
n     5.8215302    1.4651689   -1.7507414  0.00    0.0713757    0.0120352   -0.0348200
h     3.8998234    2.2916445   -2.1470140  0.00    0.0203206   -0.0060210   -0.0002729
h     6.0668950    2.3926668   -2.1256023  0.00   -0.0147575   -0.0226627    0.0154198
h     6.1548751    1.4853428   -0.7749673  0.00   -0.0213354    0.0015019   -0.0202525
h    -2.4571622    3.0799647   -0.0366292  0.00   -0.0006009    0.0002043    0.0001403
h    -2.2178398    0.6142310   -0.1148046  0.00   -0.0028654    0.0029965    0.0002085
h    -0.4682839    4.5341990   -0.0674442  0.00    0.0007210    0.0002178    0.0003349
h     1.7996985    3.5557690   -0.1799174  0.00   -0.0005836    0.0025757    0.0005874
h     2.1819792   -1.7265594   -0.3561300  0.00    0.0571135    0.1093706   -0.0886747
o     4.0355674    0.2136968   -3.9309340  0.00   -0.0338042   -0.0105984    0.2273106
o     3.2679628   -0.7857405   -2.0217051  0.00   -0.0851005    0.0867029    0.2121323
h     3.0433925   -0.3751042   -1.1444350  0.00   -5.1637017    3.7820526    5.4353241
    27
 Energy =       1.6743371583
c    -1.4061770    2.6328376   -0.0586241  0.00   -0.0365815    0.0301193    0.0021319
c    -1.3048091    1.2470577   -0.0900155  0.00   -0.0671006   -0.0261867    0.0014224
c    -0.0341458    0.6893043   -0.1577167  0.00   -0.0659587   -0.1465356    0.0000086
c    -0.2716772    3.4294961   -0.0940650  0.00   -0.0180894    0.0546107    0.0022081
c     0.9947112    2.8555887   -0.1650884  0.00    0.0094267    0.0502532    0.0005462
c     1.1145735    1.4629045   -0.1974843  0.00    0.0443889    0.0415479    0.0010700
n     0.3212820   -0.6503646   -0.1813395  0.00    0.1077989    0.0793489   -0.0050867
c     2.2294036    0.5964807   -0.2655529  0.00    2.8968712   -3.3530548   -2.9575217
c     1.7013421   -0.7311823   -0.2745073  0.00    2.6592041    0.4190471   -1.8340161
h    -0.3335419   -1.4322305   -0.1458006  0.00    0.0255249    0.0350846    0.0009351
c     3.7131380    1.0429974   -0.3335210  0.00   -0.4020125   -0.9838801   -0.5923564
c     4.2363595    1.3875242   -1.7592474  0.00   -0.0762952   -0.0215254    0.1100165
h     4.3190867    0.2133778    0.0812425  0.00   -0.0590204   -0.0250930   -0.0559921
h     3.8524269    1.9097273    0.3334331  0.00   -0.0042358   -0.0084472   -0.0051709
c     3.8551501    0.2361668   -2.7188461  0.00    0.0295137   -0.0325799   -0.2823142
n     5.7262825    1.5666591   -1.8114775  0.00    0.0740468    0.0088211   -0.0341775
h     3.7503752    2.2988872   -2.1516855  0.00    0.0190337   -0.0041491   -0.0009521
h     5.9081418    2.5181382   -2.1700663  0.00   -0.0137262   -0.0188387    0.0137353
h     6.0853327    1.5858980   -0.8445457  0.00   -0.0206494    0.0014485   -0.0195182
h    -2.3882047    3.0976019   -0.0027976  0.00   -0.0008664    0.0003038    0.0002281
h    -2.1932941    0.6244755   -0.0575359  0.00   -0.0031118    0.0027610    0.0003393
h    -0.3697198    4.5123201   -0.0657173  0.00    0.0006872    0.0005273    0.0003082
h     1.8775649    3.4880759   -0.1922026  0.00   -0.0001395    0.0025643    0.0004960
h     2.1986324   -1.6994817   -0.2919445  0.00    0.0551664    0.1018105   -0.0857752
o     4.0106515    0.2409702   -3.9675056  0.00   -0.0335110   -0.0107987    0.2242565
o     3.2607246   -0.8130940   -2.0719305  0.00   -0.0842460    0.0815450    0.2075081
h     3.0876150   -0.4340392   -1.1719544  0.00   -5.0361183    3.7212961    5.3076706
    27
 Energy =       1.6017628151
c    -1.3686208    2.6257283   -0.0725644  0.00   -0.0354707    0.0290691    0.0020422
c    -1.2814751    1.2409957   -0.1246281  0.00   -0.0648989   -0.0257628    0.0014708
c    -0.0162827    0.6744794   -0.1754225  0.00   -0.0619080   -0.1382519    0.0003616
c    -0.2247228    3.4090553   -0.0791302  0.00   -0.0172821    0.0529367    0.0021091
c     1.0359372    2.8212327   -0.1353045  0.00    0.0095123    0.0484486    0.0004021
c     1.1411602    1.4274982   -0.1798292  0.00    0.0433203    0.0408352    0.0004417
n     0.3309149   -0.6593366   -0.2658869  0.00    0.0976730    0.0748074   -0.0053969
c     2.2515230    0.5456869   -0.2299911  0.00    2.7932043   -3.2371144   -2.8492223
c     1.7196180   -0.7197322   -0.2505159  0.00    2.5548656    0.4097063   -1.7580208
h    -0.3224038   -1.4469374   -0.3045537  0.00    0.0216352    0.0304552    0.0005849
c     3.6929130    1.0309154   -0.3120847  0.00   -0.3880882   -0.9426735   -0.5676813
c     4.1749057    1.4061541   -1.7462389  0.00   -0.0741188   -0.0200797    0.1058651
h     4.3381267    0.2241841    0.0875071  0.00   -0.0562715   -0.0249058   -0.0533449
h     3.8174746    1.8972573    0.3593279  0.00   -0.0043220   -0.0078677   -0.0050829
c     3.8235946    0.2446083   -2.7084096  0.00    0.0288834   -0.0305930   -0.2725002
n     5.6562389    1.6443112   -1.8207552  0.00    0.0734978    0.0069727   -0.0328917
h     3.6437888    2.2994877   -2.1240605  0.00    0.0176369   -0.0029987   -0.0012573
h     5.7910751    2.6105087   -2.1664969  0.00   -0.0129109   -0.0161905    0.0124617
h     6.0363861    1.6621982   -0.8612353  0.00   -0.0196663    0.0013922   -0.0184590
h    -2.3465635    3.1006784   -0.0301790  0.00   -0.0010220    0.0002840    0.0002237
h    -2.1767099    0.6260789   -0.1298396  0.00   -0.0036403    0.0021805    0.0003502
h    -0.3106761    4.4926750   -0.0391615  0.00    0.0007109    0.0006657    0.0002977
h     1.9253867    3.4452258   -0.1377009  0.00    0.0003212    0.0025519    0.0004730
h     2.2274567   -1.6806450   -0.1967619  0.00    0.0540940    0.0948350   -0.0816603
o     3.9970414    0.2575158   -3.9594550  0.00   -0.0323202   -0.0105721    0.2160348
o     3.2673061   -0.8322772   -2.0672536  0.00   -0.0818988    0.0766675    0.2000143
h     3.1178314   -0.4714500   -1.1558729  0.00   -4.8415360    3.5852023    5.1023846
    27
 Energy =       1.4864578742
c    -1.3496362    2.6364256   -0.0905817  0.00   -0.0325381    0.0265420    0.0018723
c    -1.2740364    1.2541258   -0.1506802  0.00   -0.0593993   -0.0237024    0.0014111
c    -0.0162817    0.6800381   -0.1918531  0.00   -0.0563405   -0.1261176    0.0005880
c    -0.1992866    3.4073074   -0.0831007  0.00   -0.0158082    0.0484693    0.0019151
c     1.0542439    2.8076829   -0.1300409  0.00    0.0089439    0.0442574    0.0003056
c     1.1452855    1.4151442   -0.1786338  0.00    0.0397777    0.0374761    0.0000906
n     0.3232608   -0.6511104   -0.3050635  0.00    0.0883773    0.0680665   -0.0054302
c     2.2491618    0.5241506   -0.2160873  0.00    2.5619169   -2.9760041   -2.6117529
c     1.7145314   -0.6946283   -0.2485303  0.00    2.3327197    0.3860626   -1.6072486
h    -0.3265442   -1.4428415   -0.3723367  0.00    0.0193298    0.0273231    0.0003804
c     3.6659284    1.0357495   -0.3024004  0.00   -0.3568484   -0.8605411   -0.5166646
c     4.1472803    1.3896444   -1.7546675  0.00   -0.0703940   -0.0170886    0.0985484
h     4.3204881    0.2460150    0.1121924  0.00   -0.0517147   -0.0231209   -0.0488002
h     3.7785721    1.9168016    0.3534822  0.00   -0.0041229   -0.0067843   -0.0046035
c     3.8953456    0.1530056   -2.6710448  0.00    0.0232959   -0.0270084   -0.2498492
n     5.6087603    1.7340831   -1.8129072  0.00    0.0729651    0.0039158   -0.0284572
h     3.5514599    2.2235262   -2.1826829  0.00    0.0127021    0.0005200   -0.0028079
h     5.6755696    2.7102417   -2.1616090  0.00   -0.0110136   -0.0109532    0.0103063
h     5.9792039    1.7862451   -0.8487071  0.00   -0.0170961    0.0018250   -0.0160541
h    -2.3235381    3.1202636   -0.0556151  0.00   -0.0010186    0.0002709    0.0002088
h    -2.1736327    0.6458163   -0.1723922  0.00   -0.0034713    0.0018868    0.0003273
h    -0.2749394    4.4915947   -0.0388381  0.00    0.0006532    0.0006776    0.0002737
h     1.9487438    3.4241132   -0.1205940  0.00    0.0005506    0.0022597    0.0004629
h     2.2364135   -1.6384532   -0.1128913  0.00    0.0497322    0.0828493   -0.0717894
o     4.0343761    0.1303452   -3.9380905  0.00   -0.0288467   -0.0097469    0.1958917
o     3.4260592   -0.9463628   -1.9869316  0.00   -0.0685686    0.0445052    0.1557822
h     3.1244356   -0.4828267   -1.1658912  0.00   -4.4337835    3.3041601    4.6950936
    27
 Energy =       1.3788969177
c    -1.3509498    2.6554130   -0.0988976  0.00   -0.0293196    0.0238792    0.0016901
c    -1.2822702    1.2753465   -0.1549793  0.00   -0.0534902   -0.0213720    0.0012681
c    -0.0312343    0.6952480   -0.1955400  0.00   -0.0506238   -0.1134152    0.0004512
c    -0.1977585    3.4183091   -0.0941990  0.00   -0.0142610    0.0436473    0.0017365
c     1.0496991    2.8118000   -0.1401543  0.00    0.0081059    0.0398596    0.0002799
c     1.1308388    1.4216241   -0.1844952  0.00    0.0358553    0.0337333    0.0000361
n     0.2941899   -0.6422546   -0.2983473  0.00    0.0794119    0.0611634   -0.0048257
c     2.2292224    0.5318677   -0.2200653  0.00    2.3184009   -2.6943852   -2.3633218
c     1.6893594   -0.6862311   -0.2597570  0.00    2.1098963    0.3507592   -1.4555888
h    -0.3617706   -1.4325146   -0.3546328  0.00    0.0173164    0.0245041    0.0003894
c     3.6481818    1.0536855   -0.3121509  0.00   -0.3227684   -0.7772183   -0.4649840
c     4.1663655    1.3619250   -1.7732656  0.00   -0.0640204   -0.0127476    0.0897327
h     4.2902054    0.2724499    0.1353184  0.00   -0.0469675   -0.0217921   -0.0442949
h     3.7554592    1.9529503    0.3211124  0.00   -0.0037663   -0.0056929   -0.0039321
c     4.0063507    0.0593604   -2.6251189  0.00    0.0180010   -0.0262465   -0.2246117
n     5.6080675    1.7780741   -1.7987142  0.00    0.0686316    0.0020995   -0.0256734
h     3.5382636    2.1397976   -2.2662488  0.00    0.0084863    0.0028675   -0.0041359
h     5.6372552    2.7507240   -2.1673923  0.00   -0.0097179   -0.0082909    0.0088946
h     5.9515771    1.8689871   -0.8246327  0.00   -0.0144603    0.0021742   -0.0127594
h    -2.3221317    3.1446371   -0.0643770  0.00   -0.0009358    0.0002496    0.0001894
h    -2.1845598    0.6710538   -0.1728588  0.00   -0.0031387    0.0016799    0.0002970
h    -0.2670197    4.5031677   -0.0532453  0.00    0.0005839    0.0006374    0.0002489
h     1.9471796    3.4235767   -0.1343401  0.00    0.0005965    0.0019885    0.0004193
h     2.2105941   -1.6280600   -0.1122726  0.00    0.0445263    0.0746716   -0.0640486
o     4.0919211   -0.0222876   -3.9087532  0.00   -0.0249616   -0.0087739    0.1723307
o     3.5848123   -1.0252012   -1.8838469  0.00   -0.0428513    0.0111408    0.1112419
h     3.1093763   -0.4773516   -1.1846423  0.00   -4.0285295    3.0148797    4.2789705
    27
 Energy =       1.3274466761
c    -1.3205041    2.6399156   -0.0746570  0.00   -0.0281419    0.0229007    0.0016189
c    -1.2571106    1.2607377   -0.1307516  0.00   -0.0513193   -0.0205103    0.0012113
c    -0.0097411    0.6762525   -0.1743571  0.00   -0.0485518   -0.1087688    0.0004155
c    -0.1647481    3.3973983   -0.0727412  0.00   -0.0136921    0.0418771    0.0016662
c     1.0790818    2.7857301   -0.1222534  0.00    0.0078447    0.0382141    0.0002365
c     1.1540478    1.3959863   -0.1673738  0.00    0.0344531    0.0323910   -0.0000291
n     0.3077003   -0.6627133   -0.2778786  0.00    0.0760373    0.0587090   -0.0046225
c     2.2497102    0.5041599   -0.2114527  0.00    2.2254494   -2.5862186   -2.2687561
c     1.7045188   -0.7092334   -0.2547419  0.00    2.0239038    0.3375570   -1.3961073
h    -0.3523410   -1.4510438   -0.3266145  0.00    0.0165684    0.0234611    0.0003773
c     3.6583709    1.0342727   -0.3109116  0.00   -0.3104471   -0.7448704   -0.4440237
c     4.1147789    1.3966200   -1.7729003  0.00   -0.0609024   -0.0104224    0.0860012
h     4.3335856    0.2549481    0.0966216  0.00   -0.0443846   -0.0220624   -0.0421419
h     3.7708632    1.9165675    0.3464310  0.00   -0.0036726   -0.0051240   -0.0034853
c     3.9146156    0.1402213   -2.6828800  0.00    0.0162588   -0.0245953   -0.2141497
n     5.5587999    1.8027301   -1.8300950  0.00    0.0660162    0.0008679   -0.0265041
h     3.4751414    2.2030107   -2.2057348  0.00    0.0066511    0.0042242   -0.0047192
h     5.5859252    2.7855172   -2.1732332  0.00   -0.0094426   -0.0073406    0.0082868
h     5.9426385    1.8580857   -0.8667573  0.00   -0.0129631    0.0021551   -0.0099976
h    -2.2896270    3.1330061   -0.0379043  0.00   -0.0009091    0.0002433    0.0001818
h    -2.1615301    0.6596347   -0.1464593  0.00   -0.0030178    0.0016044    0.0002845
h    -0.2293020    4.4825504   -0.0318613  0.00    0.0005593    0.0006223    0.0002390
h     1.9786992    3.3942428   -0.1199659  0.00    0.0006126    0.0018870    0.0003685
h     2.2187065   -1.6602478   -0.1248449  0.00    0.0430927    0.0713501   -0.0613833
o     4.0461728    0.1364656   -3.9716911  0.00   -0.0224607   -0.0080048    0.1604597
o     3.5009514   -0.9900512   -2.0010343  0.00   -0.0322519   -0.0044880    0.0874502
h     3.1318203   -0.5086670   -1.1804543  0.00   -3.8752905    2.9043416    4.1271223
    27
 Energy =       1.0837760687
c    -1.2468097    2.6267046   -0.0074813  0.00   -0.0210680    0.0167547    0.0011361
c    -1.2059618    1.2532620   -0.0638365  0.00   -0.0380095   -0.0153170    0.0007813
c     0.0228636    0.6493289   -0.1177566  0.00   -0.0355998   -0.0796235   -0.0000225
c    -0.0812151    3.3596045   -0.0156525  0.00   -0.0103341    0.0310228    0.0012088
c     1.1448469    2.7261120   -0.0776930  0.00    0.0065266    0.0280497   -0.0000097
c     1.1919295    1.3405626   -0.1243175  0.00    0.0254343    0.0241971   -0.0003391
n     0.2987640   -0.7007578   -0.2270559  0.00    0.0541582    0.0437998   -0.0028795
c     2.2745157    0.4465914   -0.1994547  0.00    1.7177233   -1.9963691   -1.7465300
c     1.7038521   -0.7594697   -0.2679535  0.00    1.5564418    0.2661580   -1.0740802
h    -0.3811815   -1.4799600   -0.2485667  0.00    0.0113938    0.0166717    0.0004324
c     3.6635727    1.0200313   -0.3410970  0.00   -0.2429261   -0.5642562   -0.3381385
c     4.0242581    1.4422158   -1.8063232  0.00   -0.0472610   -0.0077371    0.0628377
h     4.4034739    0.2707713    0.0206284  0.00   -0.0304969   -0.0179785   -0.0301331
h     3.7831098    1.8878649    0.3371378  0.00   -0.0033904   -0.0031688   -0.0024699
c     3.8300432    0.2247667   -2.7490317  0.00    0.0106756   -0.0163800   -0.1562093
n     5.4439854    1.9079836   -1.9052835  0.00    0.0512920   -0.0016110   -0.0241623
h     3.3313827    2.2385205   -2.1765442  0.00    0.0028224    0.0054962   -0.0043635
h     5.4271721    2.9046134   -2.2179808  0.00   -0.0073529   -0.0029472    0.0050465
h     5.8922951    1.9267404   -0.9634163  0.00   -0.0078219    0.0012281   -0.0029793
h    -2.2069201    3.1365749    0.0370476  0.00   -0.0008836    0.0002494    0.0001355
h    -2.1194244    0.6660433   -0.0725201  0.00   -0.0023515    0.0010505    0.0001989
h    -0.1252834    4.4459621    0.0242552  0.00    0.0003771    0.0006820    0.0001851
h     2.0523243    3.3217823   -0.0901080  0.00    0.0011618    0.0010277    0.0002033
h     2.1900005   -1.7368303   -0.1836337  0.00    0.0325808    0.0511451   -0.0458151
o     4.0144239    0.2933047   -4.0573191  0.00   -0.0141950   -0.0043413    0.1139459
o     3.4459324   -0.9559401   -2.1295198  0.00   -0.0193741   -0.0151134    0.0443798
h     3.1692745   -0.5802865   -1.2030200  0.00   -2.9895227    2.2373104    3.1976407
    27
 Energy =       0.8950276576
c    -1.1936397    2.6216410    0.1022308  0.00   -0.0154767    0.0121285    0.0006975
c    -1.1695949    1.2536637    0.0323678  0.00   -0.0276248   -0.0110475    0.0004136
c     0.0442605    0.6349877   -0.0440341  0.00   -0.0261460   -0.0561165    0.0001932
c    -0.0220393    3.3361848    0.0824906  0.00   -0.0077850    0.0225753    0.0007713
c     1.1894214    2.6880782   -0.0059522  0.00    0.0049969    0.0202207   -0.0001295
c     1.2173957    1.3059812   -0.0656925  0.00    0.0173707    0.0179390   -0.0003064
n     0.2833013   -0.7221976   -0.1918972  0.00    0.0374680    0.0316967   -0.0019547
c     2.2906120    0.4145860   -0.1925245  0.00    1.3034417   -1.5154354   -1.3204128
c     1.6909771   -0.7956319   -0.2954584  0.00    1.1770014    0.2012533   -0.8146513
h    -0.4127886   -1.4921295   -0.2017321  0.00    0.0078060    0.0118017    0.0003462
c     3.6751249    1.0346143   -0.3992121  0.00   -0.1816793   -0.4185290   -0.2547249
c     3.9627381    1.4592454   -1.8781665  0.00   -0.0371556   -0.0073529    0.0449627
h     4.4595711    0.3175648   -0.0615642  0.00   -0.0209266   -0.0135023   -0.0213785
h     3.8104685    1.9049818    0.2738154  0.00   -0.0027537   -0.0018634   -0.0016438
c     3.8115122    0.2278618   -2.7972928  0.00    0.0063487   -0.0115139   -0.1122701
n     5.3458222    2.0108134   -2.0146505  0.00    0.0420679   -0.0020004   -0.0185397
h     3.2099248    2.2087250   -2.2322026  0.00    0.0001686    0.0058261   -0.0042511
h     5.2684189    3.0087298   -2.3231905  0.00   -0.0054955    0.0008523    0.0024767
h     5.8402021    2.0371612   -1.0938000  0.00   -0.0045697    0.0008732   -0.0003171
h    -2.1464785    3.1433033    0.1644515  0.00   -0.0008757    0.0002953    0.0001012
h    -2.0899230    0.6775196    0.0272398  0.00   -0.0017735    0.0006859    0.0001248
h    -0.0509536    4.4227865    0.1306144  0.00    0.0002154    0.0006501    0.0001429
h     2.0991544    3.2782222   -0.0362009  0.00    0.0015096    0.0004368    0.0001190
h     2.1479848   -1.7959524   -0.2705189  0.00    0.0238595    0.0342926   -0.0330211
o     4.0203799    0.2856394   -4.1215918  0.00   -0.0096679   -0.0036598    0.0816672
o     3.4616332   -0.9642109   -2.1784040  0.00   -0.0141990   -0.0118591    0.0315007
h     3.1977393   -0.6260722   -1.2356211  0.00   -2.2661252    1.6913530    2.4200838
    27
 Energy =       0.8043765416
c    -1.1551601    2.6106703    0.2335430  0.00   -0.0130702    0.0102254    0.0005098
c    -1.1392045    1.2464436    0.1430445  0.00   -0.0231281   -0.0089290    0.0002800
c     0.0665503    0.6219606    0.0320896  0.00   -0.0223393   -0.0450082    0.0004665
c     0.0179855    3.3172167    0.1973247  0.00   -0.0068835    0.0189146    0.0006003
c     1.2212000    2.6642863    0.0707892  0.00    0.0042629    0.0166368   -0.0001544
c     1.2418492    1.2835086   -0.0090183  0.00    0.0131653    0.0153128   -0.0001171
n     0.2830887   -0.7345101   -0.1626061  0.00    0.0294556    0.0261056   -0.0015159
c     2.3095870    0.3957936   -0.1959875  0.00    1.0944769   -1.2733606   -1.1058934
c     1.6872418   -0.8144614   -0.3301626  0.00    0.9872088    0.1680625   -0.6839486
h    -0.4209741   -1.4993980   -0.1640447  0.00    0.0062717    0.0096506    0.0002890
c     3.6832376    1.0545018   -0.4674246  0.00   -0.1501938   -0.3461784   -0.2123510
c     3.9083785    1.4680402   -1.9594376  0.00   -0.0326640   -0.0071885    0.0368214
h     4.5019611    0.3650199   -0.1505294  0.00   -0.0162151   -0.0113710   -0.0170255
h     3.8357345    1.9298163    0.1950789  0.00   -0.0021949   -0.0013017   -0.0010580
c     3.8023393    0.2147886   -2.8504665  0.00    0.0037462   -0.0091592   -0.0908967
n     5.2554044    2.0922591   -2.1343071  0.00    0.0382910   -0.0022726   -0.0158682
h     3.1060030    2.1702045   -2.3045305  0.00   -0.0014917    0.0061802   -0.0044293
h     5.1219266    3.0814491   -2.4572966  0.00   -0.0047286    0.0033992    0.0010379
h     5.7794117    2.1521937   -1.2300480  0.00   -0.0025057    0.0009477    0.0011755
h    -2.1037514    3.1365937    0.3232046  0.00   -0.0010775    0.0004529    0.0001095
h    -2.0626754    0.6754713    0.1454208  0.00   -0.0015304    0.0005669    0.0000986
h    -0.0038028    4.4033486    0.2596776  0.00    0.0000847    0.0006728    0.0001372
h     2.1277770    3.2565980    0.0204683  0.00    0.0016744    0.0003010   -0.0000276
h     2.1183915   -1.8301896   -0.3666524  0.00    0.0201566    0.0254835   -0.0268076
o     4.0575598    0.2434594   -4.1773543  0.00   -0.0072255   -0.0038630    0.0654598
o     3.4789573   -0.9777840   -2.2173485  0.00   -0.0118503   -0.0104999    0.0258134
h     3.2222080   -0.6511839   -1.2699232  0.00   -1.9016956    1.4162198    2.0272945
    27
 Energy =       0.7538971499
c    -1.1254732    2.5949022    0.3622507  0.00   -0.0118385    0.0092535    0.0004324
c    -1.1129669    1.2338928    0.2502081  0.00   -0.0207916   -0.0076380    0.0002512
c     0.0874726    0.6090598    0.1014408  0.00   -0.0203433   -0.0387603    0.0006976
c     0.0464470    3.2991734    0.3080118  0.00   -0.0065538    0.0169954    0.0005477
c     1.2440267    2.6470093    0.1409365  0.00    0.0039143    0.0146058   -0.0001741
c     1.2626384    1.2672400    0.0395004  0.00    0.0106439    0.0138928    0.0000835
n     0.2885203   -0.7434170   -0.1365974  0.00    0.0246625    0.0230514   -0.0011695
c     2.3252825    0.3854386   -0.2059434  0.00    0.9719869   -1.1316307   -0.9803710
c     1.6858467   -0.8231319   -0.3652170  0.00    0.8770009    0.1487568   -0.6075239
h    -0.4190771   -1.5062401   -0.1295214  0.00    0.0054198    0.0084594    0.0002598
c     3.6840770    1.0761345   -0.5355363  0.00   -0.1315616   -0.3044699   -0.1876682
c     3.8615624    1.4726924   -2.0377110  0.00   -0.0303586   -0.0071152    0.0327909
h     4.5291678    0.4107889   -0.2341143  0.00   -0.0135619   -0.0101539   -0.0145633
h     3.8508097    1.9576206    0.1142325  0.00   -0.0016595   -0.0010401   -0.0006593
c     3.8084456    0.1968818   -2.9001030  0.00    0.0010859   -0.0078897   -0.0756177
n     5.1725183    2.1616658   -2.2426070  0.00    0.0361932   -0.0033062   -0.0146070
h     3.0178552    2.1272768   -2.3804146  0.00   -0.0027779    0.0065271   -0.0046269
h     4.9882127    3.1337425   -2.5964326  0.00   -0.0045523    0.0059302   -0.0001741
h     5.7075078    2.2733879   -1.3481297  0.00   -0.0005979    0.0013286    0.0028045
h    -2.0711683    3.1207220    0.4819577  0.00   -0.0013580    0.0006409    0.0001436
h    -2.0372600    0.6644149    0.2626123  0.00   -0.0014363    0.0005221    0.0000930
h     0.0276160    4.3844471    0.3861241  0.00   -0.0000317    0.0007326    0.0001474
h     2.1448144    3.2450130    0.0719663  0.00    0.0017206    0.0003393   -0.0001789
h     2.0932775   -1.8481645   -0.4606897  0.00    0.0183596    0.0200693   -0.0233590
o     4.1457081    0.1899282   -4.2169164  0.00   -0.0048189   -0.0045101    0.0527581
o     3.4953613   -0.9902196   -2.2513913  0.00   -0.0104451   -0.0097464    0.0224938
h     3.2400021   -0.6641626   -1.3044130  0.00   -1.6883008    1.2551555    1.7971893
    27
 Energy =       0.7313217286
c    -1.1101103    2.5792463    0.4573783  0.00   -0.0112782    0.0087804    0.0004108
c    -1.0974160    1.2205282    0.3298249  0.00   -0.0197244   -0.0070032    0.0002607
c     0.1001835    0.5987816    0.1514926  0.00   -0.0193721   -0.0359182    0.0008037
c     0.0589695    3.2851490    0.3883094  0.00   -0.0064091    0.0161012    0.0005417
c     1.2533967    2.6369572    0.1899618  0.00    0.0037760    0.0136266   -0.0001963
c     1.2734255    1.2579911    0.0723521  0.00    0.0094878    0.0131863    0.0001873
n     0.2929308   -0.7493860   -0.1160406  0.00    0.0223024    0.0216990   -0.0009505
c     2.3322092    0.3827984   -0.2163199  0.00    0.9115598   -1.0617378   -0.9186800
c     1.6830143   -0.8246999   -0.3905288  0.00    0.8230677    0.1394440   -0.5699552
h    -0.4148590   -1.5125329   -0.1012455  0.00    0.0050070    0.0078896    0.0002500
c     3.6772626    1.0958784   -0.5886698  0.00   -0.1223932   -0.2843651   -0.1756429
c     3.8318955    1.4718910   -2.0980932  0.00   -0.0296784   -0.0069175    0.0317205
h     4.5385466    0.4490334   -0.2921936  0.00   -0.0123890   -0.0095752   -0.0134590
h     3.8509037    1.9845537    0.0481412  0.00   -0.0012859   -0.0009042   -0.0004858
c     3.8392549    0.1749266   -2.9320583  0.00   -0.0032670   -0.0071210   -0.0611764
n     5.1112396    2.2147318   -2.3170142  0.00    0.0347240   -0.0066701   -0.0152202
h     2.9581404    2.0820491   -2.4495150  0.00   -0.0037453    0.0068496   -0.0048299
h     4.8874157    3.1586283   -2.7269710  0.00   -0.0052728    0.0095387   -0.0018733
h     5.6287721    2.3997940   -1.4213757  0.00    0.0021022    0.0023138    0.0062690
h    -2.0542697    3.1023302    0.6005846  0.00   -0.0015254    0.0007430    0.0001710
h    -2.0207802    0.6498069    0.3515958  0.00   -0.0014145    0.0005031    0.0000953
h     0.0399786    4.3695648    0.4782812  0.00   -0.0000913    0.0007628    0.0001557
h     2.1480297    3.2414874    0.1075020  0.00    0.0016996    0.0004115   -0.0002672
h     2.0726657   -1.8533985   -0.5310980  0.00    0.0176149    0.0174781   -0.0217893
o     4.3044612    0.1280057   -4.2185954  0.00   -0.0004591   -0.0055944    0.0382979
o     3.5092491   -1.0011321   -2.2717941  0.00   -0.0097341   -0.0094886    0.0211245
h     3.2467151   -0.6668866   -1.3304072  0.00   -1.5833019    1.1759673    1.6842381
    27
 Energy =       0.7175310517
c    -1.0962835    2.5792728    0.4716314  0.00   -0.0109469    0.0085360    0.0003988
c    -1.0866224    1.2213877    0.3378883  0.00   -0.0191431   -0.0068006    0.0002527
c     0.1089156    0.5981056    0.1538418  0.00   -0.0187896   -0.0348355    0.0007873
c     0.0739173    3.2829331    0.4031201  0.00   -0.0062295    0.0156355    0.0005256
c     1.2662415    2.6332414    0.1991442  0.00    0.0036685    0.0132312   -0.0001931
c     1.2829942    1.2550318    0.0748770  0.00    0.0092030    0.0127905    0.0001797
n     0.2975124   -0.7493101   -0.1209858  0.00    0.0216412    0.0210226   -0.0009298
c     2.3391306    0.3796863   -0.2208560  0.00    0.8848199   -1.0305811   -0.8917932
c     1.6870280   -0.8257364   -0.3988963  0.00    0.7987968    0.1353782   -0.5531651
h    -0.4118731   -1.5112418   -0.1080553  0.00    0.0048543    0.0076483    0.0002418
c     3.6836012    1.0928958   -0.5921170  0.00   -0.1189223   -0.2760287   -0.1701913
c     3.8211369    1.4796936   -2.1002708  0.00   -0.0291775   -0.0062751    0.0313337
h     4.5471145    0.4441849   -0.3053805  0.00   -0.0119498   -0.0093183   -0.0130672
h     3.8629677    1.9784861    0.0476902  0.00   -0.0012304   -0.0008170   -0.0004690
c     3.7960579    0.1934887   -2.9489012  0.00   -0.0052271   -0.0066360   -0.0514637