    13
 Energy =       0.0951586442
c    -3.7133889    1.6950595    0.3173519  0.00   -0.1082804    0.0699526    0.0646542
c    -2.4962693    2.6345192    0.2419999  0.00    0.3754045   -0.0252549   -0.1510515
c    -4.9565486    2.3924193   -0.2155699  0.00    0.0250592    0.0069986    0.0063870
h    -5.2099685    3.2528291    0.4143399  0.00    0.0030014   -0.0139875   -0.0108830
h    -5.8205883    1.7190695   -0.2147749  0.00    0.0112778    0.0107494   -0.0020781
h    -4.8083986    2.7651692   -1.2348596  0.00   -0.0079673   -0.0018762    0.0170357
n    -3.4097890    0.4519539   -0.4549189  0.00    0.0313617   -0.0647005   -0.0104518
h    -3.8575589    1.4177196    1.3669296  0.00    0.0047583   -0.0133519   -0.0262689
h    -3.2072391   -0.2948399    0.2179739  0.00   -0.0178241    0.0289596   -0.0187097
h    -4.2689788    0.1396900   -0.9176007  0.00    0.0230347    0.0212984    0.0246285
o    -1.4178396    2.3555893   -0.2533479  0.00   -0.2710103    0.0650239    0.1196003
o    -2.7764392    3.8468189    0.7908148  0.00   -0.0459453   -0.0453880   -0.0067556
h    -1.9782694    4.4042887    0.6111318  0.00   -0.0228702   -0.0384237   -0.0061071
    13
 Energy =       0.0799008535
c    -3.7223610    1.6952847    0.3329567  0.00   -0.0827511    0.0543583    0.0502368
c    -2.5164616    2.6426672    0.2677747  0.00    0.2883690   -0.0200026   -0.1156822
c    -4.9608144    2.3803498   -0.2389505  0.00    0.0248004    0.0035764    0.0079001
h    -5.2976661    3.1748057    0.4542399  0.00    0.0011853   -0.0060371   -0.0025416
h    -5.7994666    1.6685517   -0.3735281  0.00    0.0016975    0.0015631   -0.0030592
h    -4.7399624    2.8575469   -1.2140589  0.00   -0.0028182    0.0019253    0.0058229
n    -3.4030378    0.4444270   -0.4134512  0.00    0.0260508   -0.0495560   -0.0078277
h    -3.8909270    1.4421661    1.3898153  0.00    0.0034295   -0.0102517   -0.0197753
h    -3.2043813   -0.2968386    0.2743518  0.00   -0.0137193    0.0222617   -0.0140668
h    -4.2385285    0.1160198   -0.9190800  0.00    0.0160232    0.0160137    0.0178209
o    -1.4099454    2.3430230   -0.2526462  0.00   -0.2088425    0.0496643    0.0914169
o    -2.7721848    3.8823688    0.7820410  0.00   -0.0363281   -0.0341256   -0.0051018
h    -1.9655395    4.4299141    0.5800055  0.00   -0.0170964   -0.0293898   -0.0051430
    13
 Energy =       0.0694277506
c    -3.7117513    1.6987343    0.3270206  0.00   -0.0629516    0.0415714    0.0389250
c    -2.5317378    2.6726243    0.2420408  0.00    0.2213526   -0.0150225   -0.0887752
c    -4.9852700    2.3507768   -0.2121002  0.00    0.0230360    0.0021136    0.0095335
h    -5.2626760    3.2161543    0.4311016  0.00    0.0009078   -0.0006961    0.0017535
h    -5.8374249    1.6294481   -0.2147749  0.00   -0.0048883   -0.0044147   -0.0021958
h    -4.8261866    2.7280722   -1.2506615  0.00   -0.0005833    0.0037142   -0.0034482
n    -3.3934692    0.4542984   -0.4236759  0.00    0.0203983   -0.0377053   -0.0057368
h    -3.8482391    1.4515341    1.3939943  0.00    0.0025821   -0.0080482   -0.0146712
h    -3.1894028   -0.2975220    0.2567775  0.00   -0.0105534    0.0169326   -0.0107441
h    -4.2200256    0.1274699   -0.9533845  0.00    0.0119433    0.0121381    0.0131928
o    -1.3961894    2.3740474   -0.2916522  0.00   -0.1601628    0.0382408    0.0700907
o    -2.7734999    3.9183281    0.7626687  0.00   -0.0295893   -0.0271407   -0.0039929
h    -1.9454038    4.4563205    0.6021157  0.00   -0.0114914   -0.0216832   -0.0039313
    13
 Energy =       0.0566204054
c    -3.6937869    1.7029086    0.3290344  0.00   -0.0121906    0.0079085    0.0089374
c    -2.5648939    2.7259667    0.2156419  0.00    0.0490329   -0.0027356   -0.0176110
c    -5.0272623    2.2896076   -0.1696252  0.00    0.0066780    0.0022651    0.0052271
h    -5.2835631    3.2008847    0.4207758  0.00    0.0006987    0.0018536    0.0021853
h    -5.8546847    1.5461337   -0.0560218  0.00   -0.0060733   -0.0056614   -0.0003563
h    -4.9423025    2.5834853   -1.2461610  0.00    0.0003408    0.0027422   -0.0069947
n    -3.3704734    0.4634518   -0.4116059  0.00    0.0101116   -0.0059419    0.0028679
h    -3.7852626    1.4827731    1.4170010  0.00    0.0008642   -0.0021288   -0.0019541
h    -3.1865182   -0.3104150    0.2654076  0.00   -0.0028657    0.0030611   -0.0017926
h    -4.1568730    0.1445008   -1.0275561  0.00   -0.0022211    0.0005832   -0.0020480
o    -1.3608387    2.4170214   -0.3586052  0.00   -0.0351892    0.0089465    0.0145698
o    -2.7672829    3.9986593    0.7264765  0.00   -0.0070385   -0.0054456   -0.0018534
h    -1.9275343    4.5353084    0.5647078  0.00   -0.0021478   -0.0054468   -0.0011775
    13
 Energy =       0.0561260989
c    -3.6812723    1.7177502    0.3465302  0.00   -0.0027438    0.0028895    0.0028347
c    -2.5812853    2.7640929    0.1782378  0.00    0.0104177    0.0001674   -0.0031409
c    -5.0355266    2.2395303   -0.1738662  0.00    0.0013866    0.0000125    0.0009101
h    -5.3128818    3.1789955    0.3602688  0.00    0.0000085    0.0021808    0.0014868
h    -5.8367423    1.4845991   -0.0051696  0.00   -0.0023652   -0.0026046   -0.0002510
h    -4.9695739    2.4676983   -1.2639233  0.00   -0.0001424    0.0014794   -0.0035820
n    -3.3341490    0.4436636   -0.3226521  0.00    0.0061964   -0.0004792   -0.0028564
h    -3.7616785    1.5620993    1.4496090  0.00    0.0004219   -0.0006304    0.0017608
h    -3.2271852   -0.3154447    0.3950592  0.00    0.0002695   -0.0035599    0.0045596
h    -4.0700966    0.1269432   -1.0021839  0.00   -0.0047574   -0.0004446   -0.0038116
o    -1.3627314    2.4518162   -0.4060339  0.00   -0.0069339    0.0019305    0.0028555
o    -2.7884939    4.0548791    0.6522352  0.00   -0.0019487   -0.0005231   -0.0002592
h    -1.9596595    4.6036633    0.4613585  0.00    0.0001908   -0.0004182   -0.0005065
    13
 Energy =       0.0560359132
c    -3.6759555    1.7203585    0.3461543  0.00    0.0004390   -0.0004779    0.0000365
c    -2.5907535    2.7793434    0.1774144  0.00   -0.0023373    0.0003063    0.0004506
c    -5.0399273    2.2169085   -0.1691188  0.00   -0.0001371    0.0001766    0.0000648
h    -5.3239872    3.1626748    0.3449975  0.00    0.0000208   -0.0000355    0.0000067
h    -5.8277652    1.4591455    0.0270338  0.00   -0.0000526   -0.0000782   -0.0000102
h    -4.9881468    2.4189512   -1.2614006  0.00    0.0000533    0.0000345   -0.0000256
n    -3.3122900    0.4521257   -0.3180457  0.00    0.0008776    0.0012399    0.0004188
h    -3.7521702    1.5673913    1.4480851  0.00   -0.0000533    0.0000360   -0.0001656
h    -3.2424747   -0.3149236    0.3913716  0.00    0.0003062   -0.0003233    0.0005525
h    -4.0123242    0.1473905   -1.0361963  0.00   -0.0013105   -0.0006885   -0.0010106
o    -1.3438289    2.4647088   -0.3579765  0.00    0.0024799   -0.0010741   -0.0007888
o    -2.8213025    4.0769313    0.6241647  0.00   -0.0005691    0.0007213    0.0005270
h    -1.9903503    4.6292804    0.4529865  0.00    0.0002829    0.0001631   -0.0000562
    13
 Energy =       0.0560383487
c    -3.6751630    1.7190351    0.3448670  0.00    0.0003951   -0.0004123    0.0000384
c    -2.5903252    2.7787395    0.1779674  0.00   -0.0021073    0.0002780    0.0004053
c    -5.0405247    2.2177655   -0.1646749  0.00   -0.0001312    0.0001583    0.0000611
h    -5.3232156    3.1614183    0.3540871  0.00    0.0000141   -0.0000207    0.0000119
h    -5.8278678    1.4592369    0.0304496  0.00   -0.0000476   -0.0000715   -0.0000082
h    -4.9916632    2.4243595   -1.2562466  0.00    0.0000476    0.0000341   -0.0000372
n    -3.3131665    0.4538207   -0.3260549  0.00    0.0008072    0.0011067    0.0003519
h    -3.7484940    1.5611000    1.4463155  0.00   -0.0000484    0.0000312   -0.0001326
h    -3.2393936   -0.3159782    0.3799480  0.00    0.0002789   -0.0003107    0.0005178
h    -4.0160289    0.1512203   -1.0422018  0.00   -0.0011876   -0.0006227   -0.0009208
o    -1.3423204    2.4647174   -0.3548559  0.00    0.0022371   -0.0009669   -0.0007119
o    -2.8220336    4.0760482    0.6248070  0.00   -0.0005141    0.0006488    0.0004753
h    -1.9910798    4.6288030    0.4550623  0.00    0.0002562    0.0001477   -0.0000509
    13
 Energy =       0.0560402365
c    -3.6744791    1.7179155    0.3437772  0.00    0.0003556   -0.0003581    0.0000386
c    -2.5899480    2.7782188    0.1783918  0.00   -0.0018996    0.0002520    0.0003647
c    -5.0410334    2.2184740   -0.1608200  0.00   -0.0001239    0.0001421    0.0000570
h    -5.3225232    3.1603218    0.3618782  0.00    0.0000092   -0.0000104    0.0000149
h    -5.8279509    1.4593043    0.0334764  0.00   -0.0000431   -0.0000651   -0.0000066
h    -4.9947045    2.4289190   -1.2517691  0.00    0.0000425    0.0000330   -0.0000437
n    -3.3139481    0.4552949   -0.3328622  0.00    0.0007394    0.0009895    0.0002983
h    -3.7453094    1.5557584    1.4447927  0.00   -0.0000438    0.0000271   -0.0001073
h    -3.2367079   -0.3168110    0.3702131  0.00    0.0002536   -0.0002943    0.0004813
h    -4.0192748    0.1544579   -1.0471968  0.00   -0.0010751   -0.0005627   -0.0008371
o    -1.3409671    2.4646384   -0.3520320  0.00    0.0020176   -0.0008706   -0.0006425
o    -2.8226984    4.0753582    0.6250709  0.00   -0.0004642    0.0005837    0.0004286
h    -1.9917314    4.6284361    0.4565495  0.00    0.0002317    0.0001336   -0.0000461
    13
 Energy =       0.0560416915
c    -3.6738937    1.7169633    0.3428491  0.00    0.0003201   -0.0003128    0.0000378
c    -2.5896165    2.7777650    0.1787361  0.00   -0.0017122    0.0002282    0.0003283
c    -5.0414645    2.2190700   -0.1574923  0.00   -0.0001158    0.0001276    0.0000528
h    -5.3219044    3.1593721    0.3685529  0.00    0.0000058   -0.0000034    0.0000166
h    -5.8280212    1.4593635    0.0361203  0.00   -0.0000389   -0.0000591   -0.0000054
h    -4.9973196    2.4327889   -1.2478953  0.00    0.0000380    0.0000313   -0.0000468
n    -3.3146438    0.4565772   -0.3386705  0.00    0.0006750    0.0008861    0.0002548
h    -3.7425691    1.5512013    1.4434767  0.00   -0.0000396    0.0000237   -0.0000878
h    -3.2343732   -0.3174758    0.3618867  0.00    0.0002301   -0.0002758    0.0004445
h    -4.0221120    0.1572073   -1.0513821  0.00   -0.0009723   -0.0005080   -0.0007597
o    -1.3397631    2.4645067   -0.3494855  0.00    0.0018193   -0.0007839   -0.0005797
o    -2.8232922    4.0748051    0.6251199  0.00   -0.0004190    0.0005253    0.0003864
h    -1.9923030    4.6281418    0.4576539  0.00    0.0002094    0.0001207   -0.0000417
    13
 Energy =       0.0560428108
c    -3.6733945    1.7161491    0.3420541  0.00    0.0002881   -0.0002745    0.0000363
c    -2.5893250    2.7773666    0.1790278  0.00   -0.0015430    0.0002065    0.0002956
c    -5.0418297    2.2195782   -0.1546243  0.00   -0.0001074    0.0001147    0.0000485
h    -5.3213527    3.1585525    0.3742786  0.00    0.0000034    0.0000013    0.0000172
h    -5.8280826    1.4594216    0.0384125  0.00   -0.0000351   -0.0000536   -0.0000045
h    -4.9995635    2.4360943   -1.2445479  0.00    0.0000340    0.0000294   -0.0000476
n    -3.3152620    0.4576940   -0.3436481  0.00    0.0006146    0.0007942    0.0002192
h    -3.7402178    1.5472944    1.4423347  0.00   -0.0000357    0.0000209   -0.0000725
h    -3.2323438   -0.3180121    0.3547357  0.00    0.0002086   -0.0002564    0.0004085
h    -4.0245912    0.1595532   -1.0549141  0.00   -0.0008786   -0.0004583   -0.0006885
o    -1.3386971    2.4643460   -0.3471958  0.00    0.0016402   -0.0007059   -0.0005229
o    -2.8238171    4.0743518    0.6250521  0.00   -0.0003781    0.0004727    0.0003484
h    -1.9927994    4.6278969    0.4585042  0.00    0.0001891    0.0001090   -0.0000377
    13
 Energy =       0.0560436722
c    -3.6729690    1.7154494    0.3413695  0.00    0.0002593   -0.0002418    0.0000344
c    -2.5890687    2.7770149    0.1792831  0.00   -0.0013903    0.0001867    0.0002662
c    -5.0421394    2.2200165   -0.1521516  0.00   -0.0000991    0.0001031    0.0000445
h    -5.3208617    3.1578458    0.3792019  0.00    0.0000017    0.0000043    0.0000172
h    -5.8281375    1.4594812    0.0403926  0.00   -0.0000317   -0.0000485   -0.0000038
h    -5.0014894    2.4389337   -1.2416540  0.00    0.0000305    0.0000274   -0.0000469
n    -3.3158111    0.4586684   -0.3479322  0.00    0.0005585    0.0007125    0.0001897
h    -3.7382008    1.5439290    1.4413402  0.00   -0.0000322    0.0000184   -0.0000605
h    -3.2305775   -0.3184488    0.3485687  0.00    0.0001888   -0.0002369    0.0003741
h    -4.0267591    0.1615645   -1.0579145  0.00   -0.0007935   -0.0004133   -0.0006232
o    -1.3377557    2.4641718   -0.3451411  0.00    0.0014784   -0.0006356   -0.0004716
o    -2.8242783    4.0739728    0.6249257  0.00   -0.0003411    0.0004255    0.0003140
h    -1.9932282    4.6276872    0.4591816  0.00    0.0001707    0.0000983   -0.0000341
    13
 Energy =       0.0560443362
c    -3.6726061    1.7148453    0.3407770  0.00    0.0002334   -0.0002137    0.0000323
c    -2.5888430    2.7767032    0.1795110  0.00   -0.0012525    0.0001686    0.0002397
c    -5.0424027    2.2203977   -0.1500166  0.00   -0.0000909    0.0000927    0.0000406
h    -5.3204250    3.1572362    0.3834475  0.00    0.0000006    0.0000063    0.0000168
h    -5.8281873    1.4595428    0.0421016  0.00   -0.0000286   -0.0000439   -0.0000032
h    -5.0031449    2.4413855   -1.2391483  0.00    0.0000273    0.0000253   -0.0000452
n    -3.3162987    0.4595204   -0.3516352  0.00    0.0005066    0.0006396    0.0001651
h    -3.7364685    1.5410172    1.4404710  0.00   -0.0000291    0.0000162   -0.0000508
h    -3.2290370   -0.3188077    0.3432290  0.00    0.0001708   -0.0002179    0.0003415
h    -4.0286576    0.1632965   -1.0604789  0.00   -0.0007162   -0.0003726   -0.0005636
o    -1.3369254    2.4639943   -0.3433000  0.00    0.0013323   -0.0005723   -0.0004252
o    -2.8246823    4.0736511    0.6247743  0.00   -0.0003077    0.0003829    0.0002830
h    -1.9935979    4.6275038    0.4597374  0.00    0.0001540    0.0000887   -0.0000308
    13
 Energy =       0.0560439253
c    -3.6610764    1.7057494    0.3324582  0.00   -0.0001148    0.0012469    0.0003023
c    -2.5870337    2.7776012    0.1677709  0.00    0.0016079   -0.0003551   -0.0005248
c    -5.0502504    2.2185157   -0.0971764  0.00   -0.0008184    0.0000087    0.0002757
h    -5.3146155    3.1395755    0.4709792  0.00   -0.0003803    0.0006133    0.0003706
h    -5.8261076    1.4491784    0.1011556  0.00   -0.0000785    0.0000364    0.0001117
h    -5.0493838    2.4697137   -1.1814085  0.00   -0.0000803    0.0002364   -0.0010622
n    -3.3209144    0.4748090   -0.4127766  0.00    0.0012415   -0.0004846   -0.0022397
h    -3.6872908    1.4962970    1.4287450  0.00    0.0000199   -0.0002014    0.0013892
h    -3.1796325   -0.3196190    0.2564147  0.00    0.0002734   -0.0018137    0.0017280
h    -4.0673788    0.1835054   -1.0872757  0.00   -0.0003151    0.0003571   -0.0005801
o    -1.3234260    2.4672896   -0.3228183  0.00   -0.0013690    0.0005033    0.0003067
o    -2.8409916    4.0793005    0.5878723  0.00    0.0002131   -0.0000573   -0.0001183
h    -2.0131749    4.6383701    0.4255293  0.00   -0.0001996   -0.0000900    0.0000409
    13
 Energy =       0.0560418409
c    -3.6668561    1.7051832    0.3335474  0.00   -0.0002571    0.0023802    0.0006251
c    -2.5842386    2.7711143    0.1840132  0.00    0.0022157   -0.0006682   -0.0007549
c    -5.0484779    2.2265787   -0.1146541  0.00   -0.0016553    0.0000782    0.0005410
h    -5.3152140    3.1504615    0.4490661  0.00   -0.0007419    0.0011794    0.0007081
h    -5.8316802    1.4624696    0.0752939  0.00   -0.0002122    0.0000308    0.0002319
h    -5.0324539    2.4763784   -1.2001193  0.00   -0.0001393    0.0004779   -0.0021282
n    -3.3223938    0.4730048   -0.4100354  0.00    0.0023488   -0.0009387   -0.0042767
h    -3.7089022    1.4939889    1.4302617  0.00    0.0000184   -0.0004071    0.0027574
h    -3.1777153   -0.3201526    0.2620491  0.00    0.0005311   -0.0034565    0.0032908
h    -4.0691791    0.1786616   -1.0832355  0.00   -0.0005972    0.0006595   -0.0011119
o    -1.3056318    2.4470196   -0.2570477  0.00   -0.0009844    0.0003684   -0.0000570
o    -2.8467227    4.0811930    0.5729826  0.00   -0.0004496    0.0003820    0.0001827
h    -2.0118107    4.6343854    0.4273479  0.00   -0.0000771   -0.0000858   -0.0000083
    13
 Energy =       0.0560430507
c    -3.6660478    1.7053689    0.3334304  0.00   -0.0002330    0.0021425    0.0005650
c    -2.5849503    2.7724759    0.1819260  0.00    0.0019591   -0.0006041   -0.0006711
c    -5.0486204    2.2249112   -0.1130310  0.00   -0.0014911    0.0000722    0.0004865
h    -5.3156303    3.1483702    0.4509888  0.00   -0.0006678    0.0010618    0.0006372
h    -5.8306146    1.4597903    0.0777741  0.00   -0.0001921    0.0000268    0.0002091
h    -5.0341996    2.4747135   -1.1983143  0.00   -0.0001250    0.0004305   -0.0019166
n    -3.3214946    0.4731984   -0.4096251  0.00    0.0021142   -0.0008428   -0.0038499
h    -3.7063533    1.4948713    1.4300938  0.00    0.0000163   -0.0003669    0.0024831
h    -3.1789403   -0.3201426    0.2622547  0.00    0.0004797   -0.0031132    0.0029641
h    -4.0670494    0.1795830   -1.0844303  0.00   -0.0005403    0.0005923   -0.0010030
o    -1.3089583    2.4513122   -0.2690602  0.00   -0.0008220    0.0003052   -0.0000762
o    -2.8460281    4.0807102    0.5779083  0.00   -0.0004375    0.0003709    0.0001817
h    -2.0123894    4.6351238    0.4295545  0.00   -0.0000603   -0.0000751   -0.0000101
    13
 Energy =       0.0560440015
c    -3.6653684    1.7055413    0.3333012  0.00   -0.0002110    0.0019286    0.0005105
c    -2.5855969    2.7736698    0.1801240  0.00    0.0017333   -0.0005467   -0.0005969
c    -5.0487332    2.2234692   -0.1117091  0.00   -0.0013429    0.0000663    0.0004376
h    -5.3159908    3.1465671    0.4525461  0.00   -0.0006011    0.0009558    0.0005734
h    -5.8296866    1.4574776    0.0798215  0.00   -0.0001738    0.0000234    0.0001885
h    -5.0356635    2.4732480   -1.1968314  0.00   -0.0001123    0.0003878   -0.0017257
n    -3.3207111    0.4733693   -0.4092542  0.00    0.0019029   -0.0007571   -0.0034656
h    -3.7042101    1.4956704    1.4299122  0.00    0.0000145   -0.0003306    0.0022359
h    -3.1800296   -0.3201095    0.2624591  0.00    0.0004330   -0.0028037    0.0026695
h    -4.0651718    0.1803609   -1.0854616  0.00   -0.0004884    0.0005322   -0.0009044
o    -1.3120993    2.4551997   -0.2799930  0.00   -0.0006857    0.0002520   -0.0000901
o    -2.8452531    4.0801598    0.5826661  0.00   -0.0004216    0.0003580    0.0001787
h    -2.0127617    4.6356628    0.4318889  0.00   -0.0000469   -0.0000660   -0.0000113
    13
 Energy =       0.0560447395
c    -3.6647955    1.7057015    0.3331698  0.00   -0.0001909    0.0017360    0.0004611
c    -2.5861835    2.7747199    0.1785683  0.00    0.0015351   -0.0004950   -0.0005314
c    -5.0488225    2.2222154   -0.1106334  0.00   -0.0012093    0.0000606    0.0003936
h    -5.3163089    3.1450049    0.4538034  0.00   -0.0005410    0.0008604    0.0005160
h    -5.8288758    1.4554706    0.0815107  0.00   -0.0001571    0.0000205    0.0001698
h    -5.0368906    2.4719515   -1.1956133  0.00   -0.0001009    0.0003493   -0.0015537
n    -3.3200221    0.4735197   -0.4089103  0.00    0.0017126   -0.0006803   -0.0031196
h    -3.7024063    1.4963969    1.4297292  0.00    0.0000130   -0.0002978    0.0020130
h    -3.1810013   -0.3200607    0.2626699  0.00    0.0003907   -0.0025247    0.0024040
h    -4.0635031    0.1810189   -1.0863521  0.00   -0.0004412    0.0004783   -0.0008153
o    -1.3150307    2.4587116   -0.2898684  0.00   -0.0005721    0.0002077   -0.0000994
o    -2.8444484    4.0795810    0.5871629  0.00   -0.0004024    0.0003430    0.0001738
h    -2.0129877    4.6360552    0.4342331  0.00   -0.0000364   -0.0000581   -0.0000119
    13
 Energy =       0.0560453031
c    -3.6643106    1.7058501    0.3330426  0.00   -0.0001726    0.0015627    0.0004163
c    -2.5867142    2.7756458    0.1772242  0.00    0.0013612   -0.0004482   -0.0004734
c    -5.0488931    2.2211200   -0.1097571  0.00   -0.0010888    0.0000553    0.0003540
h    -5.3165933    3.1436451    0.4548176  0.00   -0.0004868    0.0007745    0.0004643
h    -5.8281651    1.4537205    0.0829062  0.00   -0.0001418    0.0000181    0.0001530
h    -5.0379201    2.4708006   -1.1946109  0.00   -0.0000907    0.0003145   -0.0013988
n    -3.3194120    0.4736518   -0.4085868  0.00    0.0015413   -0.0006115   -0.0028081
h    -3.7008845    1.4970586    1.4295526  0.00    0.0000116   -0.0002683    0.0018123
h    -3.1818703   -0.3200016    0.2628883  0.00    0.0003524   -0.0022733    0.0021648
h    -4.0620119    0.1815772   -1.0871217  0.00   -0.0003984    0.0004300   -0.0007348
o    -1.3177390    2.4618753   -0.2987333  0.00   -0.0004781    0.0001711   -0.0001047
o    -2.8436497    4.0790020    0.5913423  0.00   -0.0003810    0.0003263    0.0001673
h    -2.0131125    4.6363410    0.4365058  0.00   -0.0000281   -0.0000513   -0.0000122
    13
 Energy =       0.0560457257
c    -3.6638985    1.7059874    0.3329235  0.00   -0.0001559    0.0014066    0.0003758
c    -2.5871934    2.7764637    0.1760611  0.00    0.0012085   -0.0004057   -0.0004221
c    -5.0489491    2.2201592   -0.1090408  0.00   -0.0009803    0.0000504    0.0003184
h    -5.3168497    3.1424566    0.4556372  0.00   -0.0004381    0.0006972    0.0004179
h    -5.8275402    1.4521878    0.0840623  0.00   -0.0001280    0.0000160    0.0001378
h    -5.0387859    2.4697765   -1.1937830  0.00   -0.0000815    0.0002832   -0.0012592
n    -3.3188692    0.4737679   -0.4082810  0.00    0.0013871   -0.0005497   -0.0025277
h    -3.6995965    1.4976615    1.4293867  0.00    0.0000104   -0.0002416    0.0016314
h    -3.1826488   -0.3199365    0.2631119  0.00    0.0003178   -0.0020469    0.0019492
h    -4.0606746    0.1820526   -1.0877875  0.00   -0.0003596    0.0003866   -0.0006622
o    -1.3202207    2.4647177   -0.3066529  0.00   -0.0004005    0.0001411   -0.0001068
o    -2.8428808    4.0784418    0.5951772  0.00   -0.0003581    0.0003082    0.0001596
h    -2.0131690    4.6365502    0.4386552  0.00   -0.0000217   -0.0000454   -0.0000121
    13
 Energy =       0.0560460370
c    -3.6635465    1.7061140    0.3328142  0.00   -0.0001408    0.0012661    0.0003391
c    -2.5876250    2.7771874    0.1750524  0.00    0.0010743   -0.0003671   -0.0003767
c    -5.0489935    2.2193135   -0.1084524  0.00   -0.0008825    0.0000458    0.0002864
h    -5.3170820    3.1414138    0.4563020  0.00   -0.0003943    0.0006275    0.0003761
h    -5.8269892    1.4508406    0.0850242  0.00   -0.0001155    0.0000142    0.0001241
h    -5.0395166    2.4688638   -1.1930956  0.00   -0.0000733    0.0002549   -0.0011335
n    -3.3183850    0.4738702   -0.4079919  0.00    0.0012483   -0.0004942   -0.0022753
h    -3.6985017    1.4982102    1.4292336  0.00    0.0000093   -0.0002175    0.0014686
h    -3.1833471   -0.3198687    0.2633370  0.00    0.0002866   -0.0018429    0.0017550
h    -4.0594732    0.1824593   -1.0883647  0.00   -0.0003245    0.0003477   -0.0005966
o    -1.3224798    2.4672656   -0.3137037  0.00   -0.0003365    0.0001166   -0.0001063
o    -2.8421561    4.0779123    0.5986626  0.00   -0.0003345    0.0002892    0.0001510
h    -2.0131807    4.6367044    0.4406522  0.00   -0.0000166   -0.0000403   -0.0000118
    13
 Energy =       0.0560462621
c    -3.6632443    1.7062301    0.3327152  0.00   -0.0001270    0.0011396    0.0003059
c    -2.5880132    2.7778287    0.1741755  0.00    0.0009563   -0.0003320   -0.0003365
c    -5.0490289    2.2185669   -0.1079662  0.00   -0.0007944    0.0000416    0.0002576
h    -5.3172927    3.1404957    0.4568442  0.00   -0.0003548    0.0005648    0.0003384
h    -5.8265023    1.4496527    0.0858286  0.00   -0.0001041    0.0000126    0.0001117
h    -5.0401359    2.4680497   -1.1925211  0.00   -0.0000659    0.0002295   -0.0010203
n    -3.3179521    0.4739604   -0.4077197  0.00    0.0011235   -0.0004444   -0.0020480
h    -3.6975668    1.4987089    1.4290941  0.00    0.0000084   -0.0001959    0.0013219
h    -3.1839741   -0.3198004    0.2635594  0.00    0.0002583   -0.0016592    0.0015801
h    -4.0583929    0.1828089   -1.0888661  0.00   -0.0002927    0.0003127   -0.0005375
o    -1.3245259    2.4695456   -0.3199668  0.00   -0.0002839    0.0000966   -0.0001039
o    -2.8414833    4.0774199    0.6018083  0.00   -0.0003108    0.0002698    0.0001418
h    -2.0131639    4.6368193    0.4424844  0.00   -0.0000127   -0.0000358   -0.0000114
    13
 Energy =       0.0560464219
c    -3.6629838    1.7063364    0.3326264  0.00   -0.0001146    0.0010257    0.0002758
c    -2.5883617    2.7783976    0.1734108  0.00    0.0008522   -0.0003001   -0.0003008
c    -5.0490573    2.2179062   -0.1075615  0.00   -0.0007151    0.0000377    0.0002318
h    -5.3174842    3.1396851    0.4572893  0.00   -0.0003193    0.0005084    0.0003046
h    -5.8260709    1.4486025    0.0865053  0.00   -0.0000939    0.0000112    0.0001006
h    -5.0406633    2.4673230   -1.1920378  0.00   -0.0000593    0.0002066   -0.0009183
n    -3.3175649    0.4740402   -0.4074647  0.00    0.0010111   -0.0003997   -0.0018434
h    -3.6967646    1.4991615    1.4289680  0.00    0.0000075   -0.0001763    0.0011899
h    -3.1845372   -0.3197334    0.2637757  0.00    0.0002328   -0.0014937    0.0014225
h    -4.0574214    0.1831106   -1.0893027  0.00   -0.0002640    0.0002812   -0.0004842
o    -1.3263721    2.4715833   -0.3255227  0.00   -0.0002404    0.0000803   -0.0001001
o    -2.8408651    4.0769672    0.6046336  0.00   -0.0002874    0.0002505    0.0001324
h    -2.0131299    4.6369061    0.4441504  0.00   -0.0000097   -0.0000318   -0.0000108
    13
 Energy =       0.0560465332
c    -3.6627580    1.7064334    0.3325471  0.00   -0.0001033    0.0009233    0.0002487
c    -2.5886744    2.7789029    0.1727423  0.00    0.0007603   -0.0002712   -0.0002691
c    -5.0490801    2.2173202   -0.1072224  0.00   -0.0006437    0.0000341    0.0002085
h    -5.3176579    3.1389675    0.4576573  0.00   -0.0002874    0.0004576    0.0002741
h    -5.8256881    1.4476718    0.0870778  0.00   -0.0000846    0.0000100    0.0000906
h    -5.0411146    2.4666739   -1.1916284  0.00   -0.0000533    0.0001860   -0.0008266
n    -3.3172182    0.4741111   -0.4072272  0.00    0.0009099   -0.0003595   -0.0016593
h    -3.6960730    1.4995716    1.4288544  0.00    0.0000067   -0.0001588    0.0010710
h    -3.1850433   -0.3196687    0.2639831  0.00    0.0002098   -0.0013447    0.0012807
h    -4.0565476    0.1833723   -1.0896839  0.00   -0.0002380    0.0002530   -0.0004361
o    -1.3280336    2.4734032   -0.3304486  0.00   -0.0002044    0.0000671   -0.0000953
o    -2.8403015    4.0765546    0.6071626  0.00   -0.0002647    0.0002315    0.0001229
h    -2.0130862    4.6369726    0.4456556  0.00   -0.0000073   -0.0000284   -0.0000102
    13
 Energy =       0.0560466090
c    -3.6625616    1.7065217    0.3324767  0.00   -0.0000932    0.0008310    0.0002241
c    -2.5889546    2.7793522    0.1721561  0.00    0.0006790   -0.0002450   -0.0002408
c    -5.0490986    2.2167996   -0.1069362  0.00   -0.0005794    0.0000309    0.0001876
h    -5.3178155    3.1383308    0.4579639  0.00   -0.0002586    0.0004119    0.0002467
h    -5.8253478    1.4468454    0.0875650  0.00   -0.0000762    0.0000089    0.0000815
h    -5.0415026    2.4660940   -1.1912792  0.00   -0.0000480    0.0001674   -0.0007440
n    -3.3169077    0.4741740   -0.4070069  0.00    0.0008189   -0.0003234   -0.0014935
h    -3.6954739    1.4999426    1.4287524  0.00    0.0000061   -0.0001429    0.0009640
h    -3.1854982   -0.3196071    0.2641797  0.00    0.0001890   -0.0012105    0.0011529
h    -4.0557619    0.1836003   -1.0900174  0.00   -0.0002146    0.0002276   -0.0003927
o    -1.3295259    2.4750278   -0.3348158  0.00   -0.0001745    0.0000562   -0.0000900
o    -2.8397902    4.0761806    0.6094217  0.00   -0.0002430    0.0002132    0.0001137
h    -2.0130378    4.6370243    0.4470098  0.00   -0.0000055   -0.0000253   -0.0000095
    13
 Energy =       0.0560466594
c    -3.6623900    1.7066020    0.3324141  0.00   -0.0000840    0.0007479    0.0002020
c    -2.5892058    2.7797521    0.1716408  0.00    0.0006069   -0.0002212   -0.0002157
c    -5.0491136    2.2163364   -0.1066930  0.00   -0.0005216    0.0000279    0.0001688
h    -5.3179584    3.1377650    0.4582212  0.00   -0.0002327    0.0003707    0.0002220
h    -5.8250448    1.4461104    0.0879820  0.00   -0.0000687    0.0000080    0.0000734
h    -5.0418378    2.4655756   -1.1909795  0.00   -0.0000431    0.0001507   -0.0006696
n    -3.3166296    0.4742302   -0.4068036  0.00    0.0007370   -0.0002909   -0.0013442
h    -3.6949530    1.5002780    1.4286611  0.00    0.0000055   -0.0001287    0.0008677
h    -3.1859071   -0.3195490    0.2643644  0.00    0.0001703   -0.0010897    0.0010379
h    -4.0550555    0.1837995   -1.0903101  0.00   -0.0001934    0.0002047   -0.0003537
o    -1.3308645    2.4764779   -0.3386890  0.00   -0.0001496    0.0000473   -0.0000843
o    -2.8393283    4.0758431    0.6114370  0.00   -0.0002225    0.0001957    0.0001047
h    -2.0129879    4.6370652    0.4482244  0.00   -0.0000041   -0.0000226   -0.0000088
    13
 Energy =       0.0560466918
c    -3.6622397    1.7066747    0.3323587  0.00   -0.0000757    0.0006732    0.0001820
c    -2.5894308    2.7801084    0.1711866  0.00    0.0005429   -0.0001996   -0.0001933
c    -5.0491259    2.2159237   -0.1064850  0.00   -0.0004694    0.0000252    0.0001518
h    -5.3180876    3.1372612    0.4584386  0.00   -0.0002094    0.0003337    0.0001998
h    -5.8247746    1.4454558    0.0883407  0.00   -0.0000619    0.0000071    0.0000661
h    -5.0421286    2.4651120   -1.1907208  0.00   -0.0000388    0.0001356   -0.0006027
n    -3.3163804    0.4742803   -0.4066167  0.00    0.0006633   -0.0002617   -0.0012099
h    -3.6944981    1.5005808    1.4285794  0.00    0.0000049   -0.0001158    0.0007810
h    -3.1862747   -0.3194947    0.2645366  0.00    0.0001534   -0.0009809    0.0009343