    27
 Energy =       0.3008376851
c    -1.4235396    2.6054793   -0.0667700  0.00   -0.0462583    0.0382448    0.0026794
c    -1.3072796    1.2134697   -0.1072300  0.00   -0.0853533   -0.0325508    0.0019523
c    -0.0178900    0.6711998   -0.1697000  0.00   -0.0889842   -0.1877120   -0.0009533
c    -0.2940599    3.4190890   -0.0891300  0.00   -0.0231980    0.0690521    0.0028471
c     0.9872197    2.8590292   -0.1560400  0.00    0.0105843    0.0640519    0.0008484
c     1.1340797    1.4562096   -0.1970299  0.00    0.0529664    0.0520487    0.0022184
n     0.3879399   -0.6395298   -0.2140799  0.00    0.1484500    0.1067545   -0.0045262
c     2.2666594    0.5727398   -0.2659299  0.00    0.1481324   -0.0622731   -0.0115854
c     1.7555995   -0.7123598   -0.2706899  0.00   -0.0785384   -0.1029308    0.0017011
h    -0.2400399   -1.4313496   -0.2047299  0.00    0.0365747    0.0481979   -0.0002014
c     3.7030089    1.0223397   -0.3320099  0.00    0.0053816   -0.0146007   -0.0132019
c     4.7465686   -0.0024900    0.1378100  0.00    0.0765367    0.1428262   -0.0286507
h     3.7978489    1.9290294    0.2803699  0.00   -0.0052876   -0.0083061   -0.0114044
h     3.9233889    1.3348996   -1.3618196  0.00   -0.0021552   -0.0035534    0.0146328
c     4.8964886   -1.0916697   -0.9404947  0.00   -0.2642040   -0.2700724   -0.1638853
n     4.3764788   -0.6892298    1.4261196  0.00    0.0042891   -0.0549600    0.0694793
h     5.7313184    0.4619039    0.2668599  0.00   -0.0165264   -0.0221416    0.0117031
h     5.1527685   -0.5416468    2.0793394  0.00   -0.0265116    0.0065713   -0.0285880
h     3.5998490   -0.1655630    1.8450295  0.00    0.0247376   -0.0058347   -0.0296177
h    -2.4108593    3.0588691   -0.0157800  0.00   -0.0009301    0.0003214    0.0000843
h    -2.1896094    0.5822398   -0.0890100  0.00   -0.0036593    0.0037645    0.0001243
h    -0.4052699    4.5000487   -0.0535400  0.00    0.0008856    0.0003887    0.0003439
h     1.8590495    3.5066790   -0.1715100  0.00   -0.0005680    0.0027446    0.0008066
h     2.2327294   -1.6813195   -0.3062999  0.00    0.0270734   -0.0158481   -0.0366474
o     4.0245989   -1.8702095   -1.2891796  0.00    0.1296247    0.1990156    0.1421740
o     6.1470682   -1.0846497   -1.4758196  0.00   -0.0134383    0.0337433    0.0426047
h     6.0125883   -0.8847017   -2.4383893  0.00   -0.0096237    0.0130580    0.0350619
    27
 Energy =       0.2764197042
c    -1.3673048    2.6876341   -0.1771529  0.00   -0.0392540    0.0322630    0.0023457
c    -1.2756339    1.2995264   -0.1995836  0.00   -0.0721443   -0.0279309    0.0017919
c    -0.0050317    0.7356115   -0.2565857  0.00   -0.0752086   -0.1547776   -0.0013600
c    -0.2250233    3.4763386   -0.2048446  0.00   -0.0198438    0.0584395    0.0025439
c     1.0409122    2.8918958   -0.2583537  0.00    0.0088582    0.0543561    0.0008164
c     1.1538092    1.4939261   -0.2842399  0.00    0.0434234    0.0448565    0.0019057
n     0.3594424   -0.5939161   -0.2319542  0.00    0.1253148    0.0872898   -0.0038349
c     2.2624072    0.5977183   -0.3011029  0.00    0.1218645   -0.0511356   -0.0107572
c     1.7370282   -0.6738602   -0.2533524  0.00   -0.0689881   -0.0806192    0.0012472
h    -0.2883434   -1.3769420   -0.2036473  0.00    0.0303530    0.0401089   -0.0000668
c     3.7197690    0.9958575   -0.2884470  0.00    0.0055520   -0.0120102   -0.0106412
c     4.7012232   -0.0875979    0.2062087  0.00    0.0653986    0.1195265   -0.0250575
h     3.8202677    1.8809985    0.3586935  0.00   -0.0037813   -0.0064567   -0.0090366
h     4.0063600    1.3243240   -1.3012906  0.00   -0.0012229   -0.0020458    0.0102413
c     4.8664815   -1.1873243   -0.8622584  0.00   -0.2238680   -0.2271267   -0.1382662
n     4.2693257   -0.7410082    1.4895599  0.00    0.0025416   -0.0483627    0.0591055
h     5.7030776    0.3422736    0.3620210  0.00   -0.0126535   -0.0183491    0.0096366
h     5.0222839   -0.6092911    2.1793278  0.00   -0.0213329    0.0056224   -0.0226702
h     3.4798851   -0.2028827    1.8756649  0.00    0.0196303   -0.0045969   -0.0244520
h    -2.3461709    3.1597803   -0.1311185  0.00   -0.0010068    0.0003555    0.0000853
h    -2.1677579    0.6824115   -0.1640643  0.00   -0.0032959    0.0029091    0.0001518
h    -0.3152918    4.5598164   -0.1799304  0.00    0.0006872    0.0006223    0.0003058
h     1.9279436    3.5190887   -0.2688209  0.00   -0.0002185    0.0025403    0.0006543
h     2.2330803   -1.6345525   -0.1475468  0.00    0.0249792   -0.0203276   -0.0276503
o     3.9789623   -1.9890901   -1.2236405  0.00    0.1126179    0.1658807    0.1171385
o     6.1287576   -1.2175203   -1.3800678  0.00   -0.0086864    0.0260596    0.0425868
h     6.0262445   -0.9347093   -2.3331275  0.00   -0.0097155    0.0129087    0.0232363
    27
 Energy =       0.2557243792
c    -1.3294410    2.7367033   -0.2016283  0.00   -0.0307533    0.0248847    0.0018958
c    -1.2625876    1.3542820   -0.2254788  0.00   -0.0563077   -0.0220443    0.0015073
c    -0.0119075    0.7696882   -0.2670351  0.00   -0.0571717   -0.1192338   -0.0000323
c    -0.1751058    3.4996211   -0.2190331  0.00   -0.0156970    0.0455874    0.0020191
c     1.0733780    2.8915979   -0.2597494  0.00    0.0069526    0.0425137    0.0006197
c     1.1511058    1.5009977   -0.2802947  0.00    0.0337457    0.0350738    0.0015560
n     0.3082635   -0.5780676   -0.2698789  0.00    0.0945902    0.0672801   -0.0050515
c     2.2351068    0.6007334   -0.2774169  0.00    0.0949585   -0.0398065   -0.0084688
c     1.6981374   -0.6586279   -0.2198753  0.00   -0.0512582   -0.0617932    0.0022674
h    -0.3585689   -1.3552882   -0.2803342  0.00    0.0224510    0.0301459   -0.0005216
c     3.7028860    0.9739841   -0.2875595  0.00    0.0044689   -0.0094303   -0.0082202
c     4.6844120   -0.1198791    0.1972830  0.00    0.0506519    0.0941705   -0.0207292
h     3.8310000    1.8639463    0.3526972  0.00   -0.0028301   -0.0047109   -0.0067952
h     3.9764280    1.2870704   -1.3111969  0.00   -0.0008696   -0.0016380    0.0077430
c     4.8463220   -1.2467442   -0.8453544  0.00   -0.1792201   -0.1736236   -0.1075512
n     4.2819466   -0.7261521    1.5082214  0.00    0.0003677   -0.0396222    0.0462745
h     5.6924001    0.3177803    0.3122949  0.00   -0.0091834   -0.0136781    0.0074617
h     5.0401489   -0.5475330    2.1896446  0.00   -0.0152495    0.0048188   -0.0161975
h     3.4721808   -0.2076866    1.8891864  0.00    0.0147373   -0.0030486   -0.0190599
h    -2.2997944    3.2272824   -0.1671946  0.00   -0.0010631    0.0003577    0.0000843
h    -2.1653340    0.7516265   -0.2073341  0.00   -0.0028269    0.0020463    0.0001137
h    -0.2440789    4.5848879   -0.1966160  0.00    0.0004813    0.0007300    0.0002449
h     1.9746145    3.4984561   -0.2620732  0.00    0.0001213    0.0021618    0.0004987
h     2.1989555   -1.6079912   -0.0639446  0.00    0.0199290   -0.0161024   -0.0208852
o     3.9181169   -2.0605306   -1.1884100  0.00    0.0873694    0.1277728    0.0906718
o     6.1218232   -1.3762734   -1.3353403  0.00    0.0029477    0.0108188    0.0469308
h     6.0862954   -0.9753769   -2.2632331  0.00   -0.0113421    0.0163697    0.0036238
    27
 Energy =       0.2531994985
c    -1.2562327    2.8562300   -0.2382056  0.00   -0.0294142    0.0233504    0.0017791
c    -1.2317859    1.4744824   -0.2733046  0.00   -0.0531092   -0.0210554    0.0014163
c    -0.0018192    0.8524459   -0.3039769  0.00   -0.0530991   -0.1102949    0.0002051
c    -0.0782765    3.5815550   -0.2358835  0.00   -0.0146320    0.0432451    0.0018639
c     1.1506758    2.9344255   -0.2647273  0.00    0.0070863    0.0400649    0.0005282
c     1.1832184    1.5436885   -0.2941896  0.00    0.0315506    0.0330980    0.0013607
n     0.2644652   -0.5063342   -0.3301357  0.00    0.0864777    0.0621745   -0.0051180
c     2.2349538    0.6081015   -0.2762452  0.00    0.0885322   -0.0367747   -0.0080150
c     1.6522928   -0.6311450   -0.2286788  0.00   -0.0464772   -0.0577413    0.0025123
h    -0.4344607   -1.2577680   -0.3746362  0.00    0.0192263    0.0263874   -0.0006990
c     3.7205620    0.9188094   -0.2620056  0.00    0.0046984   -0.0076436   -0.0078397
c     4.6524610   -0.2219715    0.2283616  0.00    0.0475811    0.0870181   -0.0193119
h     3.8775979    1.7990283    0.3868194  0.00   -0.0024438   -0.0039136   -0.0061401
h     4.0223472    1.2260801   -1.2802781  0.00   -0.0006566   -0.0012452    0.0068524
c     4.7837212   -1.3652544   -0.8057574  0.00   -0.1663655   -0.1612755   -0.0999517
n     4.2212539   -0.7996032    1.5417571  0.00    0.0001947   -0.0377207    0.0434834
h     5.6794432    0.1743204    0.3448813  0.00   -0.0075251   -0.0123720    0.0067834
h     4.9763978   -0.6357927    2.2316862  0.00   -0.0139813    0.0044905   -0.0148851
h     3.4180715   -0.2583572    1.9084734  0.00    0.0131959   -0.0025532   -0.0174055
h    -2.2115911    3.3769759   -0.2127069  0.00   -0.0015824    0.0005944    0.0000937
h    -2.1533488    0.8992967   -0.2753680  0.00   -0.0032975    0.0014474    0.0000986
h    -0.1130021    4.6688295   -0.2060871  0.00    0.0004489    0.0013369    0.0002424
h     2.0717731    3.5117130   -0.2491337  0.00    0.0008148    0.0024692    0.0004674
h     2.1161151   -1.5919348   -0.0400095  0.00    0.0182472   -0.0157540   -0.0186283
o     3.8204530   -2.1536063   -1.1432480  0.00    0.0811738    0.1179133    0.0832723
o     6.0489412   -1.5350265   -1.3127918  0.00    0.0048537    0.0074808    0.0473664
h     6.0324765   -1.0706814   -2.2142633  0.00   -0.0114975    0.0172733   -0.0003314
    27
 Energy =       0.2549237916
c    -1.1802934    2.9771634   -0.2692303  0.00   -0.0297118    0.0232756    0.0017446
c    -1.1961552    1.5965218   -0.3269240  0.00   -0.0529682   -0.0213532    0.0013289
c     0.0146294    0.9391861   -0.3477530  0.00   -0.0520489   -0.1074168    0.0003894
c     0.0193784    3.6665006   -0.2377224  0.00   -0.0141788    0.0434300    0.0018343
c     1.2298868    2.9827101   -0.2552059  0.00    0.0076807    0.0399595    0.0005044
c     1.2211539    1.5917447   -0.3042873  0.00    0.0312308    0.0332551    0.0012447
n     0.2325179   -0.4252608   -0.4167050  0.00    0.0824052    0.0607816   -0.0054645
c     2.2412785    0.6190837   -0.2737426  0.00    0.0873105   -0.0358879   -0.0079999
c     1.6111457   -0.5984879   -0.2465884  0.00   -0.0436713   -0.0567219    0.0029788
h    -0.4941488   -1.1484785   -0.5137556  0.00    0.0164080    0.0234987   -0.0010839
c     3.7414096    0.8643129   -0.2267340  0.00    0.0052481   -0.0061650   -0.0079305
c     4.6167314   -0.3275974    0.2611179  0.00    0.0471691    0.0849115   -0.0187010
h     3.9250043    1.7273759    0.4389716  0.00   -0.0020885   -0.0032959   -0.0057698
h     4.0756819    1.1734135   -1.2347971  0.00   -0.0005374   -0.0008329    0.0062522
c     4.7057585   -1.4828223   -0.7711014  0.00   -0.1633939   -0.1583373   -0.0979718
n     4.1550948   -0.8835454    1.5732383  0.00   -0.0000500   -0.0384570    0.0426896
h     5.6630129    0.0187820    0.3823016  0.00   -0.0060455   -0.0117350    0.0066571
h     4.9116492   -0.7508898    2.2691218  0.00   -0.0130290    0.0045102   -0.0141999
h     3.3694865   -0.3099381    1.9318437  0.00    0.0120474   -0.0019112   -0.0167152
h    -2.1205043    3.5260589   -0.2520694  0.00   -0.0020947    0.0008237    0.0000976
h    -2.1348078    1.0486745   -0.3588822  0.00   -0.0040955    0.0008594    0.0000589
h     0.0168708    4.7543658   -0.1921241  0.00    0.0005199    0.0020011    0.0002647
h     2.1683368    3.5315296   -0.2134030  0.00    0.0016148    0.0029217    0.0004898
h     2.0297445   -1.5717532   -0.0220599  0.00    0.0179694   -0.0167552   -0.0174862
o     3.7085489   -2.2361341   -1.1012302  0.00    0.0795724    0.1147623    0.0807943
o     5.9581297   -1.6937796   -1.2951028  0.00    0.0065644    0.0058631    0.0477952
h     5.9571626   -1.1902297   -2.1768299  0.00   -0.0118273    0.0180156   -0.0018015
    27
 Energy =       0.2504844220
c    -1.2450721    2.8778642   -0.2514778  0.00   -0.0296332    0.0230956    0.0017001
c    -1.2307825    1.4953399   -0.2800883  0.00   -0.0523413   -0.0215516    0.0012286
c    -0.0055656    0.8644231   -0.3069066  0.00   -0.0506269   -0.1036925    0.0003110
c    -0.0610286    3.5952020   -0.2514405  0.00   -0.0135980    0.0432135    0.0017994
c     1.1634632    2.9389943   -0.2768984  0.00    0.0080280    0.0396586    0.0004894
c     1.1847757    1.5478174   -0.3001198  0.00    0.0307144    0.0332679    0.0011182
n     0.2464196   -0.5006955   -0.3200655  0.00    0.0778623    0.0589542   -0.0053669
c     2.2306689    0.6065816   -0.2768853  0.00    0.0857034   -0.0349003   -0.0079369
c     1.6404814   -0.6307624   -0.2229945  0.00   -0.0404454   -0.0550584    0.0031672
h    -0.4626308   -1.2500450   -0.3550025  0.00    0.0133766    0.0201698   -0.0012013
c     3.7216295    0.9097956   -0.2640053  0.00    0.0055552   -0.0049031   -0.0079835
c     4.6500205   -0.2358535    0.2336743  0.00    0.0464615    0.0826673   -0.0178333
h     3.8853295    1.7936721    0.3805700  0.00   -0.0017301   -0.0026917   -0.0053740
h     4.0247206    1.2114173   -1.2849472  0.00   -0.0005040   -0.0004333    0.0055999
c     4.7824807   -1.3854401   -0.7946831  0.00   -0.1599879   -0.1548239   -0.0957199
n     4.2141609   -0.8052333    1.5492286  0.00   -0.0002555   -0.0391485    0.0412201
h     5.6807031    0.1587348    0.3496679  0.00   -0.0047580   -0.0110515    0.0066115
h     4.9670809   -0.6337718    2.2421875  0.00   -0.0117236    0.0046404   -0.0132319
h     3.4052367   -0.2644450    1.9090998  0.00    0.0107076   -0.0011894   -0.0160221
h    -2.1974041    3.4057617   -0.2287486  0.00   -0.0023715    0.0009264    0.0000993
h    -2.1575568    0.9254619   -0.2789367  0.00   -0.0047396    0.0002936    0.0000523
h    -0.0874782    4.6838320   -0.2263433  0.00    0.0005999    0.0024914    0.0002701
h     2.0900981    3.5100971   -0.2632670  0.00    0.0022135    0.0032836    0.0004874
h     2.1038159   -1.5945045   -0.0331395  0.00    0.0180396   -0.0177293   -0.0166361
o     3.8134742   -2.1754020   -1.1318712  0.00    0.0776190    0.1114121    0.0783427
o     6.0491481   -1.5640352   -1.3000867  0.00    0.0076980    0.0049907    0.0471921
h     6.0405144   -1.0862999   -2.1961741  0.00   -0.0118641    0.0181082   -0.0023832
    27
 Energy =       0.2449864968
c    -1.2850988    2.8055850   -0.2366697  0.00   -0.0277400    0.0216210    0.0015668
c    -1.2521149    1.4237250   -0.2350235  0.00   -0.0487002   -0.0204768    0.0010428
c    -0.0205225    0.8092045   -0.2671148  0.00   -0.0465553   -0.0945224   -0.0001653
c    -0.1120230    3.5385179   -0.2687828  0.00   -0.0122710    0.0404524    0.0016965
c     1.1185914    2.8990683   -0.3016727  0.00    0.0077587    0.0371329    0.0004913
c     1.1565116    1.5103428   -0.2975920  0.00    0.0285505    0.0313522    0.0009823
n     0.2522237   -0.5564534   -0.2238666  0.00    0.0698620    0.0539304   -0.0044365
c     2.2166309    0.5935040   -0.2800815  0.00    0.0794999   -0.0321971   -0.0073857
c     1.6566066   -0.6552439   -0.1972857  0.00   -0.0353253   -0.0504157    0.0027177
h    -0.4435418   -1.3224965   -0.1962494  0.00    0.0100387    0.0160682   -0.0009502
c     3.6994325    0.9371926   -0.3047676  0.00    0.0053719   -0.0038129   -0.0075618
c     4.6696588   -0.1680784    0.2033171  0.00    0.0430903    0.0764255   -0.0162384
h     3.8527504    1.8411090    0.3158102  0.00   -0.0013262   -0.0020411   -0.0047307
h     3.9729055    1.2229361   -1.3396983  0.00   -0.0004776   -0.0000550    0.0045898
c     4.8361190   -1.3187042   -0.8138507  0.00   -0.1484258   -0.1434042   -0.0885594
n     4.2628345   -0.7350491    1.5283762  0.00   -0.0005357   -0.0383162    0.0370512
h     5.6864743    0.2670070    0.3058317  0.00   -0.0035531   -0.0098272    0.0062628
h     5.0090447   -0.5132775    2.2175413  0.00   -0.0092017    0.0047760   -0.0110162
h     3.4272956   -0.2308755    1.8844922  0.00    0.0084669   -0.0002194   -0.0145555
h    -2.2441447    3.3208564   -0.2089067  0.00   -0.0023302    0.0008877    0.0000922
h    -2.1705465    0.8408851   -0.2006032  0.00   -0.0049384   -0.0001817    0.0000626
h    -0.1528176    4.6271440   -0.2651530  0.00    0.0006508    0.0026651    0.0002541
h     2.0376693    3.4826864   -0.3166504  0.00    0.0025041    0.0033540    0.0004527
h     2.1547420   -1.6082941   -0.0324805  0.00    0.0172460   -0.0172865   -0.0152888
o     3.8818568   -2.1351383   -1.1565668  0.00    0.0718238    0.1027735    0.0722857
o     6.1130548   -1.4848828   -1.3020218  0.00    0.0074488    0.0043198    0.0440204
h     6.1231110   -0.9927638   -2.1899850  0.00   -0.0109319    0.0169973   -0.0026806
    27
 Energy =       0.2387928684
c    -1.2995379    2.7699452   -0.2293429  0.00   -0.0240307    0.0187410    0.0013491
c    -1.2617546    1.3910349   -0.1916779  0.00   -0.0418550   -0.0181512    0.0007603
c    -0.0326827    0.7804047   -0.2268698  0.00   -0.0396919   -0.0798802   -0.0009497
c    -0.1309754    3.5038916   -0.2981905  0.00   -0.0101277    0.0350617    0.0015415
c     1.0972777    2.8677343   -0.3368962  0.00    0.0068753    0.0323663    0.0005262
c     1.1359130    1.4836485   -0.2985965  0.00    0.0246639    0.0272565    0.0008516
n     0.2437437   -0.5866240   -0.1266105  0.00    0.0585996    0.0454579   -0.0028905
c     2.1974329    0.5812690   -0.2828998  0.00    0.0681632   -0.0275994   -0.0063041
c     1.6541765   -0.6692199   -0.1623800  0.00   -0.0288216   -0.0429162    0.0017601
h    -0.4454524   -1.3584661   -0.0374963  0.00    0.0065705    0.0114627   -0.0004323
c     3.6758659    0.9424944   -0.3573331  0.00    0.0047839   -0.0030369   -0.0065999
c     4.6774348   -0.1268746    0.1690660  0.00    0.0365305    0.0662939   -0.0143012
h     3.8339009    1.8722986    0.2256552  0.00   -0.0007325   -0.0008993   -0.0035424
h     3.9181880    1.1921173   -1.4111469  0.00   -0.0003549    0.0004025    0.0027334
c     4.8652849   -1.2985765   -0.8169946  0.00   -0.1285143   -0.1229251   -0.0761903
n     4.3061452   -0.6597984    1.5169126  0.00   -0.0016935   -0.0368989    0.0299859
h     5.6841172    0.3400974    0.2407375  0.00   -0.0022363   -0.0077848    0.0055671
h     5.0404378   -0.3632881    2.1970150  0.00   -0.0044933    0.0054091   -0.0063704
h     3.4387154   -0.1974677    1.8593780  0.00    0.0050875    0.0011625   -0.0123429
h    -2.2593784    3.2829701   -0.1982217  0.00   -0.0020313    0.0007438    0.0000771
h    -2.1767505    0.8058306   -0.1219314  0.00   -0.0047255   -0.0006230    0.0000822
h    -0.1746081    4.5921981   -0.3211159  0.00    0.0006754    0.0026673    0.0002203
h     2.0144307    3.4526244   -0.3842067  0.00    0.0025942    0.0032207    0.0003877
h     2.1748852   -1.6117332   -0.0071528  0.00    0.0152206   -0.0151921   -0.0132262
o     3.9066807   -2.1304935   -1.1566078  0.00    0.0615873    0.0880207    0.0621199
o     6.1512414   -1.4922750   -1.2779825  0.00    0.0074368    0.0013210    0.0405411
h     6.2119714   -0.9652353   -2.1447645  0.00   -0.0094799    0.0163192   -0.0053535
    27
 Energy =       0.2360202210
c    -1.2796048    2.8032126   -0.2390316  0.00   -0.0216981    0.0168099    0.0012195
c    -1.2572203    1.4272210   -0.1662623  0.00   -0.0373106   -0.0167203    0.0006371
c    -0.0388516    0.8019484   -0.2016272  0.00   -0.0351413   -0.0703815   -0.0013211
c    -0.1043120    3.5199062   -0.3421721  0.00   -0.0086868    0.0315705    0.0014132
c     1.1135667    2.8680907   -0.3836902  0.00    0.0063238    0.0293520    0.0005109
c     1.1340565    1.4873679   -0.3105950  0.00    0.0221738    0.0243541    0.0007737
n     0.2186044   -0.5665857   -0.0542081  0.00    0.0516952    0.0395288   -0.0020990
c     2.1825865    0.5768146   -0.2915579  0.00    0.0603117   -0.0245358   -0.0053735
c     1.6292281   -0.6629628   -0.1290820  0.00   -0.0251790   -0.0383599    0.0012573
h    -0.4778055   -1.3277861    0.0819393  0.00    0.0045527    0.0087515   -0.0000830
c     3.6648948    0.9158484   -0.4181170  0.00    0.0043891   -0.0033195   -0.0057137
c     4.6707675   -0.1329700    0.1468963  0.00    0.0314189    0.0608615   -0.0141154
h     3.8472562    1.8774867    0.1081512  0.00   -0.0001721    0.0012296   -0.0020854
h     3.8859378    1.1014697   -1.4922130  0.00    0.0001653    0.0008510    0.0001542
c     4.8536833   -1.3556866   -0.7804021  0.00   -0.1176420   -0.1084479   -0.0669266
n     4.3207149   -0.5932669    1.5268068  0.00   -0.0038881   -0.0366032    0.0270751
h     5.6785635    0.3382465    0.1778490  0.00   -0.0013767   -0.0059282    0.0049036
h     5.0433548   -0.2250401    2.1892299  0.00   -0.0011570    0.0062374   -0.0022215
h     3.4339903   -0.1485384    1.8449421  0.00    0.0035877    0.0018143   -0.0109403
h    -2.2326514    3.3284856   -0.2069854  0.00   -0.0019137    0.0006932    0.0000726
h    -2.1773585    0.8544250   -0.0657775  0.00   -0.0046288   -0.0009746    0.0001203
h    -0.1349634    4.6079385   -0.3916606  0.00    0.0006897    0.0028314    0.0001810
h     2.0369139    3.4400804   -0.4603125  0.00    0.0027336    0.0032342    0.0003187
h     2.1458962   -1.6037214    0.0371811  0.00    0.0132526   -0.0134909   -0.0116109
o     3.8727087   -2.1828175   -1.1006185  0.00    0.0545850    0.0774077    0.0548856
o     6.1472626   -1.6266717   -1.1914060  0.00    0.0109608   -0.0029672    0.0368915
h     6.2694844   -1.1239884   -2.0669308  0.00   -0.0080458    0.0162019   -0.0079236
    27
 Energy =       0.2339854257
c    -1.2952564    2.7664644   -0.2291708  0.00   -0.0205842    0.0159484    0.0011556
c    -1.2622478    1.3907724   -0.1654523  0.00   -0.0353603   -0.0158775    0.0006261
c    -0.0397381    0.7755371   -0.1998784  0.00   -0.0332718   -0.0664556   -0.0012226
c    -0.1257540    3.4926828   -0.3229232  0.00   -0.0081848    0.0299512    0.0013261
c     1.0962570    2.8509720   -0.3622245  0.00    0.0060663    0.0278300    0.0004668
c     1.1262070    1.4713499   -0.2977565  0.00    0.0209924    0.0231390    0.0007128
n     0.2286158   -0.5944826   -0.0704232  0.00    0.0488110    0.0372525   -0.0020264
c     2.1818501    0.5734761   -0.2794040  0.00    0.0570030   -0.0232290   -0.0050031
c     1.6423075   -0.6737008   -0.1333950  0.00   -0.0237931   -0.0363437    0.0012166
h    -0.4607663   -1.3653639    0.0495064  0.00    0.0040999    0.0080322   -0.0000460
c     3.6600719    0.9358178   -0.3875138  0.00    0.0040688   -0.0032767   -0.0053964
c     4.6777049   -0.1160722    0.1474046  0.00    0.0297041    0.0580192   -0.0135029
h     3.8268925    1.8823426    0.1718081  0.00   -0.0001113    0.0018345   -0.0016416
h     3.8837291    1.1599341   -1.4545042  0.00    0.0003750    0.0009776   -0.0005481
c     4.8738347   -1.3077107   -0.8147397  0.00   -0.1129215   -0.1024365   -0.0626739
n     4.3360359   -0.6145342    1.5162357  0.00   -0.0033262   -0.0354316    0.0260546
h     5.6795118    0.3676699    0.1893694  0.00   -0.0011947   -0.0053941    0.0045898
h     5.0494671   -0.2457704    2.1884232  0.00   -0.0010058    0.0060022   -0.0020012
h     3.4371798   -0.2010654    1.8444393  0.00    0.0025788    0.0020265   -0.0098635
h    -2.2525203    3.2839960   -0.1985109  0.00   -0.0018501    0.0006743    0.0000708
h    -2.1781630    0.8098913   -0.0747443  0.00   -0.0044566   -0.0009760    0.0001244
h    -0.1646945    4.5806322   -0.3663515  0.00    0.0006616    0.0027356    0.0001673
h     2.0155364    3.4302500   -0.4314000  0.00    0.0026438    0.0030950    0.0002954
h     2.1716951   -1.6103875    0.0233209  0.00    0.0125017   -0.0129211   -0.0108563
o     3.9025646   -2.1467807   -1.1480345  0.00    0.0516930    0.0730213    0.0516460
o     6.1644021   -1.5321779   -1.2665118  0.00    0.0119198   -0.0060516    0.0377104
h     6.2719804   -0.9652353   -2.1072229  0.00   -0.0070588    0.0178537   -0.0113806
    27
 Energy =       0.2312531686
c    -1.3072621    2.7328892   -0.2229426  0.00   -0.0184069    0.0142798    0.0010362
c    -1.2664573    1.3588018   -0.1597719  0.00   -0.0316409   -0.0142006    0.0005702
c    -0.0424372    0.7508799   -0.1920668  0.00   -0.0297812   -0.0593700   -0.0010648
c    -0.1426225    3.4646499   -0.3145688  0.00   -0.0073055    0.0268037    0.0011876
c     1.0809608    2.8299570   -0.3509138  0.00    0.0054776    0.0248789    0.0004130
c     1.1165338    1.4529715   -0.2864857  0.00    0.0187412    0.0207551    0.0006223
n     0.2329794   -0.6206840   -0.0711642  0.00    0.0435647    0.0332666   -0.0018530
c     2.1763387    0.5673647   -0.2669532  0.00    0.0509127   -0.0207773   -0.0044212
c     1.6497931   -0.6846060   -0.1287976  0.00   -0.0212722   -0.0324896    0.0011287
h    -0.4501125   -1.3989919    0.0416343  0.00    0.0035964    0.0070916   -0.0000336
c     3.6502765    0.9495568   -0.3665849  0.00    0.0034900   -0.0029102   -0.0048528
c     4.6837848   -0.0997772    0.1401164  0.00    0.0267760    0.0521167   -0.0121584
h     3.8055960    1.8837327    0.2170268  0.00   -0.0001105    0.0020256   -0.0012887
h     3.8698452    1.2032510   -1.4282273  0.00    0.0004742    0.0009934   -0.0009018
c     4.8914909   -1.2676943   -0.8455484  0.00   -0.1017854   -0.0914847   -0.0558620
n     4.3618905   -0.6217729    1.5037961  0.00   -0.0018759   -0.0331853    0.0227722
h     5.6787619    0.3985757    0.1818913  0.00   -0.0009472   -0.0047405    0.0040281
h     5.0577449   -0.2277650    2.1809224  0.00   -0.0002313    0.0057457   -0.0014574
h     3.4418101   -0.2577570    1.8362532  0.00    0.0002098    0.0025551   -0.0080859
h    -2.2673017    3.2450804   -0.1945619  0.00   -0.0016729    0.0006154    0.0000646
h    -2.1788672    0.7725492   -0.0727975  0.00   -0.0040116   -0.0008835    0.0001151
h    -0.1873394    4.5521315   -0.3586315  0.00    0.0005939    0.0024641    0.0001492
h     1.9972335    3.4135413   -0.4189500  0.00    0.0023836    0.0027656    0.0002627
h     2.1922956   -1.6159953    0.0202051  0.00    0.0112379   -0.0117191   -0.0095960
o     3.9230728   -2.1146080   -1.1928372  0.00    0.0462763    0.0652238    0.0459358
o     6.1781337   -1.4612921   -1.3255736  0.00    0.0107658   -0.0120522    0.0409921
h     6.3005612   -0.8064822   -2.1041223  0.00   -0.0054588    0.0222318   -0.0177022
    27
 Energy =       0.2241722506
c    -1.2878531    2.7311132   -0.2351696  0.00   -0.0111475    0.0086748    0.0006960
c    -1.2575330    1.3639672   -0.1366280  0.00   -0.0189389   -0.0090048    0.0002539
c    -0.0461555    0.7466235   -0.1574754  0.00   -0.0177467   -0.0359412   -0.0010806
c    -0.1204369    3.4465160   -0.3512848  0.00   -0.0043264    0.0163485    0.0008819
c     1.0910113    2.8005959   -0.3744444  0.00    0.0033355    0.0152903    0.0003462
c     1.1088131    1.4330846   -0.2730804  0.00    0.0111921    0.0121613    0.0004111
n     0.2116513   -0.6315857   -0.0154143  0.00    0.0260964    0.0196593   -0.0006109
c     2.1564881    0.5555278   -0.2389774  0.00    0.0304679   -0.0123859   -0.0028062
c     1.6343310   -0.6904429   -0.0848923  0.00   -0.0124761   -0.0196170    0.0005806
h    -0.4734052   -1.4080732    0.1151604  0.00    0.0019340    0.0040884    0.0002450
c     3.6293145    0.9427302   -0.3504228  0.00    0.0017700   -0.0013162   -0.0031542
c     4.6871986   -0.0942288    0.1321231  0.00    0.0158681    0.0327914   -0.0083516
h     3.7858084    1.8720253    0.2400739  0.00   -0.0000604    0.0012627   -0.0010238
h     3.8331913    1.2064228   -1.4127207  0.00    0.0002311    0.0004874   -0.0008756
c     4.9086191   -1.2527611   -0.8526599  0.00   -0.0627532   -0.0539182   -0.0331949
n     4.4202071   -0.5951143    1.5100688  0.00    0.0062164   -0.0361300    0.0014628
h     5.6732707    0.4268402    0.1384254  0.00    0.0002670   -0.0024847    0.0020201
h     5.0450916   -0.0690119    2.1835524  0.00    0.0118808    0.0128845    0.0094496
h     3.4355005   -0.3737787    1.8182673  0.00   -0.0196417    0.0063916   -0.0018012
h    -2.2427292    3.2524083   -0.2176026  0.00   -0.0010802    0.0005031    0.0000365
h    -2.1728678    0.7871120   -0.0331589  0.00   -0.0025222   -0.0006884    0.0001719
h    -0.1552062    4.5323559   -0.4266492  0.00    0.0003699    0.0020410   -0.0000360
h     2.0120991    3.3718177   -0.4652540  0.00    0.0016719    0.0018997    0.0000098
h     2.1885539   -1.6142472    0.0596292  0.00    0.0076443   -0.0071437   -0.0059860
o     3.9333777   -2.1321772   -1.1862503  0.00    0.0263761    0.0385543    0.0284772
o     6.1799423   -1.4207204   -1.3854097  0.00    0.0077685   -0.0088523    0.0250115
h     6.2684208   -0.7884925   -2.1794595  0.00   -0.0023968    0.0144441   -0.0111331
    27
 Energy =       0.2220366905
c    -1.3125203    2.6767211   -0.2459603  0.00   -0.0087961    0.0069459    0.0005572
c    -1.2659586    1.3126274   -0.1326164  0.00   -0.0149366   -0.0071558    0.0001994
c    -0.0494388    0.7097723   -0.1456949  0.00   -0.0140153   -0.0282266   -0.0008938
c    -0.1544394    3.4033439   -0.3690600  0.00   -0.0033742    0.0129732    0.0007206
c     1.0623015    2.7716072   -0.3834447  0.00    0.0027454    0.0120662    0.0002855
c     1.0939685    1.4081855   -0.2670372  0.00    0.0087170    0.0095906    0.0003184
n     0.2244119   -0.6668303    0.0056652  0.00    0.0202988    0.0153316   -0.0004550
c     2.1508302    0.5501688   -0.2231149  0.00    0.0238718   -0.0097117   -0.0021544
c     1.6505970   -0.7016062   -0.0601466  0.00   -0.0097372   -0.0155022    0.0004397
h    -0.4487756   -1.4537825    0.1402845  0.00    0.0013932    0.0030302    0.0002241
c     3.6163795    0.9644733   -0.3314998  0.00    0.0013794   -0.0009709   -0.0024616
c     4.6936204   -0.0613031    0.1288169  0.00    0.0122645    0.0257656   -0.0066573
h     3.7578016    1.8846869    0.2773479  0.00   -0.0000667    0.0012720   -0.0006629
h     3.8128076    1.2517832   -1.3892595  0.00    0.0003017    0.0004853   -0.0009630
c     4.9337990   -1.1948867   -0.8775764  0.00   -0.0501376   -0.0421637   -0.0256328