    13
 Energy =       0.1259101604
c    -3.7133889    1.6950595    0.3173519  0.00   -0.0499271   -0.0177334    0.0116346
c    -2.4962693    2.6345192    0.2419999  0.00    0.0838548    0.3267229    0.1001474
c    -4.9565486    2.3924193   -0.2155699  0.00    0.0057539    0.0148975    0.0164934
h    -4.7854386    2.7464192   -1.2386596  0.00   -0.0049080   -0.0022109    0.0163908
h    -5.2149185    3.2645991    0.3947669  0.00    0.0016351   -0.0123555   -0.0124996
h    -5.8205083    1.7195795   -0.2420919  0.00    0.0076240    0.0156334   -0.0033181
n    -3.4097890    0.4519539   -0.4549189  0.00    0.1098740   -0.0336215   -0.0147335
h    -3.8575589    1.4177196    1.3669296  0.00    0.0068583   -0.0106102   -0.0248140
h    -2.5963493    0.6418898   -1.0496997  0.00    0.0856709    0.1469047    0.1128858
h    -3.0749291   -0.2623099    0.1989099  0.00   -0.0110132    0.0288568   -0.0210468
o    -2.4571893    3.7760389    0.6681628  0.00   -0.0152499   -0.2702398   -0.1114340
o    -1.4389296    2.0221094   -0.3549299  0.00   -0.1793405   -0.1788457   -0.0574634
h    -0.7518168    1.9408394    0.3531709  0.00   -0.0408323   -0.0073981   -0.0122425
    13
 Energy =       0.0860720919
c    -3.6911401    1.7034165    0.3204334  0.00   -0.0230025   -0.0058354    0.0055403
c    -2.4752069    2.6210400    0.2385970  0.00    0.0405994    0.1413957    0.0514099
c    -4.9463396    2.3972080   -0.1998474  0.00    0.0032595    0.0057656    0.0068179
h    -4.7735075    2.7935783   -1.2176896  0.00   -0.0019602   -0.0002663    0.0066406
h    -5.2289427    3.2412128    0.4564149  0.00    0.0001059   -0.0046276   -0.0043090
h    -5.7907565    1.6867182   -0.2501389  0.00    0.0031603    0.0058676   -0.0017012
n    -3.4475085    0.4789752   -0.4747001  0.00    0.0508951   -0.0102189   -0.0078886
h    -3.8276817    1.4345698    1.3849604  0.00    0.0034766   -0.0046755   -0.0109079
h    -2.6297132    0.6584175   -1.0954764  0.00    0.0555790    0.0887131    0.0624757
h    -3.1467835   -0.2892406    0.1563285  0.00   -0.0043631    0.0095968   -0.0079996
o    -2.4857779    3.8535152    0.6896547  0.00   -0.0103595   -0.1191884   -0.0508150
o    -1.3764496    2.0793398   -0.3936251  0.00   -0.1207772   -0.0910619   -0.0827301
h    -0.7538265    1.7820863    0.3705105  0.00    0.0033869   -0.0154648    0.0334671
    13
 Energy =       0.0822984067
c    -3.6643700    1.6878599    0.3126270  0.00   -0.0182186   -0.0040802    0.0054673
c    -2.4672639    2.6268373    0.1942837  0.00    0.0370870    0.1253324    0.0455180
c    -4.9673974    2.3812941   -0.0946083  0.00   -0.0005598    0.0051496    0.0065819
h    -4.8723615    2.8199514   -1.1099970  0.00   -0.0016506    0.0011627    0.0023592
h    -5.2174793    3.1952787    0.6151680  0.00   -0.0009729   -0.0026059   -0.0022571
h    -5.8029778    1.6572239   -0.1125104  0.00    0.0019688    0.0051358   -0.0013707
n    -3.4593038    0.4983752   -0.5466707  0.00    0.0458130   -0.0086735   -0.0117765
h    -3.7241676    1.3757896    1.3775393  0.00    0.0028371   -0.0047729   -0.0058411
h    -2.6357226    0.6791693   -1.1616444  0.00    0.0500156    0.0798101    0.0559530
h    -3.1925692   -0.3198733    0.0409795  0.00   -0.0025674    0.0047688   -0.0049160
o    -2.4963215    3.8723555    0.6338712  0.00   -0.0091473   -0.1057647   -0.0453405
o    -1.3666575    2.1080918   -0.4562121  0.00   -0.1095602   -0.0806542   -0.0763998
h    -0.7070421    1.8584837    0.2925963  0.00    0.0049552   -0.0148081    0.0320223
    13
 Energy =       0.0792718338
c    -3.6881393    1.6935472    0.3205401  0.00   -0.0158705   -0.0025815    0.0058304
c    -2.4746476    2.6132930    0.2242056  0.00    0.0356376    0.1183397    0.0431395
c    -4.9604450    2.3841729   -0.1875137  0.00   -0.0029072    0.0036937    0.0067110
h    -4.8139456    2.7512837   -1.2288132  0.00   -0.0011858    0.0024869   -0.0015674
h    -5.2249121    3.2515264    0.4564149  0.00   -0.0022366    0.0003188   -0.0002489
h    -5.8091409    1.6744319   -0.1898055  0.00    0.0017132    0.0045094   -0.0010239
n    -3.4532262    0.4642265   -0.4758128  0.00    0.0433555   -0.0082528   -0.0158003
h    -3.8114239    1.4300000    1.3959153  0.00    0.0022759   -0.0049721   -0.0023706
h    -2.6355102    0.6379894   -1.1018406  0.00    0.0476500    0.0759615    0.0529762
h    -3.1498785   -0.3091466    0.1580892  0.00   -0.0010435    0.0010867   -0.0021089
o    -2.5014058    3.8709641    0.6403169  0.00   -0.0088416   -0.0997483   -0.0427662
o    -1.3630700    2.0753200   -0.3926945  0.00   -0.1063388   -0.0760283   -0.0772062
h    -0.6878892    1.9032286    0.3664202  0.00    0.0077918   -0.0148140    0.0344351
    13
 Energy =       0.0714271456
c    -3.7059853    1.6894039    0.3322186  0.00   -0.0113926   -0.0002289    0.0051157
c    -2.4884590    2.6016794    0.2392604  0.00    0.0292544    0.0900304    0.0353021
c    -4.9589883    2.3566249   -0.2516129  0.00   -0.0034866    0.0020179    0.0055884
h    -4.7824426    2.6571863   -1.3114649  0.00   -0.0007185    0.0027537   -0.0038258
h    -5.2330396    3.2656591    0.3322306  0.00   -0.0025448    0.0024091    0.0010902
h    -5.8123672    1.6509906   -0.2292273  0.00    0.0012522    0.0031641   -0.0006527
n    -3.4524985    0.4253197   -0.4000561  0.00    0.0315752   -0.0059254   -0.0175345
h    -3.8710717    1.4763707    1.4151101  0.00    0.0015091   -0.0041325    0.0002235
h    -2.6601171    0.5979919   -1.0634330  0.00    0.0403483    0.0629731    0.0417160
h    -3.0856108   -0.2931749    0.2710065  0.00    0.0014979   -0.0037197    0.0027875
o    -2.5362180    3.8936746    0.5939273  0.00   -0.0079163   -0.0752949   -0.0337246
o    -1.3589291    2.0571290   -0.3422474  0.00   -0.1040412   -0.0620137   -0.0841399
h    -0.6279071    2.0619818    0.3997102  0.00    0.0246630   -0.0120332    0.0480541
    13
 Energy =       0.0706316283
c    -3.7202662    1.7040457    0.3151322  0.00   -0.0113828   -0.0001764    0.0050398
c    -2.4743137    2.5828586    0.2518225  0.00    0.0271019    0.0897675    0.0356614
c    -4.9366154    2.3983136   -0.3154666  0.00   -0.0041528    0.0026029    0.0057106
h    -4.7199178    2.6777569   -1.3744794  0.00   -0.0004803    0.0030589   -0.0046983
h    -5.2020926    3.3235261    0.2471121  0.00   -0.0028128    0.0027186    0.0011664
h    -5.8111435    1.7176908   -0.3082861  0.00    0.0006637    0.0027957   -0.0005103
n    -3.4837143    0.4195803   -0.3898008  0.00    0.0163629    0.0017209   -0.0194134
h    -3.9248592    1.5140548    1.3965328  0.00    0.0011092   -0.0043159    0.0012612
h    -2.6095965    0.5199280   -0.9733880  0.00    0.0514274    0.0635624    0.0327042
h    -3.2443639   -0.3271889    0.3205072  0.00    0.0048828   -0.0141169    0.0128248
o    -2.4969234    3.8795604    0.5955450  0.00   -0.0076094   -0.0737237   -0.0330396
o    -1.3322526    2.0000274   -0.2685962  0.00   -0.0999551   -0.0621209   -0.0848711
h    -0.6175754    2.0306832    0.4887873  0.00    0.0248452   -0.0117731    0.0481643
    13
 Energy =       0.0615265781
c    -3.7315379    1.7111400    0.3170713  0.00   -0.0060770    0.0030308    0.0035112
c    -2.4798714    2.5807438    0.2489785  0.00    0.0149720    0.0428873    0.0266314
c    -4.9220237    2.3691148   -0.3954841  0.00   -0.0040479    0.0004803    0.0037949
h    -4.6727082    2.5691904   -1.4664615  0.00    0.0001869    0.0026432   -0.0061667
h    -5.1918087    3.3360883    0.0939131  0.00   -0.0025970    0.0045336    0.0021541
h    -5.8028667    1.6952716   -0.3613389  0.00    0.0002347    0.0011458   -0.0000622
n    -3.4953713    0.3834600   -0.3009289  0.00    0.0082103   -0.0003861   -0.0149178
h    -3.9769125    1.5932807    1.4024742  0.00    0.0001353   -0.0027923    0.0039445
h    -2.6051215    0.4274002   -0.8683553  0.00    0.0363474    0.0408439    0.0198017
h    -3.2876538   -0.3215790    0.4567412  0.00    0.0038176   -0.0113868    0.0099393
o    -2.5369043    3.9358153    0.4502055  0.00   -0.0089352   -0.0269340   -0.0197475
o    -1.2978230    1.9714747   -0.1557972  0.00   -0.0745765   -0.0509041   -0.0793768
h    -0.5730313    2.1894363    0.5644041  0.00    0.0323294   -0.0031617    0.0504938
    13
 Energy =       0.0628732829
c    -3.7231264    1.7117131    0.3157259  0.00   -0.0056620    0.0025186    0.0035463
c    -2.4837728    2.5981226    0.2281285  0.00    0.0141863    0.0317838    0.0255091
c    -4.9330633    2.3472662   -0.3851375  0.00   -0.0040631    0.0006167    0.0034396
h    -4.6978938    2.5490317   -1.4588965  0.00    0.0002012    0.0025890   -0.0059985
h    -5.2135502    3.3111816    0.1038194  0.00   -0.0025382    0.0044180    0.0020624
h    -5.8020742    1.6585231   -0.3400236  0.00    0.0000428    0.0009646   -0.0000376
n    -3.4751100    0.3853774   -0.3009151  0.00    0.0077924   -0.0005212   -0.0143053
h    -3.9532181    1.5947980    1.4044352  0.00    0.0001037   -0.0027089    0.0038849
h    -2.5797033    0.4326989   -0.8610556  0.00    0.0349505    0.0391607    0.0188828
h    -3.2713431   -0.3190476    0.4578753  0.00    0.0036750   -0.0109278    0.0095572
o    -2.5749729    3.9740697    0.2914524  0.00   -0.0106006   -0.0130591   -0.0180206
o    -1.2831854    1.9777066   -0.1025367  0.00   -0.0698712   -0.0520872   -0.0777914
h    -0.5826208    2.2193956    0.6325505  0.00    0.0317832   -0.0027472    0.0492710
    13
 Energy =       0.0593355505
c    -3.7354245    1.7134579    0.3181727  0.00   -0.0051842    0.0023560    0.0036524
c    -2.4821855    2.5818823    0.2474859  0.00    0.0136823    0.0200148    0.0220077
c    -4.9176473    2.3592532   -0.4197329  0.00   -0.0043396    0.0008238    0.0032157
h    -4.6565035    2.5396772   -1.4913912  0.00    0.0003367    0.0026135   -0.0062119
h    -5.1919004    3.3350435    0.0491045  0.00   -0.0026307    0.0044635    0.0020298
h    -5.7999246    1.6865885   -0.3821165  0.00   -0.0001698    0.0008037    0.0000513
n    -3.4975392    0.3731298   -0.2703494  0.00    0.0074624   -0.0009365   -0.0139465
h    -3.9934126    1.6177595    1.4031501  0.00   -0.0000995   -0.0026457    0.0042597
h    -2.6067066    0.4033368   -0.8369787  0.00    0.0333796    0.0372498    0.0178032
h    -3.2922280   -0.3153760    0.5022774  0.00    0.0035555   -0.0106736    0.0093866
o    -2.5428871    3.9525239    0.4502055  0.00   -0.0113950   -0.0001170   -0.0147492
o    -1.2936626    1.9684609   -0.1420795  0.00   -0.0663494   -0.0519435   -0.0756384
h    -0.5636125    2.2250996    0.5576741  0.00    0.0317518   -0.0020088    0.0481395
    13
 Energy =       0.0541198711
c    -3.7510859    1.7176925    0.3231953  0.00   -0.0037478    0.0023938    0.0034720
c    -2.4834524    2.5663089    0.2702860  0.00    0.0111488    0.0069941    0.0142599
c    -4.8962777    2.3621220   -0.4717002  0.00   -0.0045635    0.0009361    0.0027703
h    -4.6001673    2.5014719   -1.5405437  0.00    0.0006224    0.0024523   -0.0064739
h    -5.1645415    3.3574433   -0.0417570  0.00   -0.0026605    0.0045375    0.0019648
h    -5.7931976    1.7081648   -0.4378720  0.00   -0.0004009    0.0005257    0.0002164
n    -3.5234762    0.3547705   -0.2131674  0.00    0.0062648   -0.0018725   -0.0127678
h    -4.0475508    1.6612856    1.4018835  0.00   -0.0005250   -0.0022815    0.0049426
h    -2.6399623    0.3571732   -0.7895906  0.00    0.0282758    0.0311194    0.0146643
h    -3.3143410   -0.3028869    0.5840224  0.00    0.0031309   -0.0097582    0.0087453
o    -2.5111071    3.9175271    0.6089586  0.00   -0.0102699    0.0114632   -0.0086253
o    -1.3054472    1.9678809   -0.1740326  0.00   -0.0576990   -0.0464034   -0.0665880
h    -0.5430273    2.2718833    0.4657397  0.00    0.0304239   -0.0001064    0.0434195
    13
 Energy =       0.0479836594
c    -3.7704102    1.7226407    0.3364272  0.00   -0.0006607    0.0034021    0.0032405
c    -2.4964623    2.5620092    0.3045374  0.00    0.0059750   -0.0021639    0.0056543
c    -4.8690776    2.3357473   -0.5451146  0.00   -0.0054654    0.0006539    0.0018846
h    -4.5237853    2.4115568   -1.6063428  0.00    0.0011138    0.0020049   -0.0073607
h    -5.1425827    3.3561995   -0.1806263  0.00   -0.0027594    0.0051874    0.0020728
h    -5.7756496    1.6945742   -0.5151244  0.00   -0.0004677    0.0003138    0.0003297
n    -3.5380596    0.3301085   -0.1141122  0.00    0.0038773   -0.0037361   -0.0126285
h    -4.1213613    1.7264814    1.4018268  0.00   -0.0012476   -0.0013180    0.0064803
h    -2.6732254    0.3031325   -0.7157544  0.00    0.0206739    0.0219876    0.0098223
h    -3.3012761   -0.2701703    0.7198381  0.00    0.0028012   -0.0093001    0.0092841
o    -2.5045184    3.8802001    0.7677117  0.00   -0.0079912    0.0172138   -0.0019964
o    -1.3257624    2.0026278   -0.2074548  0.00   -0.0460343   -0.0377622   -0.0528901
h    -0.5314632    2.3857293    0.3396103  0.00    0.0301850    0.0035167    0.0361071
    13
 Energy =       0.0440818857
c    -3.7803446    1.7331428    0.3580358  0.00    0.0006473    0.0050517    0.0029760
c    -2.5010414    2.5629119    0.3117080  0.00    0.0013038   -0.0021148    0.0036522
c    -4.8501086    2.3047045   -0.5833008  0.00   -0.0048163    0.0002510    0.0012590
h    -4.4773584    2.3210463   -1.6374578  0.00    0.0012162    0.0015415   -0.0070262
h    -5.1238700    3.3448624   -0.2796906  0.00   -0.0024746    0.0053373    0.0019793
h    -5.7620340    1.6714975   -0.5420714  0.00   -0.0003834    0.0000617    0.0003396
n    -3.5541754    0.3149348   -0.0057862  0.00    0.0002229   -0.0054485   -0.0120671
h    -4.1588607    1.7993915    1.4121928  0.00   -0.0014769   -0.0007075    0.0066488
h    -2.7195242    0.2533872   -0.6465077  0.00    0.0164028    0.0157651    0.0052934
h    -3.2760214   -0.2243730    0.8571865  0.00    0.0027420   -0.0089401    0.0106101
o    -2.4843244    3.8555863    0.8391401  0.00   -0.0065976    0.0147748   -0.0001206
o    -1.3515636    2.0339563   -0.2788839  0.00   -0.0344037   -0.0305526   -0.0423148
h    -0.5344077    2.4697885    0.1808572  0.00    0.0276176    0.0049804    0.0287703
    13
 Energy =       0.0419026603
c    -3.7820509    1.7410340    0.3780078  0.00    0.0012286    0.0065593    0.0035458
c    -2.5147647    2.5870923    0.3048346  0.00   -0.0026257   -0.0008045    0.0041035
c    -4.8428487    2.2450552   -0.6108601  0.00   -0.0045936   -0.0001933    0.0001269
h    -4.4519761    2.2102625   -1.6575998  0.00    0.0010405    0.0011472   -0.0066574
h    -5.1350339    3.2962449   -0.3672962  0.00   -0.0022839    0.0057775    0.0019501
h    -5.7464593    1.6010531   -0.5515080  0.00   -0.0004533   -0.0002148    0.0001641
n    -3.5349617    0.3066967    0.0989051  0.00   -0.0009577   -0.0072031   -0.0121030
h    -4.1787184    1.8609489    1.4206453  0.00   -0.0012869   -0.0001509    0.0065498
h    -2.7129780    0.2171212   -0.5537621  0.00    0.0125073    0.0111886    0.0034929
h    -3.2350347   -0.1744534    0.9885074  0.00    0.0028457   -0.0085091    0.0108604
o    -2.4914722    3.8580020    0.8800411  0.00   -0.0059194    0.0125148    0.0006767
o    -1.3865701    2.1062118   -0.3665973  0.00   -0.0248449   -0.0254254   -0.0359342
h    -0.5607655    2.5855677    0.0221041  0.00    0.0253432    0.0053135    0.0232244
    13
 Energy =       0.0418538395
c    -3.7701291    1.7500697    0.3952313  0.00    0.0007836    0.0076963    0.0050938
c    -2.5272865    2.6273128    0.2581501  0.00   -0.0043001    0.0015782    0.0055021
c    -4.8565417    2.1746575   -0.6051911  0.00   -0.0046523   -0.0000572   -0.0014003
h    -4.4746351    2.1030183   -1.6536169  0.00    0.0008353    0.0010999   -0.0069142
h    -5.1769582    3.2280116   -0.4074634  0.00   -0.0023149    0.0066832    0.0019435
h    -5.7400999    1.5062078   -0.5065273  0.00   -0.0013147   -0.0010865    0.0001060
n    -3.4908165    0.3073988    0.1886330  0.00   -0.0021673   -0.0093305   -0.0129057
h    -4.1564131    1.9146700    1.4362616  0.00   -0.0010926   -0.0000785    0.0071554
h    -2.6571801    0.1971428   -0.4459711  0.00    0.0113836    0.0085202    0.0026890
h    -3.2007493   -0.1288370    1.1048975  0.00    0.0032578   -0.0088233    0.0118527
o    -2.5037279    3.8947352    0.8397195  0.00   -0.0055632    0.0115374    0.0005985
o    -1.4252279    2.1829098   -0.4820521  0.00   -0.0198840   -0.0231961   -0.0354167
h    -0.5938688    2.6835398   -0.1366490  0.00    0.0250286    0.0054568    0.0216959
    13
 Energy =       0.0401541720
c    -3.7939980    1.7403687    0.3825222  0.00   -0.0002802    0.0065693    0.0069151
c    -2.5134960    2.5773975    0.3388462  0.00   -0.0037800    0.0040068    0.0064519
c    -4.8272814    2.2482036   -0.6396271  0.00   -0.0046677    0.0011039   -0.0034160
h    -4.4134970    2.1997422   -1.6772512  0.00    0.0007593    0.0012069   -0.0072645
h    -5.1118535    3.3065974   -0.4137225  0.00   -0.0022887    0.0072050    0.0016969
h    -5.7416565    1.6124953   -0.5958575  0.00   -0.0031569   -0.0024607    0.0001034
n    -3.5560221    0.2999670    0.1192900  0.00   -0.0071473   -0.0093543   -0.0125887
h    -4.2145814    1.8677637    1.4159333  0.00   -0.0011239   -0.0004839    0.0079790
h    -2.7680370    0.1981982   -0.5762672  0.00    0.0128684    0.0051637   -0.0012318
h    -3.2077697   -0.1599726    1.0051580  0.00    0.0043688   -0.0093713    0.0142588
o    -2.4813197    3.8314009    0.9480467  0.00   -0.0042724    0.0112509    0.0005915
o    -1.3831974    2.1099129   -0.3437530  0.00   -0.0146324   -0.0200097   -0.0333684
h    -0.5609246    2.6087623    0.0221041  0.00    0.0233529    0.0051733    0.0198727
    13
 Energy =       0.0373342698
c    -3.8209551    1.7328446    0.3736074  0.00   -0.0007229    0.0010869    0.0045910
c    -2.5124943    2.5266850    0.4309022  0.00   -0.0001800    0.0017692    0.0032538
c    -4.7786568    2.2972515   -0.6899470  0.00   -0.0034626    0.0022292   -0.0034438
h    -4.3148516    2.2461740   -1.7043297  0.00    0.0008446    0.0008870   -0.0056030
h    -5.0317860    3.3607111   -0.4633171  0.00   -0.0016430    0.0046913    0.0007130
h    -5.7198559    1.6989146   -0.7011361  0.00   -0.0039317   -0.0027050    0.0002143
n    -3.6135549    0.2978308    0.0856017  0.00   -0.0080689   -0.0048957   -0.0072239
h    -4.2968311    1.8433983    1.3831756  0.00   -0.0012704   -0.0008406    0.0064544
h    -2.8743933    0.1990820   -0.6622858  0.00    0.0100223    0.0023777   -0.0039814
h    -3.2097053   -0.1641796    0.9435496  0.00    0.0034650   -0.0062280    0.0109872
o    -2.4642460    3.7452332    1.1067998  0.00   -0.0009419    0.0098612    0.0017161
o    -1.3706810    2.0592949   -0.2235345  0.00   -0.0092941   -0.0122800   -0.0201079
h    -0.5656230    2.5975966    0.1063361  0.00    0.0151837    0.0040467    0.0124303
    13
 Energy =       0.0355044568
c    -3.8419356    1.7293435    0.3754144  0.00    0.0006413   -0.0020872    0.0005829
c    -2.5226082    2.4881863    0.5042042  0.00    0.0007569   -0.0028194   -0.0012404
c    -4.7233212    2.3141356   -0.7348929  0.00   -0.0017346    0.0017046   -0.0010147
h    -4.2078907    2.2422723   -1.7200696  0.00    0.0008138    0.0002553   -0.0027065
h    -4.9545339    3.3829183   -0.5273017  0.00   -0.0007142    0.0012417    0.0000146
h    -5.6794639    1.7467833   -0.7921766  0.00   -0.0021289   -0.0012082    0.0002598
n    -3.6552609    0.2945874    0.1015178  0.00   -0.0037201   -0.0002976   -0.0013763
h    -4.3706236    1.8520690    1.3533934  0.00   -0.0010063   -0.0004818    0.0028603
h    -2.9633726    0.1822717   -0.6847856  0.00    0.0041845    0.0010034   -0.0028560
h    -3.2036828   -0.1496220    0.9390962  0.00    0.0011661   -0.0017199    0.0041727
o    -2.4597514    3.6539206    1.2655529  0.00    0.0000965    0.0075182    0.0033889
o    -1.3879723    2.0539282   -0.1754964  0.00   -0.0070517   -0.0068606   -0.0064273
h    -0.6032173    2.6500428    0.0809659  0.00    0.0086965    0.0037515    0.0043421
    13
 Energy =       0.0351066215
c    -3.8497508    1.7390726    0.3911341  0.00    0.0012366    0.0021051    0.0005863
c    -2.5337514    2.4966747    0.5163962  0.00   -0.0053071   -0.0023370    0.0018620
c    -4.6907711    2.2713054   -0.7734288  0.00   -0.0014184    0.0001075   -0.0005160
h    -4.1406974    2.1533579   -1.7344783  0.00    0.0006922   -0.0001505   -0.0017145
h    -4.9262140    3.3489686   -0.6232157  0.00   -0.0005594    0.0015480    0.0002801
h    -5.6436237    1.7036781   -0.8394501  0.00   -0.0001306    0.0000505   -0.0000404
n    -3.6613924    0.2905328    0.1974086  0.00   -0.0011078   -0.0031658   -0.0008490
h    -4.4070433    1.9146355    1.3439968  0.00   -0.0007538    0.0003906    0.0018591
h    -2.9875339    0.1349170   -0.5948700  0.00    0.0011640    0.0001856   -0.0014544
h    -3.1930915   -0.1047449    1.0486380  0.00    0.0007731   -0.0009431    0.0019894
o    -2.4458224    3.5997027    1.3633207  0.00   -0.0022312    0.0062474    0.0047135
o    -1.4327646    2.1358139   -0.2624497  0.00    0.0052311   -0.0044471   -0.0067934
h    -0.6611776    2.7569229   -0.0475798  0.00    0.0024114    0.0004087    0.0000773
    13
 Energy =       0.0349697654
c    -3.8602722    1.7531967    0.3880304  0.00    0.0001690    0.0000999    0.0000797
c    -2.5418553    2.5046123    0.5233689  0.00    0.0019921   -0.0005199   -0.0013961
c    -4.6620072    2.2451957   -0.8192632  0.00   -0.0005032    0.0000568   -0.0000827
h    -4.0833403    2.0891226   -1.7566272  0.00    0.0002899   -0.0000533   -0.0005599
h    -4.8944038    3.3279149   -0.7173896  0.00   -0.0001922    0.0004543    0.0000276
h    -5.6157399    1.6801121   -0.8934144  0.00   -0.0000544    0.0000223    0.0000161
n    -3.6764232    0.2993109    0.2543554  0.00   -0.0003783    0.0001099    0.0000953
h    -4.4445885    1.9668203    1.3150996  0.00   -0.0003389    0.0000700    0.0004872
h    -2.9884916    0.1080758   -0.5170560  0.00    0.0005030   -0.0004114   -0.0006056
h    -3.2281955   -0.0655458    1.1284868  0.00    0.0003574   -0.0003596    0.0003742
o    -2.4321561    3.5657263    1.4128548  0.00    0.0006401   -0.0002678   -0.0006862
o    -1.4568958    2.1723468   -0.2764815  0.00   -0.0015454    0.0009548    0.0022241
h    -0.6892649    2.7939483   -0.0565421  0.00   -0.0009392   -0.0001560    0.0000262
    13
 Energy =       0.0349664261
c    -3.8714419    1.7650459    0.3794286  0.00    0.0000590    0.0001461    0.0001508
c    -2.5434997    2.4957640    0.5365862  0.00    0.0011446   -0.0002359   -0.0007236
c    -4.6369735    2.2564268   -0.8518930  0.00   -0.0006365    0.0003493   -0.0001661
h    -4.0393032    2.0800112   -1.7739351  0.00    0.0004893   -0.0000618   -0.0007937
h    -4.8536035    3.3440612   -0.7678204  0.00   -0.0002694    0.0005953   -0.0000495
h    -5.5983746    1.7063453   -0.9416601  0.00   -0.0002997   -0.0000640    0.0000408
n    -3.7091101    0.3066171    0.2668376  0.00   -0.0008720   -0.0000140    0.0002179
h    -4.4734719    1.9992159    1.2904115  0.00   -0.0005709    0.0000706    0.0007178
h    -3.0063028    0.0951742   -0.4861087  0.00    0.0008971   -0.0004497   -0.0009775
h    -3.2876978   -0.0556009    1.1556948  0.00    0.0005696   -0.0006211    0.0008663
o    -2.4352669    3.5621276    1.4201220  0.00    0.0003691   -0.0001384   -0.0004220
o    -1.4464606    2.1382739   -0.2373665  0.00   -0.0005318    0.0004130    0.0011283
h    -0.6721278    2.7473749   -0.0048750  0.00   -0.0003484    0.0000105    0.0000105
    13
 Energy =       0.0349545202
c    -3.8681527    1.7604210    0.3828765  0.00    0.0000505    0.0001968    0.0001671
c    -2.5409952    2.4932570    0.5357402  0.00    0.0005122   -0.0005301   -0.0006473
c    -4.6432371    2.2578627   -0.8399753  0.00   -0.0006183    0.0003299   -0.0001649
h    -4.0509863    2.0894135   -1.7669949  0.00    0.0004713   -0.0000636   -0.0007607
h    -4.8623842    3.3442361   -0.7472632  0.00   -0.0002570    0.0005734   -0.0000466
h    -5.6035407    1.7055226   -0.9272783  0.00   -0.0002778   -0.0000576    0.0000392
n    -3.7023722    0.3033296    0.2591732  0.00   -0.0008309   -0.0000569    0.0002081
h    -4.4647482    1.9867210    1.2993994  0.00   -0.0005464    0.0000757    0.0006940
h    -3.0032524    0.0992061   -0.4991824  0.00    0.0008604   -0.0004241   -0.0009336
h    -3.2755940   -0.0640238    1.1433188  0.00    0.0005365   -0.0005850    0.0008307
o    -2.4202977    3.5335426    1.4492452  0.00    0.0001004    0.0006664    0.0004480
o    -1.4571340    2.1628420   -0.2694954  0.00    0.0002990   -0.0001616    0.0001360
h    -0.6809395    2.7685067   -0.0341418  0.00   -0.0002999    0.0000365    0.0000300
    13
 Energy =       0.0349420270
c    -3.8664629    1.7601673    0.3858909  0.00   -0.0000248    0.0001333    0.0001123
c    -2.5408100    2.4963507    0.5322635  0.00   -0.0004560   -0.0005814   -0.0001850
c    -4.6444294    2.2484532   -0.8379755  0.00   -0.0001834    0.0001092   -0.0000717
h    -4.0531058    2.0765539   -1.7643347  0.00    0.0001455   -0.0000196   -0.0002328
h    -4.8658976    3.3343998   -0.7510257  0.00   -0.0000785    0.0001897   -0.0000098
h    -5.6030733    1.6929371   -0.9212573  0.00   -0.0000942   -0.0000258    0.0000082
n    -3.6974228    0.3032848    0.2694845  0.00   -0.0002703   -0.0000538    0.0000493
h    -4.4618792    1.9899861    1.3016774  0.00   -0.0001647    0.0000168    0.0002178
h    -2.9974103    0.0974716   -0.4868853  0.00    0.0002631   -0.0001270   -0.0002875
h    -3.2718471   -0.0585542    1.1559658  0.00    0.0001709   -0.0001892    0.0002684
o    -2.4046130    3.5065603    1.4774677  0.00   -0.0002583    0.0011606    0.0011791
o    -1.4729631    2.1961736   -0.3069043  0.00    0.0010216   -0.0006653   -0.0010867
h    -0.6937198    2.7970529   -0.0689451  0.00   -0.0000710    0.0000525    0.0000384
    13
 Energy =       0.0349383040
c    -3.8682335    1.7645731    0.3856067  0.00    0.0000567    0.0001173    0.0000483
c    -2.5437849    2.5029893    0.5296927  0.00    0.0000795    0.0000808    0.0000358
c    -4.6391955    2.2354872   -0.8491646  0.00   -0.0000485   -0.0000416   -0.0000404
h    -4.0423602    2.0513626   -1.7694049  0.00    0.0000115   -0.0000126   -0.0000527
h    -4.8616028    3.3222826   -0.7784152  0.00   -0.0000177    0.0000856    0.0000105
h    -5.5968412    1.6781941   -0.9306862  0.00    0.0000138    0.0000015   -0.0000080
n    -3.6977806    0.3064785    0.2897845  0.00   -0.0000642   -0.0001225   -0.0000911
h    -4.4690151    2.0065186    1.2945236  0.00   -0.0000109    0.0000305    0.0000549
h    -2.9924198    0.0911707   -0.4586708  0.00    0.0000421   -0.0000270   -0.0000547
h    -3.2789838   -0.0432144    1.1841871  0.00    0.0000471   -0.0000474    0.0001182
o    -2.4026351    3.5039074    1.4825037  0.00    0.0000227   -0.0001433   -0.0001716
o    -1.4805618    2.2109405   -0.3166003  0.00   -0.0001486    0.0000844    0.0001558
h    -0.7002201    2.8101468   -0.0779343  0.00    0.0000164   -0.0000058   -0.0000051
    13
 Energy =       0.0349382286
c    -3.8683303    1.7646642    0.3856070  0.00    0.0000000    0.0000001   -0.0000001
c    -2.5437499    2.5028537    0.5298143  0.00   -0.0000015   -0.0000023   -0.0000015
c    -4.6388753    2.2353004   -0.8494330  0.00   -0.0000000    0.0000000   -0.0000001
h    -4.0417723    2.0508803   -1.7693873  0.00    0.0000001   -0.0000001   -0.0000001
h    -4.8611353    3.3220653   -0.7790924  0.00   -0.0000000    0.0000000   -0.0000001
h    -5.5965925    1.6781191   -0.9310513  0.00    0.0000000   -0.0000000   -0.0000000
n    -3.6980658    0.3066292    0.2902640  0.00   -0.0000001   -0.0000001    0.0000001
h    -4.4693547    2.0069032    1.2942240  0.00   -0.0000001    0.0000000    0.0000001
h    -2.9925529    0.0910485   -0.4579136  0.00    0.0000001   -0.0000000   -0.0000000
h    -3.2795829   -0.0428478    1.1848076  0.00    0.0000000   -0.0000000    0.0000002
o    -2.4016271    3.5018127    1.4847179  0.00   -0.0000003    0.0000038    0.0000046
o    -1.4812566    2.2122992   -0.3180991  0.00    0.0000016   -0.0000017   -0.0000033
h    -0.7007388    2.8111090   -0.0790363  0.00    0.0000002    0.0000002    0.0000002
    13
 Energy =       0.0349382285
c    -3.8683253    1.7646580    0.3856048  0.00    0.0000000    0.0000000   -0.0000000
c    -2.5437519    2.5028621    0.5298049  0.00   -0.0000000   -0.0000000   -0.0000000
c    -4.6388953    2.2353092   -0.8494134  0.00   -0.0000000    0.0000000   -0.0000000
h    -4.0418082    2.0509095   -1.7693816  0.00    0.0000000   -0.0000000   -0.0000000
h    -4.8611631    3.3220712   -0.7790489  0.00   -0.0000000    0.0000000   -0.0000000
h    -5.5966099    1.6781221   -0.9310237  0.00   -0.0000000   -0.0000000   -0.0000000
n    -3.6980494    0.3066259    0.2902336  0.00   -0.0000000   -0.0000000    0.0000000
h    -4.4693365    2.0068750    1.2942361  0.00   -0.0000000    0.0000000    0.0000000
h    -2.9925486    0.0910640   -0.4579607  0.00    0.0000000   -0.0000000   -0.0000000
h    -3.2795427   -0.0428614    1.1847619  0.00    0.0000000   -0.0000000    0.0000000
o    -2.4017021    3.5019641    1.4845650  0.00   -0.0000000    0.0000000    0.0000000
o    -1.4812000    2.2121952   -0.3179937  0.00    0.0000000   -0.0000000   -0.0000000
h    -0.7007012    2.8110421   -0.0789624  0.00    0.0000000    0.0000000    0.0000000
