    13
 Energy =       0.1077549948
c    -3.7133889    1.6950595    0.3173519  0.00   -0.0733632    0.0232536    0.0960112
c    -2.4962693    2.6345192    0.2419999  0.00    0.2282854    0.1407039   -0.2992988
c    -4.9565486    2.3924193   -0.2155699  0.00    0.0201944    0.0093662    0.0063405
h    -5.8072983    1.7014095   -0.2223689  0.00    0.0128331    0.0085428   -0.0027661
h    -4.8071186    2.7393792   -1.2437896  0.00   -0.0078759   -0.0050251    0.0176483
h    -5.2375685    3.2516891    0.4029209  0.00   -0.0018479   -0.0145049   -0.0120849
n    -3.4097890    0.4519539   -0.4549189  0.00    0.0235942   -0.0674962   -0.0119110
h    -3.8575589    1.4177196    1.3669296  0.00    0.0096515   -0.0094784   -0.0276873
h    -3.2072391   -0.2948399    0.2179739  0.00   -0.0167093    0.0298796   -0.0188178
h    -4.2689788    0.1396900   -0.9176007  0.00    0.0231444    0.0220915    0.0255476
o    -1.9513094    3.0041591   -0.7839488  0.00   -0.1404434   -0.0900400    0.2464431
o    -2.1005994    3.0267291    1.4825496  0.00   -0.0376657   -0.0336690   -0.0113515
h    -1.1397697    2.7938992    1.5347396  0.00   -0.0397974   -0.0136239   -0.0080734
    13
 Energy =       0.0862588581
c    -3.6958724    1.6935280    0.3096490  0.00   -0.0319212    0.0111520    0.0399359
c    -2.5329515    2.6851263    0.2799867  0.00    0.1040468    0.0523640   -0.1278694
c    -4.9880223    2.3512667   -0.1877674  0.00    0.0087206    0.0041257    0.0033340
h    -5.8090100    1.6104264   -0.2264830  0.00    0.0041789    0.0017822   -0.0010801
h    -4.8454354    2.7738113   -1.2029061  0.00   -0.0025698   -0.0001945    0.0053256
h    -5.3023063    3.1691352    0.4906405  0.00   -0.0023098   -0.0043062   -0.0030114
n    -3.3612001    0.4984845   -0.5069710  0.00    0.0139761   -0.0239149   -0.0048959
h    -3.8237825    1.3886233    1.3667569  0.00    0.0048100   -0.0043288   -0.0112339
h    -3.1006576   -0.2890753    0.1212813  0.00   -0.0062085    0.0080854   -0.0058178
h    -4.1845926    0.1655955   -1.0500636  0.00    0.0064341    0.0058733    0.0069364
o    -1.9662781    3.0768174   -0.8409613  0.00   -0.0601029   -0.0394839    0.1055779
o    -2.1185410    3.1854823    1.4928527  0.00   -0.1019556    0.0518285   -0.0099412
h    -1.2247867    2.6445655    1.6802538  0.00    0.0629013   -0.0629828    0.0027400
    13
 Energy =       0.0759957845
c    -3.7026421    1.6877479    0.3223554  0.00   -0.0102092    0.0035739    0.0140379
c    -2.5598474    2.6948157    0.3188668  0.00    0.0333942    0.0145670   -0.0396862
c    -5.0011726    2.3074843   -0.2166568  0.00    0.0054089   -0.0016446    0.0034689
h    -5.8309608    1.5662259   -0.1516356  0.00   -0.0014792   -0.0043979    0.0006835
h    -4.8692164    2.6150581   -1.2841308  0.00   -0.0003292    0.0013916   -0.0052855
h    -5.2838959    3.2076430    0.3817898  0.00   -0.0018808    0.0037394    0.0030761
n    -3.3367244    0.4889449   -0.4658766  0.00    0.0113148   -0.0044059   -0.0001245
h    -3.8575319    1.4090535    1.3900436  0.00    0.0018170   -0.0015950   -0.0030844
h    -3.1328289   -0.3091618    0.1800319  0.00   -0.0011047    0.0007279    0.0001908
h    -4.1137870    0.1740077   -1.0989041  0.00   -0.0040527    0.0005424   -0.0035151
o    -1.9879645    3.1221628   -0.8460867  0.00   -0.0201535   -0.0111747    0.0330270
o    -2.1086814    3.1983676    1.5264602  0.00   -0.0430400    0.0309578   -0.0085733
h    -1.1681835    2.7914374    1.6700114  0.00    0.0303146   -0.0322819    0.0057848
    13
 Energy =       0.0740920385
c    -3.7158423    1.6890501    0.3331176  0.00   -0.0089556    0.0031903    0.0097845
c    -2.5372201    2.6538725    0.3242524  0.00    0.0234977    0.0057777   -0.0303996
c    -4.9968029    2.3555434   -0.1967936  0.00    0.0041835   -0.0007705    0.0022964
h    -5.8516613    1.6436900   -0.1315047  0.00   -0.0017238   -0.0039440    0.0005571
h    -4.8590450    2.6637450   -1.2623383  0.00   -0.0002433    0.0011462   -0.0042227
h    -5.2453628    3.2623978    0.4056281  0.00   -0.0016912    0.0034708    0.0027034
n    -3.3970275    0.4786997   -0.4578896  0.00    0.0109734   -0.0017100   -0.0009711
h    -3.8736811    1.4163906    1.4026907  0.00    0.0012155   -0.0013363   -0.0023527
h    -3.2525370   -0.3369904    0.1853249  0.00   -0.0004318   -0.0020942    0.0017607
h    -4.1750358    0.2109439   -1.1124219  0.00   -0.0049436   -0.0001247   -0.0040754
o    -2.0599637    3.1783010   -0.8575586  0.00   -0.0155812   -0.0060917    0.0141197
o    -1.9798267    3.0524933    1.5361053  0.00   -0.0432830    0.0341594    0.0060256
h    -1.0094303    2.6856500    1.5576561  0.00    0.0369834   -0.0316731    0.0047741
    13
 Energy =       0.0744128495
c    -3.7077502    1.6851905    0.3306927  0.00   -0.0089056    0.0030485    0.0103972
c    -2.5685276    2.6978528    0.3435864  0.00    0.0203869    0.0032396   -0.0236802
c    -5.0119418    2.3071709   -0.1999064  0.00    0.0034909   -0.0001034    0.0018841
h    -5.8409617    1.5639193   -0.1439885  0.00   -0.0022236   -0.0040694    0.0005804
h    -4.8805298    2.6291660   -1.2618848  0.00   -0.0001294    0.0011108   -0.0039123
h    -5.2961153    3.2005478    0.4073590  0.00   -0.0017842    0.0037314    0.0027326
n    -3.3351641    0.4975987   -0.4729492  0.00    0.0110658   -0.0027162   -0.0015233
h    -3.8631938    1.3931285    1.3959542  0.00    0.0008776   -0.0012670   -0.0019243
h    -3.1720297   -0.3220397    0.1608347  0.00   -0.0003762   -0.0023225    0.0016551
h    -4.0943613    0.2119552   -1.1419748  0.00   -0.0048513   -0.0006282   -0.0041730
o    -2.1433763    3.3075502   -0.8229993  0.00   -0.0117688   -0.0022809    0.0075417
o    -2.0060917    3.0674122    1.5621455  0.00   -0.0393092    0.0309322    0.0061592
h    -1.0333933    2.7143345    1.5693990  0.00    0.0335270   -0.0286749    0.0042628
    13
 Energy =       0.0756914436
c    -3.6919406    1.6870717    0.3311078  0.00   -0.0091275    0.0019081    0.0121600
c    -2.6177938    2.7728543    0.3369467  0.00    0.0181072    0.0001199   -0.0152245
c    -5.0378914    2.2264294   -0.1944624  0.00    0.0018496    0.0016144    0.0009200
h    -5.8232637    1.4358347   -0.1276056  0.00   -0.0035141   -0.0050864    0.0006480
h    -4.9326941    2.5491801   -1.2591393  0.00   -0.0001762    0.0013357   -0.0038518
h    -5.3696568    3.1078713    0.4073301  0.00   -0.0021103    0.0044470    0.0028416
n    -3.2493423    0.5221550   -0.4727789  0.00    0.0129497   -0.0010859   -0.0026162
h    -3.8250196    1.3871262    1.3976518  0.00    0.0006355   -0.0015294   -0.0014579
h    -3.0147863   -0.2816424    0.1628252  0.00    0.0006884   -0.0058525    0.0035361
h    -4.0020196    0.1777287   -1.1235441  0.00   -0.0066655   -0.0016793   -0.0056348
o    -2.2900535    3.4663033   -0.8225394  0.00   -0.0072598    0.0038502   -0.0012728
o    -2.0316081    3.1360501    1.5458908  0.00   -0.0360020    0.0276815    0.0062603
h    -1.0673668    2.7668245    1.5445859  0.00    0.0306251   -0.0257233    0.0036920
    13
 Energy =       0.0773985950
c    -3.6826543    1.6929696    0.3255192  0.00   -0.0100177    0.0016914    0.0134087
c    -2.6628611    2.8324864    0.3452294  0.00    0.0171643   -0.0021590   -0.0102203
c    -5.0492827    2.1711396   -0.2100405  0.00    0.0010320    0.0021506    0.0003599
h    -5.8026989    1.3493085   -0.1425951  0.00   -0.0040058   -0.0054793    0.0006230
h    -4.9518000    2.4920166   -1.2759009  0.00   -0.0002225    0.0013282   -0.0036910
h    -5.4206031    3.0428396    0.3837657  0.00   -0.0023244    0.0048979    0.0030154
n    -3.1787688    0.5542680   -0.4817363  0.00    0.0155213    0.0035200   -0.0043365
h    -3.8124647    1.3809558    1.3891100  0.00    0.0003555   -0.0013735   -0.0011728
h    -2.8560332   -0.2224423    0.1551494  0.00    0.0029241   -0.0109955    0.0069065
h    -3.9327143    0.1412689   -1.0942493  0.00   -0.0101745   -0.0032459   -0.0080085
o    -2.4122251    3.5968096   -0.7939436  0.00   -0.0048343    0.0079085   -0.0066229
o    -2.0636288    3.1814213    1.5519502  0.00   -0.0392940    0.0279599    0.0065849
h    -1.1277016    2.7407453    1.5740103  0.00    0.0338760   -0.0262033    0.0031535
    13
 Energy =       0.0764457736
c    -3.7175339    1.6859382    0.3075131  0.00   -0.0114324   -0.0022569    0.0169967
c    -2.6295532    2.7647660    0.4132568  0.00    0.0214832   -0.0047230   -0.0110418
c    -5.0263909    2.2640677   -0.2869371  0.00   -0.0015985    0.0062870   -0.0002237
h    -5.8391394    1.4916218   -0.2618931  0.00   -0.0078690   -0.0088538    0.0011396
h    -4.8569168    2.5866377   -1.3464012  0.00    0.0000771    0.0028069   -0.0067644
h    -5.3677942    3.1554346    0.2988364  0.00   -0.0033775    0.0066534    0.0035701
n    -3.2429459    0.5452378   -0.5160594  0.00    0.0260140    0.0165840   -0.0072484
h    -3.9225139    1.3425971    1.3524920  0.00   -0.0001934   -0.0036034    0.0015214
h    -2.8076384   -0.1908788    0.1157663  0.00    0.0090599   -0.0198666    0.0160648
h    -4.0534793    0.0682022   -1.0181049  0.00   -0.0242332   -0.0112056   -0.0165647
o    -2.2647055    3.5408696   -0.6937571  0.00   -0.0029154    0.0147530   -0.0147804
o    -2.0905377    3.0540298    1.6681246  0.00   -0.0468199    0.0352368    0.0145208
h    -1.1342877    2.6452632    1.6934321  0.00    0.0418051   -0.0318118    0.0028099
    13
 Energy =       0.0727474227
c    -3.7497036    1.6816327    0.3066072  0.00   -0.0114133   -0.0039377    0.0176184
c    -2.5944001    2.6870208    0.4426843  0.00    0.0186113   -0.0088908   -0.0037084
c    -5.0077808    2.3417010   -0.3154929  0.00   -0.0029578    0.0081414   -0.0007304
h    -5.8646329    1.6164126   -0.3138300  0.00   -0.0089910   -0.0094959    0.0012210
h    -4.7945610    2.6579338   -1.3691716  0.00    0.0002165    0.0031529   -0.0070482
h    -5.3115311    3.2481106    0.2678035  0.00   -0.0035483    0.0068885    0.0033830
n    -3.3295462    0.5181057   -0.5137342  0.00    0.0259985    0.0140672   -0.0066630
h    -3.9979766    1.3439882    1.3447736  0.00   -0.0004392   -0.0042889    0.0020632
h    -2.8842554   -0.2130181    0.1148364  0.00    0.0083337   -0.0180921    0.0149025
h    -4.1664679    0.0484497   -0.9765840  0.00   -0.0233001   -0.0115860   -0.0161140
o    -2.1059524    3.4006312   -0.6656652  0.00    0.0029212    0.0200530   -0.0217685
o    -2.0788294    2.9489477    1.7128804  0.00   -0.0616056    0.0380546    0.0170948
h    -1.0677990    2.6738710    1.6911610  0.00    0.0561741   -0.0340662   -0.0002504
    13
 Energy =       0.0665817308
c    -3.7879724    1.6823159    0.3029728  0.00   -0.0087128   -0.0052515    0.0138648
c    -2.5644249    2.5946993    0.4816834  0.00    0.0107749   -0.0097066    0.0022486
c    -4.9731202    2.4327008   -0.3575017  0.00   -0.0039553    0.0090736   -0.0010759
h    -5.8774009    1.7699357   -0.3887998  0.00   -0.0087633   -0.0083524    0.0011172
h    -4.7024381    2.7342645   -1.4013827  0.00    0.0004423    0.0030487   -0.0062426
h    -5.2327673    3.3548289    0.2190384  0.00   -0.0030806    0.0056692    0.0023756
n    -3.4329580    0.4970268   -0.5115333  0.00    0.0215760    0.0092350   -0.0043259
h    -4.0926044    1.3578570    1.3308721  0.00   -0.0008903   -0.0044788    0.0025487
h    -2.9566143   -0.2173194    0.1064127  0.00    0.0059002   -0.0122986    0.0110284
h    -4.2993511    0.0257510   -0.9051500  0.00   -0.0185563   -0.0103427   -0.0130680
o    -1.9615697    3.2418781   -0.6119791  0.00    0.0085357    0.0191511   -0.0209606
o    -2.0546339    2.8018976    1.7625228  0.00   -0.0596591    0.0308521    0.0164992
h    -1.0175812    2.6779508    1.6991130  0.00    0.0563887   -0.0265989   -0.0040095
    13
 Energy =       0.0604034361
c    -3.8216327    1.6850186    0.2968306  0.00   -0.0056194   -0.0046785    0.0092665
c    -2.5392989    2.4985711    0.5128534  0.00    0.0060775   -0.0060184    0.0020001
c    -4.9246142    2.5203265   -0.3965125  0.00   -0.0035003    0.0082977   -0.0011664
h    -5.8719933    1.9276431   -0.4607041  0.00   -0.0075101   -0.0062487    0.0008042
h    -4.5990768    2.7999126   -1.4291909  0.00    0.0006206    0.0024915   -0.0046757
h    -5.1337512    3.4569157    0.1734333  0.00   -0.0023328    0.0042050    0.0014045
n    -3.5417583    0.4807252   -0.5129462  0.00    0.0174880    0.0057557   -0.0026097
h    -4.1777572    1.3827368    1.3145074  0.00   -0.0011765   -0.0039080    0.0022955
h    -3.0210643   -0.2159335    0.0827437  0.00    0.0039638   -0.0068483    0.0076481
h    -4.4406198    0.0081425   -0.8134159  0.00   -0.0153004   -0.0090707   -0.0097716
o    -1.8599116    3.0911926   -0.5608925  0.00    0.0084163    0.0126375   -0.0133141
o    -2.0288126    2.6431445    1.8006693  0.00   -0.0479267    0.0188773    0.0142688
h    -0.9931456    2.6753912    1.7188929  0.00    0.0467998   -0.0154922   -0.0061502
    13
 Energy =       0.0557305970
c    -3.8497399    1.6889604    0.2901230  0.00   -0.0031251   -0.0026387    0.0053765
c    -2.5171236    2.4013898    0.5330562  0.00    0.0043213   -0.0015478   -0.0001889
c    -4.8645086    2.6006195   -0.4317843  0.00   -0.0021186    0.0061609   -0.0009166
h    -5.8497558    2.0834105   -0.5249456  0.00   -0.0056556   -0.0038898    0.0004046
h    -4.4896590    2.8488942   -1.4539832  0.00    0.0007611    0.0017055   -0.0029475
h    -5.0167881    3.5512402    0.1299618  0.00   -0.0015490    0.0030204    0.0007758
n    -3.6546801    0.4662592   -0.5121041  0.00    0.0138101    0.0029462   -0.0021618
h    -4.2497603    1.4207671    1.3000890  0.00   -0.0012874   -0.0028360    0.0016379
h    -3.0897285   -0.2194550    0.0503133  0.00    0.0026722   -0.0028622    0.0048204
h    -4.5831826    0.0013048   -0.7070310  0.00   -0.0128176   -0.0073492   -0.0061119
o    -1.7890391    2.9530918   -0.5232336  0.00    0.0049083    0.0054958   -0.0054565
o    -2.0053753    2.4843914    1.8249360  0.00   -0.0336092    0.0066236    0.0106643
h    -0.9940957    2.6729130    1.7508710  0.00    0.0336896   -0.0048286   -0.0058961
    13
 Energy =       0.0532114590
c    -3.8729978    1.6967203    0.2843853  0.00   -0.0010310   -0.0002080    0.0016595
c    -2.4994088    2.3102355    0.5451767  0.00    0.0031891    0.0012678   -0.0021584
c    -4.7952442    2.6692545   -0.4709185  0.00   -0.0006131    0.0028985   -0.0001522
h    -5.8123528    2.2304058   -0.5842239  0.00   -0.0030660   -0.0015559    0.0001384
h    -4.3782239    2.8697205   -1.4859505  0.00    0.0009067    0.0008331   -0.0015647
h    -4.8853083    3.6366148    0.0732694  0.00   -0.0008326    0.0020413    0.0004884
n    -3.7669158    0.4535149   -0.4989342  0.00    0.0082437   -0.0000439   -0.0017034
h    -4.3107643    1.4787795    1.2900258  0.00   -0.0012720   -0.0014590    0.0011652
h    -3.1697013   -0.2300933    0.0273319  0.00    0.0010917   -0.0003106    0.0017454
h    -4.7163671    0.0082171   -0.5891010  0.00   -0.0077030   -0.0040822   -0.0021374
o    -1.7445818    2.8458822   -0.4947421  0.00    0.0005454    0.0002514   -0.0003449
o    -1.9834364    2.3256383    1.8373663  0.00   -0.0165544   -0.0017892    0.0063148
h    -1.0181342    2.6588969    1.7925832  0.00    0.0170955    0.0021567   -0.0034508
    13
 Energy =       0.0527340116
c    -3.8856053    1.7132844    0.2833235  0.00    0.0002668    0.0003370   -0.0008785
c    -2.4977549    2.2821939    0.5522595  0.00   -0.0026332   -0.0001695   -0.0038032
c    -4.7597454    2.6964327   -0.5071025  0.00   -0.0001581   -0.0000653    0.0003368
h    -5.7897284    2.2967508   -0.6192224  0.00   -0.0001088   -0.0001151    0.0000970
h    -4.3274024    2.8493026   -1.5229542  0.00    0.0004197    0.0001715   -0.0006858
h    -4.8141384    3.6808051    0.0079475  0.00   -0.0002017    0.0006474    0.0003119
n    -3.8195416    0.4515436   -0.4697357  0.00    0.0007851   -0.0004345   -0.0000681
h    -4.3423510    1.5384418    1.2878686  0.00   -0.0004494   -0.0002128    0.0005628
h    -3.2168011   -0.2295177    0.0515278  0.00   -0.0002551    0.0000955   -0.0001793
h    -4.7736438    0.0210339   -0.5110059  0.00   -0.0001779   -0.0003115   -0.0001225
o    -1.7681055    2.8997291   -0.4633295  0.00    0.0006822    0.0016188   -0.0051576
o    -1.9446869    2.1776967    1.8288931  0.00    0.0007072   -0.0017596    0.0110931
h    -1.0139319    2.5760900    1.8077987  0.00    0.0011231    0.0001981   -0.0015067
    13
 Energy =       0.0526715150
c    -3.8886461    1.7228842    0.2870890  0.00    0.0008049    0.0011868    0.0012922
c    -2.5094714    2.3118874    0.5594953  0.00   -0.0003862    0.0000205   -0.0004343
c    -4.7546100    2.6636921   -0.5647638  0.00   -0.0012399    0.0000333   -0.0005547
h    -5.7807819    2.2539966   -0.6751608  0.00   -0.0001065   -0.0000164   -0.0000727
h    -4.3065548    2.7702890   -1.5801876  0.00    0.0003362    0.0001971   -0.0013067
h    -4.8214214    3.6720445   -0.0980566  0.00   -0.0002247    0.0014685    0.0006795
n    -3.8000995    0.4276753   -0.4072641  0.00   -0.0005601   -0.0012770   -0.0025291
h    -4.3633225    1.5906570    1.2902764  0.00   -0.0003073   -0.0000119    0.0012168
h    -3.2011390   -0.2248016    0.1561508  0.00    0.0010975   -0.0014223    0.0010525
h    -4.7503116   -0.0115272   -0.4444686  0.00   -0.0001065   -0.0002727   -0.0000443
o    -1.7876913    2.9483455   -0.4473512  0.00    0.0003886    0.0004062   -0.0012482
o    -1.9551778    2.2041333    1.8306133  0.00   -0.0004280   -0.0005609    0.0023119
h    -1.0342091    2.6245108    1.8198964  0.00    0.0007321    0.0002488   -0.0003628
    13
 Energy =       0.0526518986
c    -3.8912900    1.7284894    0.2873727  0.00   -0.0001246   -0.0002306   -0.0002339
c    -2.5116990    2.3156232    0.5614744  0.00   -0.0004278   -0.0001357   -0.0001631
c    -4.7510129    2.6621371   -0.5748039  0.00    0.0002033   -0.0000060    0.0001168
h    -5.7784114    2.2553013   -0.6834025  0.00    0.0000162   -0.0000023    0.0000193
h    -4.2999445    2.7568416   -1.5885044  0.00   -0.0000454   -0.0000133    0.0001949
h    -4.8144253    3.6740505   -0.1196504  0.00    0.0000312   -0.0002359   -0.0000931
n    -3.8037233    0.4289968   -0.3944943  0.00    0.0001187    0.0002365    0.0004215
h    -4.3704077    1.6057743    1.2882085  0.00    0.0000392   -0.0000152   -0.0001917
h    -3.2072043   -0.2182096    0.1750356  0.00   -0.0001908    0.0002365   -0.0001984
h    -4.7545088   -0.0089517   -0.4288963  0.00    0.0000165    0.0000433    0.0000085
o    -1.8042706    2.9867968   -0.4326156  0.00    0.0002270    0.0002917   -0.0006845
o    -1.9418576    2.1697428    1.8211510  0.00    0.0002090   -0.0001500    0.0007926
h    -1.0246814    2.5971944    1.8153936  0.00   -0.0000725   -0.0000190    0.0000110
    13
 Energy =       0.0526505487
c    -3.8918617    1.7299717    0.2877338  0.00    0.0000261    0.0000441    0.0000529
c    -2.5128028    2.3181134    0.5628384  0.00   -0.0000075   -0.0000017    0.0000090
c    -4.7516860    2.6618370   -0.5770236  0.00   -0.0000443    0.0000020   -0.0000231
h    -5.7788233    2.2542989   -0.6855609  0.00   -0.0000038    0.0000005   -0.0000028
h    -4.3000164    2.7548200   -1.5908410  0.00    0.0000085    0.0000042   -0.0000394
h    -4.8158580    3.6748906   -0.1238172  0.00   -0.0000072    0.0000494    0.0000215
n    -3.8025394    0.4291357   -0.3921345  0.00   -0.0000228   -0.0000496   -0.0000914
h    -4.3718447    1.6085097    1.2885120  0.00   -0.0000081    0.0000022    0.0000394
h    -3.2065587   -0.2169629    0.1797182  0.00    0.0000415   -0.0000497    0.0000409
h    -4.7530415   -0.0094007   -0.4273231  0.00   -0.0000038   -0.0000084   -0.0000035
o    -1.8121181    3.0041699   -0.4253399  0.00    0.0000201    0.0000170   -0.0000361
o    -1.9362711    2.1574180    1.8171929  0.00   -0.0000192   -0.0000173    0.0000398
h    -1.0200151    2.5869855    1.8123136  0.00    0.0000204    0.0000075   -0.0000072
    13
 Energy =       0.0526505307
c    -3.8919293    1.7301004    0.2877388  0.00    0.0000000   -0.0000000    0.0000000
c    -2.5129077    2.3182924    0.5629138  0.00   -0.0000006   -0.0000002   -0.0000001
c    -4.7516584    2.6617404   -0.5772437  0.00   -0.0000000    0.0000000   -0.0000000
h    -5.7787779    2.2541703   -0.6858011  0.00   -0.0000000   -0.0000000   -0.0000000
h    -4.2998826    2.7545427   -1.5909901  0.00    0.0000000    0.0000000   -0.0000000
h    -4.8158672    3.6748393   -0.1242671  0.00   -0.0000000    0.0000000    0.0000000
n    -3.8025355    0.4292026   -0.3918601  0.00    0.0000000    0.0000000   -0.0000001
h    -4.3720196    1.6087983    1.2884451  0.00   -0.0000000   -0.0000000    0.0000000
h    -3.2065085   -0.2167141    0.1800717  0.00    0.0000000   -0.0000000    0.0000000
h    -4.7530056   -0.0094076   -0.4269103  0.00   -0.0000000   -0.0000000   -0.0000000
o    -1.8127904    3.0055822   -0.4247794  0.00    0.0000004    0.0000005   -0.0000012
o    -1.9358308    2.1563931    1.8168441  0.00    0.0000001   -0.0000004    0.0000013
h    -1.0197230    2.5862469    1.8121069  0.00    0.0000001    0.0000001   -0.0000001
    13
 Energy =       0.0526505307
c    -3.8919303    1.7301027    0.2877392  0.00    0.0000000   -0.0000000    0.0000000
c    -2.5129093    2.3182958    0.5629155  0.00   -0.0000000   -0.0000000   -0.0000000
c    -4.7516586    2.6617394   -0.5772478  0.00   -0.0000000    0.0000000    0.0000000
h    -5.7787779    2.2541686   -0.6858050  0.00   -0.0000000   -0.0000000    0.0000000
h    -4.2998814    2.7545382   -1.5909939  0.00   -0.0000000    0.0000000   -0.0000000
h    -4.8158681    3.6748399   -0.1242750  0.00   -0.0000000    0.0000000    0.0000000
n    -3.8025346    0.4292028   -0.3918554  0.00   -0.0000000   -0.0000000   -0.0000000
h    -4.3720223    1.6088034    1.2884450  0.00   -0.0000000   -0.0000000    0.0000000
h    -3.2065080   -0.2167116    0.1800795  0.00    0.0000000   -0.0000000    0.0000000
h    -4.7530043   -0.0094082   -0.4269055  0.00    0.0000000   -0.0000000   -0.0000000
o    -1.8128015    3.0056063   -0.4247690  0.00    0.0000000    0.0000000   -0.0000000
o    -1.9358232    2.1563761    1.8168382  0.00    0.0000000   -0.0000000    0.0000000
h    -1.0197171    2.5862336    1.8121028  0.00    0.0000000    0.0000000   -0.0000000
