    24
 Energy =      40.8465924070
c     1.6703672    2.6182922    0.2614132  0.00    0.0469517    0.0714070    0.0241026
c     0.3248649    2.9356558    0.1418766  0.00   -0.0068143    0.1041593    0.0283968
c    -0.5827484    1.9945952   -0.3219261  0.00   -0.0890134    0.0434984    0.0042951
c     2.1038063    1.3347474   -0.0833024  0.00    0.0674554   -0.0109320    0.0086129
c     1.2047783    0.3610782   -0.5608861  0.00    0.0189946   -0.0958506   -0.0238018
c    -0.1441045    0.7159142   -0.6796715  0.00   -0.0317238   -0.0459677   -0.0211908
o    -0.1504797    4.1703171    0.4675790  0.00   -0.0528032   -0.0235525   -0.0593774
h    -0.5871159    4.5498648   -0.3125495  0.00    0.0452384   -0.0392495    0.0476242
h    -0.8895274    0.0262790   -1.0546636  0.00   -0.0051920    0.0125350   -0.0003424
h     3.1621727    1.0964802    0.0165124  0.00    0.0022617    0.0002257   -0.0008391
h     2.3926004    3.3457758    0.6178375  0.00    0.0100769   -0.0073224   -0.0019951
h    -1.6336796    2.2563998   -0.4108671  0.00   -0.0015492    0.0001461   -0.0011542
c     1.7669373   -1.0073413   -0.8964724  0.00    0.0143526   -0.0152515   -0.0208682
c     0.8861134   -2.0194266   -1.6556448  0.00   -0.0490683   -0.0073930    0.0079271
h     2.1212937   -1.4658931    0.0371405  0.00   -0.0037371    0.0081233   -0.0128083
h     2.6645729   -0.8285312   -1.5058794  0.00   -0.0142366   -0.0021162    0.0085955
c     1.7481012   -3.2276699   -2.0845864  0.00    0.3375514   -0.0516220   -0.0897888
o     2.9166907   -3.1880566   -2.4354089  0.00   -0.2813808   -0.0134091    0.0892370
o     1.0176544   -4.3756256   -2.0624861  0.00   -0.3191619    0.2336455    0.2454264
h     0.1502015   -4.1242798   -1.6550103  0.00 -226.4238277  287.2845530  356.8331985
n    -0.2697763   -2.5678537   -0.8742070  0.00    0.1593468   -0.7841617   -0.3248546
h     0.4960411   -1.5757973   -2.5789902  0.00    0.0006542   -0.0091389    0.0137190
h    -0.2733198   -3.5880456   -0.9878198  0.00  226.5759637 -286.6444627 -356.7081129
h    -0.0861426   -2.4268019    0.1217436  0.00   -0.0003391   -0.0078635   -0.0460012
    24
 Energy =       3.4168513367
c     1.6703569    2.6182765    0.2614079  0.00    0.0469229    0.0713676    0.0240889
c     0.3248664    2.9356329    0.1418704  0.00   -0.0068098    0.1041058    0.0283595
c    -0.5827288    1.9945857   -0.3219270  0.00   -0.0889394    0.0434588    0.0043034
c     2.1037915    1.3347499   -0.0833043  0.00    0.0673859   -0.0109418    0.0086122
c     1.2047742    0.3610993   -0.5608808  0.00    0.0189879   -0.0957873   -0.0237832
c    -0.1440976    0.7159243   -0.6796669  0.00   -0.0317199   -0.0459707   -0.0211644
o    -0.1504681    4.1703223    0.4675921  0.00   -0.0527984   -0.0235724   -0.0593095
h    -0.5871258    4.5498734   -0.3125600  0.00    0.0452220   -0.0392100    0.0475746
h    -0.8895262    0.0262762   -1.0546635  0.00   -0.0051996    0.0126221   -0.0003876
h     3.1621722    1.0964802    0.0165126  0.00    0.0022953    0.0002293   -0.0008444
h     2.3925982    3.3457774    0.6178379  0.00    0.0100986   -0.0072982   -0.0019910
h    -1.6336792    2.2563998   -0.4108669  0.00   -0.0015736    0.0001771   -0.0011613
c     1.7669342   -1.0073379   -0.8964678  0.00    0.0141457   -0.0153067   -0.0207614
c     0.8861242   -2.0194250   -1.6556466  0.00   -0.0445245    0.0204095    0.0094719
h     2.1212945   -1.4658948    0.0371433  0.00   -0.0036342    0.0081406   -0.0128297
h     2.6645761   -0.8285307   -1.5058812  0.00   -0.0141906   -0.0021328    0.0085480
c     1.7480270   -3.2276585   -2.0845666  0.00    0.3572134   -0.0539575   -0.1002822
o     2.9167525   -3.1880536   -2.4354285  0.00   -0.2811269   -0.0130179    0.0886089
o     1.0177246   -4.3756770   -2.0625401  0.00   -0.3292465    0.2049797    0.2011223
h     0.1999594   -4.1874121   -1.7334263  0.00  -14.3955136   18.6830194   22.9280386
n    -0.2698113   -2.5676814   -0.8741356  0.00    0.0788681   -0.5395403   -0.1825117
h     0.4960410   -1.5757953   -2.5789932  0.00    0.0007517   -0.0091306    0.0135199
h    -0.3231111   -3.5250539   -0.9094313  0.00   14.6144518  -18.2755545  -22.8935081
h    -0.0861425   -2.4268002    0.1217537  0.00   -0.0010665   -0.0170893   -0.0437139
    24
 Energy =       2.3882130701
c     1.6527538    2.5848853    0.2617392  0.00    0.0285366    0.0433770    0.0140229
c     0.3247538    2.9010320    0.1218939  0.00   -0.0044417    0.0629850    0.0164732
c    -0.5623995    1.9725200   -0.3646560  0.00   -0.0543451    0.0268127    0.0028797
c     2.0946422    1.3231160   -0.0822720  0.00    0.0408384   -0.0066434    0.0048877
c     1.2154095    0.3648282   -0.5737034  0.00    0.0112038   -0.0583422   -0.0143449
c    -0.1209679    0.7092454   -0.7147476  0.00   -0.0195114   -0.0280035   -0.0125358
o    -0.1407738    4.1437936    0.4748780  0.00   -0.0309466   -0.0178818   -0.0307810
h    -0.5318777    4.5926754   -0.3179183  0.00    0.0267130   -0.0207760    0.0242218
h    -0.8536974    0.0107193   -1.1010859  0.00   -0.0031801    0.0071644   -0.0001992
h     3.1508504    1.0865929    0.0388211  0.00    0.0015825    0.0001524   -0.0005527
h     2.3548965    3.3181869    0.6457216  0.00    0.0064253   -0.0040766   -0.0011126
h    -1.6116136    2.2345852   -0.4657884  0.00   -0.0010597    0.0001917   -0.0007141
c     1.7866816   -1.0028248   -0.9040350  0.00    0.0087878   -0.0088210   -0.0127764
c     0.8908177   -2.0175521   -1.6514400  0.00   -0.0257859    0.0111520    0.0045041
h     2.1491776   -1.4621136    0.0330543  0.00   -0.0018624    0.0051190   -0.0079530
h     2.6832279   -0.8265792   -1.5271182  0.00   -0.0087198   -0.0011677    0.0048578
c     1.7097019   -3.2355485   -2.0723864  0.00    0.2161305   -0.0331461   -0.0617599
o     2.9451298   -3.1918601   -2.4319490  0.00   -0.1711292   -0.0077569    0.0552453
o     1.0014305   -4.4040277   -2.0478671  0.00   -0.2134960    0.1335372    0.1323932
h     0.1551365   -4.2100167   -1.6904799  0.00   -9.8101307   12.7239746   15.6156526
n    -0.2683467   -2.5114986   -0.8515376  0.00    0.0586798   -0.3387499   -0.1356424
h     0.5071713   -1.5730109   -2.5835731  0.00    0.0003139   -0.0057437    0.0082637
h    -0.3844393   -3.5290237   -0.8413968  0.00    9.9451158  -12.4759263  -15.5879841
h    -0.1383632   -2.2680471    0.1495780  0.00    0.0002811   -0.0074308   -0.0170459
    24
 Energy =       1.4793687271
c     1.6428583    2.5430534    0.2930703  0.00    0.0151889    0.0199590    0.0057590
c     0.3415527    2.8946994    0.1099147  0.00   -0.0020783    0.0284244    0.0072029
c    -0.5443936    2.0010112   -0.4185808  0.00   -0.0258588    0.0120047    0.0013400
c     2.0634207    1.2901715   -0.0477561  0.00    0.0201252   -0.0025254    0.0014279
c     1.1832078    0.3702289   -0.5707563  0.00    0.0063949   -0.0270960   -0.0074750
c    -0.1279318    0.7391581   -0.7595178  0.00   -0.0097417   -0.0129712   -0.0062727
o    -0.0851139    4.1590243    0.4732875  0.00   -0.0110616   -0.0162588   -0.0015297
h    -0.3731246    4.6852610   -0.3420813  0.00    0.0111682   -0.0008766    0.0001965
h    -0.8548584    0.0498687   -1.1778590  0.00   -0.0016395    0.0032952   -0.0012877
h     3.1097198    1.0260469    0.1066428  0.00    0.0022002   -0.0004007   -0.0005871
h     2.3427235    3.2588423    0.7145673  0.00    0.0044944   -0.0018623   -0.0001742
h    -1.5808949    2.2953794   -0.5563241  0.00   -0.0011392    0.0007529   -0.0008414
c     1.7358358   -1.0000983   -0.9000043  0.00    0.0045851   -0.0041790   -0.0073033
c     0.8383527   -2.0292383   -1.6390639  0.00   -0.0137197    0.0056200    0.0029542
h     2.1243418   -1.4610786    0.0314239  0.00    0.0003925    0.0025161   -0.0048073
h     2.6225372   -0.8127435   -1.5450616  0.00   -0.0041387   -0.0016531   -0.0004533
c     1.7005392   -3.2070538   -2.0733005  0.00    0.0918855   -0.0132156   -0.0305450
o     3.0044938   -3.0631796   -2.3865439  0.00   -0.0714126    0.0012121    0.0292883
o     1.1055694   -4.4448006   -2.0507730  0.00   -0.0996668    0.0606138    0.0700754
h     0.1871439   -4.2956922   -1.7141922  0.00   -5.8158262    7.5180788    9.2267674
n    -0.3001072   -2.5444918   -0.8227261  0.00    0.0304168   -0.1903702   -0.0781820
h     0.4354310   -1.5877470   -2.5701276  0.00   -0.0006507   -0.0033027    0.0035632
h    -0.3746959   -3.5869986   -0.8296891  0.00    5.8703199   -7.3767874   -9.2024013
h    -0.1873053   -2.2695456    0.1791824  0.00   -0.0002377   -0.0009780   -0.0067150
    24
 Energy =       1.2428510855
c     1.5652275    2.5574887    0.3077727  0.00    0.0125030    0.0162705    0.0050409
c     0.2620704    2.8783677    0.0928479  0.00   -0.0018259    0.0230240    0.0046880
c    -0.5895256    1.9625528   -0.4473925  0.00   -0.0215321    0.0099326    0.0009148
c     2.0213775    1.3127822   -0.0122539  0.00    0.0167015   -0.0021179    0.0013147
c     1.1757161    0.3714973   -0.5491002  0.00    0.0039616   -0.0217380   -0.0063977
c    -0.1383012    0.7098129   -0.7689751  0.00   -0.0084838   -0.0108260   -0.0053407
o    -0.2046334    4.1364562    0.4357807  0.00   -0.0074909   -0.0181162    0.0126651
h    -0.3715450    4.6867980   -0.4081316  0.00    0.0068257    0.0049505   -0.0118369
h    -0.8422624    0.0012374   -1.1946741  0.00   -0.0016310    0.0019773   -0.0013295
h     3.0679096    1.0712043    0.1756818  0.00    0.0025469   -0.0004779   -0.0002958
h     2.2363881    3.2924017    0.7432931  0.00    0.0039407   -0.0010825    0.0002871
h    -1.6296034    2.2329003   -0.6088094  0.00   -0.0015746    0.0007468   -0.0007473
c     1.7573067   -1.0026868   -0.8243175  0.00    0.0019635   -0.0025092   -0.0060090
c     0.9115691   -2.0205505   -1.6397787  0.00   -0.0075185    0.0057538   -0.0011739
h     2.0518645   -1.4638540    0.1464950  0.00    0.0020255    0.0008830    0.0005240
h     2.7079687   -0.8293550   -1.3863085  0.00    0.0012163   -0.0005388   -0.0031182
c     1.7944309   -3.2034153   -2.0252043  0.00    0.0660636   -0.0115460   -0.0211668
o     3.0751514   -3.0197294   -2.4498499  0.00   -0.0496691    0.0048008    0.0195004
o     1.2381648   -4.4650562   -1.9401209  0.00   -0.0279517    0.0292036    0.0555338
h     0.2207663   -4.2859211   -1.8243833  0.00   -4.8234911    6.1808567    7.5682923
n    -0.2891871   -2.5224324   -0.9052765  0.00    0.0185794   -0.1557531   -0.0637062
h     0.5810977   -1.5649644   -2.5964753  0.00   -0.0013565   -0.0019970    0.0000699
h    -0.3483163   -3.5661298   -0.9254470  0.00    4.8165757   -6.0518440   -7.5462361
h    -0.2443329   -2.2593270    0.1083588  0.00   -0.0003780    0.0001470   -0.0014728
    24
 Energy =       0.9932896838
c     1.5006751    2.5817365    0.2840347  0.00    0.0096288    0.0127992    0.0044558
c     0.1906976    2.8685116    0.0721376  0.00   -0.0008513    0.0176835    0.0016824
c    -0.6443776    1.9208185   -0.4307051  0.00   -0.0167562    0.0074714    0.0001103
c     1.9798658    1.3391696   -0.0033063  0.00    0.0129434   -0.0016280    0.0012479
c     1.1522666    0.3687542   -0.5114595  0.00    0.0025266   -0.0163107   -0.0053236
c    -0.1702400    0.6722266   -0.7237443  0.00   -0.0068285   -0.0085557   -0.0043020
o    -0.3028998    4.1275801    0.3782271  0.00   -0.0064882   -0.0278006    0.0386165
h    -0.2828322    4.7180985   -0.4752992  0.00    0.0056019    0.0181501   -0.0356418
h    -0.8647893   -0.0623227   -1.1203418  0.00   -0.0017878    0.0008516   -0.0013269
h     3.0312149    1.1236847    0.1878387  0.00    0.0022739   -0.0004211   -0.0001170
h     2.1575044    3.3432908    0.6954438  0.00    0.0033466   -0.0002395    0.0005221
h    -1.6914121    2.1656273   -0.5882092  0.00   -0.0015640    0.0006617   -0.0006239
c     1.7522866   -1.0085347   -0.7432946  0.00   -0.0003280   -0.0005541   -0.0037894
c     0.9569473   -2.0098461   -1.6340532  0.00   -0.0048544    0.0043154   -0.0027242
h     1.9673328   -1.4773727    0.2470356  0.00    0.0022370   -0.0001602    0.0034174
h     2.7484360   -0.8394303   -1.2275554  0.00    0.0044087    0.0003477   -0.0040574
c     1.8643846   -3.1667119   -2.0540096  0.00    0.0448416   -0.0052542   -0.0157642
o     3.1803754   -2.9441867   -2.3817223  0.00   -0.0295293    0.0067786    0.0139043
o     1.3250464   -4.4472236   -2.0883261  0.00   -0.0199884    0.0120546    0.0406174
h     0.3096299   -4.3226391   -1.9092186  0.00   -3.7443153    4.7917444    5.8694294
n    -0.2608448   -2.5453847   -0.9579509  0.00    0.0115791   -0.1197095   -0.0492857
h     0.6520609   -1.5137750   -2.5803689  0.00   -0.0009685   -0.0010612   -0.0010575
h    -0.2698797   -3.5875792   -0.9929202  0.00    3.7352426   -4.6921792   -5.8514992
h    -0.2721469   -2.2944144    0.0614990  0.00   -0.0003705    0.0010157    0.0015095
    24
 Energy =       0.7570662420
c     1.4849158    2.5877056    0.2839823  0.00    0.0075415    0.0086691    0.0031049
c     0.1879759    2.8790856    0.0132993  0.00   -0.0010852    0.0121433    0.0005248
c    -0.6336031    1.9238308   -0.4914847  0.00   -0.0124589    0.0063691    0.0002277
c     1.9682155    1.3377223    0.0437115  0.00    0.0097318   -0.0019202    0.0006666
c     1.1550671    0.3620343   -0.4698014  0.00    0.0024713   -0.0119910   -0.0039095
c    -0.1582475    0.6661469   -0.7296896  0.00   -0.0047678   -0.0068269   -0.0034585
o    -0.3035850    4.1539131    0.2640523  0.00   -0.0065263   -0.0224812    0.0344109
h    -0.3665300    4.6875831   -0.6218460  0.00    0.0044489    0.0173842   -0.0324663
h    -0.8455378   -0.0762060   -1.1240545  0.00   -0.0010841    0.0002858   -0.0011159
h     3.0118434    1.1225028    0.2732084  0.00    0.0022673   -0.0005485    0.0000007
h     2.1295048    3.3585453    0.6962304  0.00    0.0023233    0.0000275    0.0002194
h    -1.6734862    2.1695495   -0.6920900  0.00   -0.0020185    0.0009338   -0.0007200
c     1.7545390   -1.0222958   -0.6713817  0.00   -0.0006021   -0.0005968   -0.0018338
c     0.9587751   -2.0064292   -1.5804862  0.00   -0.0051960    0.0040460   -0.0011205
h     1.9336018   -1.4899696    0.3257639  0.00    0.0013478   -0.0005258    0.0029694
h     2.7665310   -0.8693003   -1.1240820  0.00    0.0036463    0.0008941   -0.0023248
c     1.8632890   -3.1331583   -2.0865840  0.00    0.0210770   -0.0041399   -0.0051382
o     3.1442945   -2.8581065   -2.5404754  0.00   -0.0085948    0.0044167    0.0041542
o     1.3591012   -4.4280936   -2.1556333  0.00   -0.0058178    0.0054781    0.0254531
h     0.3574007   -4.3618538   -1.8952873  0.00   -2.7491432    3.5095937    4.3009853
n    -0.2365357   -2.5665369   -0.8905949  0.00    0.0082760   -0.0848820   -0.0346398
h     0.6252033   -1.4781020   -2.5004561  0.00   -0.0008512    0.0002035   -0.0014909
h    -0.2358262   -3.6085585   -0.9570389  0.00    2.7354348   -3.4375520   -4.2860093
h    -0.2376045   -2.3399313    0.1344692  0.00   -0.0004202    0.0010194    0.0015105
    24
 Energy =       0.4958526169
c     1.4926579    2.5864006    0.2822875  0.00    0.0037248    0.0041197    0.0014402
c     0.2057734    2.8851242   -0.0103362  0.00   -0.0005143    0.0060754   -0.0021535
c    -0.6184431    1.9261371   -0.4990309  0.00   -0.0063442    0.0038510    0.0001386
c     1.9693409    1.3319899    0.0672950  0.00    0.0049784   -0.0010643   -0.0000351
c     1.1553846    0.3552570   -0.4345287  0.00    0.0012218   -0.0060487   -0.0021966
c    -0.1538354    0.6612968   -0.7006943  0.00   -0.0020710   -0.0039901   -0.0017450
o    -0.2663347    4.1761937    0.2044803  0.00    0.0020770   -0.0252549    0.0534795
h    -0.5252831    4.6221485   -0.7067640  0.00   -0.0030878    0.0231453   -0.0503677
h    -0.8468759   -0.0864921   -1.0737678  0.00   -0.0006681   -0.0003049   -0.0002926
h     3.0105959    1.1164525    0.3020107  0.00    0.0012234   -0.0001217   -0.0004772
h     2.1386200    3.3636044    0.6789872  0.00    0.0012243    0.0004012   -0.0004476
h    -1.6553918    2.1726036   -0.7082435  0.00   -0.0011490    0.0004846   -0.0000233
c     1.7467216   -1.0351418   -0.6281653  0.00   -0.0007661   -0.0002264   -0.0002273
c     0.9489063   -1.9989635   -1.5589876  0.00   -0.0044309    0.0030851    0.0006808
h     1.9002554   -1.5102043    0.3682347  0.00    0.0006080   -0.0004253    0.0017795
h     2.7686733   -0.8944646   -1.0571125  0.00    0.0020928    0.0009729   -0.0008459
c     1.8559847   -3.0866650   -2.1510794  0.00    0.0069931   -0.0026573   -0.0000049
o     3.0985453   -2.7482159   -2.6826146  0.00    0.0023462    0.0026788   -0.0016683
o     1.4078804   -4.4023562   -2.2460089  0.00    0.0090600    0.0001076    0.0082978
h     0.4378036   -4.4197236   -1.8837792  0.00   -1.6716230    2.1191530    2.6030581
n    -0.2247908   -2.5885455   -0.8607881  0.00    0.0034449   -0.0438618   -0.0186557
h     0.5869464   -1.4376499   -2.4487220  0.00   -0.0008444    0.0009826   -0.0015736
h    -0.1785181   -3.6368750   -0.9081713  0.00    1.6523465   -2.0818243   -2.5896369
h    -0.2453148   -2.3418335    0.1592301  0.00    0.0001576    0.0007226    0.0014767
    24
 Energy =       0.3379268627
c     1.4956599    2.5826221    0.2870249  0.00    0.0041302    0.0015715    0.0015005
c     0.2342123    2.9057731   -0.0847335  0.00   -0.0019467    0.0031754   -0.0034321
c    -0.5842380    1.9546692   -0.5978989  0.00   -0.0052320    0.0038162   -0.0004668
c     1.9575426    1.3159826    0.1192555  0.00    0.0043896   -0.0014598   -0.0000082
c     1.1511676    0.3490103   -0.4093441  0.00    0.0021433   -0.0039608   -0.0010415
c    -0.1375733    0.6767631   -0.7460722  0.00   -0.0022950   -0.0025313   -0.0012942
o    -0.2125901    4.2163215    0.0766726  0.00    0.0034329   -0.0170709    0.0455988
h    -0.6024442    4.5903619   -0.8136876  0.00   -0.0052948    0.0173967   -0.0429091
h    -0.8282133   -0.0641161   -1.1367732  0.00   -0.0007902   -0.0001800    0.0000072
h     2.9821255    1.0838763    0.4102564  0.00    0.0025252   -0.0004982   -0.0001102
h     2.1366056    3.3544661    0.7015547  0.00    0.0010888    0.0003327   -0.0005680
h    -1.6046913    2.2170914   -0.8669966  0.00   -0.0026254    0.0010665   -0.0002887
c     1.7259156   -1.0549040   -0.5632751  0.00   -0.0005689    0.0000958   -0.0002587
c     0.9490422   -2.0068249   -1.5248880  0.00   -0.0017831    0.0012675   -0.0000610
h     1.8220632   -1.5262948    0.4428180  0.00    0.0005450   -0.0008260    0.0024951
h     2.7705395   -0.9391514   -0.9431347  0.00    0.0026355    0.0006351   -0.0008566
c     1.8634215   -3.0851734   -2.1220839  0.00    0.0033735   -0.0010370    0.0002016
o     3.1094322   -2.7313554   -2.6332180  0.00    0.0015417    0.0014503   -0.0009697
o     1.4319422   -4.4041488   -2.2476467  0.00    0.0054720   -0.0007555    0.0044468
h     0.4800998   -4.4585289   -1.8630105  0.00   -1.0346028    1.3123840    1.6119588
n    -0.2436234   -2.5948027   -0.8602598  0.00    0.0002169   -0.0218412   -0.0163823
h     0.6098275   -1.4340701   -2.4152604  0.00   -0.0006041    0.0006410   -0.0009671
h    -0.1589824   -3.6477343   -0.8492839  0.00    1.0249030   -1.2962010   -1.6043917
h    -0.3379391   -2.2897557    0.1437163  0.00   -0.0006544    0.0025289    0.0077972
    24
 Energy =       0.2834179243
c     1.5472946    2.5252134    0.4006414  0.00    0.0051196    0.0017940    0.0022685
c     0.3113252    2.9015078   -0.0080772  0.00   -0.0018573    0.0030083   -0.0030698
c    -0.5199366    1.9912382   -0.5776058  0.00   -0.0058165    0.0027245   -0.0013901
c     1.9741453    1.2492439    0.2097497  0.00    0.0052803   -0.0003117    0.0009139
c     1.1564623    0.3253178   -0.3791699  0.00    0.0018100   -0.0039688   -0.0013078
c    -0.1098347    0.7043293   -0.7486307  0.00   -0.0033068   -0.0026479   -0.0017268
o    -0.0923519    4.2255560    0.1702385  0.00    0.0043360   -0.0126624    0.0403570
h    -0.5511004    4.5985659   -0.6826506  0.00   -0.0058507    0.0142245   -0.0377281
h    -0.8109196   -0.0015204   -1.1867885  0.00   -0.0019832   -0.0012061   -0.0007414
h     2.9809376    0.9755842    0.5283288  0.00    0.0034328   -0.0003600    0.0004487
h     2.1987031    3.2639808    0.8603078  0.00    0.0021016    0.0012629    0.0002511
h    -1.5218748    2.2928989   -0.8761343  0.00   -0.0034199    0.0009826   -0.0006599
c     1.6939012   -1.0903372   -0.5679712  0.00    0.0004204    0.0008502   -0.0003386
c     0.9127758   -1.9844697   -1.5834063  0.00   -0.0011838    0.0002018   -0.0007016
h     1.7482930   -1.6009623    0.4232268  0.00    0.0007233   -0.0015262    0.0034164
h     2.7515092   -0.9927362   -0.9160733  0.00    0.0027961    0.0010287   -0.0005117
c     1.8147996   -3.0560188   -2.2111056  0.00    0.0023747   -0.0014465    0.0001531
o     3.0553035   -2.6932779   -2.7285559  0.00    0.0012842    0.0009947   -0.0009118
o     1.3870064   -4.3748499   -2.3517793  0.00    0.0044662   -0.0007489    0.0033399
h     0.4443934   -4.4464881   -1.9550022  0.00   -0.8242326    1.0454599    1.2841230
n    -0.3041545   -2.5711642   -0.9633203  0.00   -0.0010482   -0.0179075   -0.0149067
h     0.6027393   -1.3682728   -2.4565052  0.00   -0.0008639    0.0012873   -0.0019222
h    -0.2059083   -3.6222224   -0.9226539  0.00    0.8168520   -1.0336947   -1.2784103
h    -0.4542068   -2.2410391    0.0266685  0.00   -0.0014344    0.0026614    0.0090554
    24
 Energy =       0.2350293294
c     1.5280907    2.4830306    0.5041654  0.00    0.0044360    0.0021948    0.0023751
c     0.3065835    2.8784918    0.0732669  0.00   -0.0010228    0.0027942   -0.0020200
c    -0.5105458    1.9904165   -0.5520353  0.00   -0.0050912    0.0014676   -0.0016702
c     1.9565411    1.2132034    0.2787914  0.00    0.0047890    0.0006662    0.0013338
c     1.1546278    0.3138366   -0.3682567  0.00    0.0007942   -0.0034999   -0.0014055
c    -0.0992684    0.7098361   -0.7591486  0.00   -0.0030013   -0.0028777   -0.0017145
o    -0.0937306    4.1999216    0.2839838  0.00    0.0057100   -0.0103320    0.0347893
h    -0.6196584    4.5753376   -0.5238975  0.00   -0.0066078    0.0123672   -0.0325335
h    -0.7897078    0.0239190   -1.2447266  0.00   -0.0023328   -0.0019209   -0.0011753
h     2.9530727    0.9251501    0.6148713  0.00    0.0029495   -0.0000408    0.0005667
h     2.1682849    3.2031493    1.0085295  0.00    0.0023276    0.0018154    0.0007654
h    -1.5022877    2.3040315   -0.8696214  0.00   -0.0029393    0.0005740   -0.0006321
c     1.6987189   -1.0932668   -0.6031990  0.00    0.0002102    0.0002366   -0.0007190
c     0.9196407   -1.9624149   -1.6406355  0.00   -0.0009135   -0.0000560   -0.0006028
h     1.7566668   -1.6341811    0.3714042  0.00    0.0005480   -0.0014366    0.0030728
h     2.7538941   -0.9795458   -0.9522348  0.00    0.0022247    0.0006985   -0.0005556
c     1.8224888   -3.0205007   -2.2893923  0.00    0.0016495   -0.0011485    0.0001490
o     3.0509606   -2.6376846   -2.8208457  0.00    0.0013849    0.0008352   -0.0008807
o     1.4147894   -4.3460485   -2.4303862  0.00    0.0038985   -0.0007157    0.0022804
h     0.4844065   -4.4440205   -2.0162841  0.00   -0.6416303    0.8129703    0.9990081
n    -0.2992456   -2.5578428   -1.0360197  0.00   -0.0011059   -0.0128720   -0.0123828
h     0.6145990   -1.3271255   -2.5011594  0.00   -0.0007009    0.0011081   -0.0016626
h    -0.1781317   -3.6044313   -0.9628917  0.00    0.6356908   -0.8054090   -0.9945254
h    -0.4814876   -2.2031843   -0.0605467  0.00   -0.0012672    0.0025808    0.0081394
    24
 Energy =       0.1841628806
c     1.5003612    2.4447194    0.5972027  0.00    0.0035363    0.0021348    0.0023171
c     0.2951971    2.8566014    0.1392883  0.00   -0.0002271    0.0023849   -0.0009828
c    -0.4999704    1.9902649   -0.5444286  0.00   -0.0040480    0.0000582   -0.0019085
c     1.9352412    1.1828470    0.3432352  0.00    0.0040529    0.0014160    0.0016374
c     1.1565501    0.3073413   -0.3623834  0.00    0.0000814   -0.0028886   -0.0013720
c    -0.0818231    0.7183920   -0.7836308  0.00   -0.0027226   -0.0027310   -0.0016826
o    -0.1076418    4.1728834    0.3820404  0.00    0.0081571   -0.0086086    0.0292174
h    -0.7148686    4.5436751   -0.3651444  0.00   -0.0084548    0.0109960   -0.0274184
h    -0.7549389    0.0525371   -1.3195026  0.00   -0.0025567   -0.0023156   -0.0015317
h     2.9192488    0.8822770    0.7029028  0.00    0.0024144    0.0002168    0.0006749
h     2.1232804    3.1464602    1.1477812  0.00    0.0023731    0.0021025    0.0011913
h    -1.4795705    2.3134803   -0.8870048  0.00   -0.0024446    0.0001423   -0.0006222
c     1.7126173   -1.0889653   -0.6330838  0.00   -0.0000862   -0.0002834   -0.0009007
c     0.9402539   -1.9440701   -1.6856502  0.00   -0.0002603   -0.0001205   -0.0004832
h     1.7762626   -1.6521717    0.3276768  0.00    0.0003435   -0.0011251    0.0022977
h     2.7647873   -0.9566118   -0.9825151  0.00    0.0016089    0.0003935   -0.0005489
c     1.8417757   -3.0062789   -2.3295252  0.00    0.0008544   -0.0003528    0.0003655
o     3.0871960   -2.6308575   -2.8262409  0.00    0.0017225    0.0009730   -0.0008519
o     1.4223573   -4.3244961   -2.5069192  0.00    0.0019960   -0.0011746    0.0015914
h     0.4899565   -4.4323023   -2.1076944  0.00   -0.4525894    0.5736641    0.7051438
n    -0.2940111   -2.5254627   -1.1014407  0.00   -0.0009508   -0.0087339   -0.0081508
h     0.6554003   -1.2999045   -2.5457692  0.00   -0.0005187    0.0008294   -0.0012718
h    -0.1903633   -3.5712269   -1.0247769  0.00    0.4485627   -0.5686424   -0.7021441
h    -0.4879962   -2.1690541   -0.1306858  0.00   -0.0008438    0.0016650    0.0054332
    24
 Energy =       0.1372250826
c     1.4377226    2.4203312    0.6796849  0.00    0.0028686    0.0021112    0.0023981
c     0.2516373    2.8366040    0.1797002  0.00    0.0008023    0.0022318    0.0003692
c    -0.4983770    1.9871979   -0.5758540  0.00   -0.0032131   -0.0017136   -0.0024149
c     1.8971655    1.1722390    0.4043617  0.00    0.0036533    0.0021171    0.0022034
c     1.1638947    0.3148263   -0.3693239  0.00   -0.0003012   -0.0023997   -0.0014600
c    -0.0535254    0.7305650   -0.8430178  0.00   -0.0030453   -0.0026843   -0.0020804
o    -0.1748137    4.1403302    0.4543061  0.00    0.0103053   -0.0067488    0.0225725
h    -0.8659999    4.4940597   -0.2206139  0.00   -0.0101786    0.0099898   -0.0210809
h    -0.6897429    0.0811006   -1.4419600  0.00   -0.0032084   -0.0029388   -0.0022108
h     2.8651489    0.8681224    0.8021312  0.00    0.0021861    0.0004003    0.0009354
h     2.0254054    3.1077146    1.2856419  0.00    0.0026350    0.0025212    0.0018669
h    -1.4624155    2.3110568   -0.9587561  0.00   -0.0023631   -0.0003866   -0.0008629
c     1.7537852   -1.0626100   -0.6634264  0.00   -0.0011737   -0.0009346   -0.0004035
c     0.9932519   -1.9366619   -1.7078048  0.00    0.0001634    0.0002772    0.0006733
h     1.8466691   -1.6325764    0.2902241  0.00    0.0001412   -0.0009797    0.0014944
h     2.7955070   -0.8943892   -1.0273909  0.00    0.0015574    0.0005346   -0.0003390
c     1.8912470   -3.0386715   -2.2937152  0.00   -0.0024396    0.0020806    0.0024412
o     3.2037350   -2.7246786   -2.6674878  0.00    0.0142808    0.0050772   -0.0043237
o     1.4071604   -4.3230909   -2.5672882  0.00   -0.0003102   -0.0059496   -0.0008135
h     0.4423749   -4.4063827   -2.2469193  0.00   -0.2867735    0.3547428    0.4404338
n    -0.2758603   -2.4609039   -1.1416038  0.00   -0.0032893    0.0012924   -0.0068554
h     0.7504106   -1.3106634   -2.5944318  0.00   -0.0003801    0.0012631   -0.0017140
h    -0.2641521   -3.5156260   -1.1239155  0.00    0.2783445   -0.3626748   -0.4364286
h    -0.4309267   -2.1478159   -0.1488093  0.00   -0.0002618    0.0027711    0.0055993
    24
 Energy =       0.1055465791
c     1.4192908    2.3774391    0.7499380  0.00    0.0016786    0.0013694    0.0015608
c     0.2468772    2.8138672    0.2374582  0.00    0.0007815    0.0013386    0.0004714
c    -0.4864779    1.9917095   -0.5614618  0.00   -0.0019459   -0.0015778   -0.0017217
c     1.8787326    1.1351842    0.4512530  0.00    0.0023934    0.0015106    0.0015530
c     1.1614002    0.3051239   -0.3634562  0.00   -0.0002723   -0.0016774   -0.0010195
c    -0.0392968    0.7430200   -0.8567770  0.00   -0.0020463   -0.0018461   -0.0014330
o    -0.1812777    4.1099311    0.5452092  0.00    0.0092024   -0.0047157    0.0156827
h    -0.9324708    4.4530118   -0.0618608  0.00   -0.0091035    0.0075172   -0.0146245
h    -0.6608956    0.1174989   -1.4930675  0.00   -0.0022532   -0.0021861   -0.0016206
h     2.8337074    0.8135074    0.8646751  0.00    0.0014525    0.0003170    0.0006905
h     1.9942113    3.0429240    1.3898583  0.00    0.0018191    0.0018292    0.0014012
h    -1.4377240    2.3312186   -0.9602953  0.00   -0.0015607   -0.0004373   -0.0006343
c     1.7490862   -1.0685660   -0.6777917  0.00   -0.0003238   -0.0000433   -0.0003122
c     1.0041875   -1.9161467   -1.7550928  0.00    0.0005811   -0.0003975   -0.0000745
h     1.8173352   -1.6607656    0.2641412  0.00    0.0001351   -0.0007832    0.0012740
h     2.7985704   -0.8989160   -1.0165555  0.00    0.0010735    0.0004570   -0.0002450
c     1.9105067   -3.0093595   -2.3445583  0.00   -0.0012258    0.0012272    0.0013077
o     3.2170664   -2.6797692   -2.7088787  0.00    0.0072036    0.0024202   -0.0022354
o     1.4530483   -4.2996418   -2.6255613  0.00   -0.0000011   -0.0032428   -0.0004727
h     0.4942583   -4.4124336   -2.3111663  0.00   -0.1720918    0.2138569    0.2655590
n    -0.2788243   -2.4412444   -1.2254319  0.00   -0.0021492    0.0022234   -0.0077944
h     0.7838646   -1.2710113   -2.6330337  0.00   -0.0002372    0.0008124   -0.0012642
h    -0.2409359   -3.4895823   -1.1434915  0.00    0.1681931   -0.2213988   -0.2640695
h    -0.4949380   -2.0769222   -0.2603213  0.00   -0.0013031    0.0034269    0.0080213
    24
 Energy =       0.0925186807
c     1.3264256    2.3817355    0.7740950  0.00    0.0014816    0.0018698    0.0017496
c     0.1582286    2.7965455    0.2347726  0.00    0.0010693    0.0012683    0.0008393