    24
 Energy =       0.4660444023
c     1.6703672    2.6182922    0.2614132  0.00    0.0470099    0.0712849    0.0240930
c     0.3248649    2.9356558    0.1418766  0.00   -0.0069145    0.1042482    0.0284536
c    -0.5827484    1.9945952   -0.3219261  0.00   -0.0888143    0.0437677    0.0043538
c     2.1038063    1.3347474   -0.0833024  0.00    0.0673332   -0.0109791    0.0085863
c     1.2047783    0.3610782   -0.5608861  0.00    0.0187416   -0.0960068   -0.0237961
c    -0.1441045    0.7159142   -0.6796715  0.00   -0.0315809   -0.0462615   -0.0211030
o    -0.1504797    4.1703171    0.4675790  0.00   -0.0526712   -0.0239160   -0.0595503
h    -0.5871159    4.5498648   -0.3125495  0.00    0.0451016   -0.0389302    0.0476063
h    -0.8895274    0.0262790   -1.0546636  0.00   -0.0077239   -0.0053129   -0.0010838
h     3.1621727    1.0964802    0.0165124  0.00    0.0027657    0.0004192   -0.0007565
h     2.3926004    3.3457758    0.6178375  0.00    0.0100083   -0.0071382   -0.0019334
h    -1.6336796    2.2563998   -0.4108671  0.00   -0.0017403    0.0002886   -0.0009759
c     1.7669373   -1.0073413   -0.8964724  0.00    0.3550810   -0.5464852    0.0559095
c     0.8861134   -2.0194266   -1.6556448  0.00    0.1306887    0.0863307    0.0836847
h     2.1212937   -1.4658931    0.0371405  0.00    0.7406030   -1.2397592   -0.7800551
h     2.6645729   -0.8285312   -1.5058794  0.00   -0.0114164   -0.0404378    0.0280324
c     1.7481012   -3.2276699   -2.0845864  0.00   -0.0302019   -0.2646123   -0.2668681
o     1.5179317   -3.9787875   -3.0189800  0.00    0.0589539    0.1747531    0.2250106
o     2.8094516   -3.3865268   -1.2478409  0.00   -0.0628813    0.0970733    0.0366078
h     2.7944772   -2.5928198   -0.6549742  0.00   -1.1445664    1.7920207    0.6063568
n    -0.2697763   -2.5678537   -0.8742070  0.00   -0.0687906   -0.0417130    0.0105390
h     0.4960411   -1.5757973   -2.5789902  0.00   -0.0072717   -0.0117927    0.0223872
h    -0.1377783   -2.3090138    0.1103184  0.00    0.0005439    0.0035623   -0.0385821
h    -1.1177682   -2.0693246   -1.1533357  0.00    0.0377426   -0.0004036    0.0130832
    24
 Energy =       0.4658440925
c     1.6533972    2.6165729    0.2867089  0.00    0.0461724    0.0700587    0.0236609
c     0.3090535    2.9352999    0.1722258  0.00   -0.0062689    0.1011916    0.0274534
c    -0.5958088    2.0053809   -0.3164452  0.00   -0.0874260    0.0426254    0.0040533
c     2.0862249    1.3381073   -0.0725875  0.00    0.0663138   -0.0109460    0.0084118
c     1.1882351    0.3695289   -0.5623330  0.00    0.0180552   -0.0946278   -0.0234134
c    -0.1575874    0.7303723   -0.6877690  0.00   -0.0310740   -0.0458191   -0.0209001
o    -0.1698390    4.1539583    0.5536657  0.00   -0.0513060   -0.0223236   -0.0563580
h    -0.6050969    4.5775885   -0.2059820  0.00    0.0434463   -0.0374733    0.0452803
h    -0.9029404    0.0510576   -1.0736640  0.00   -0.0074557   -0.0054843   -0.0015204
h     3.1432901    1.0970589    0.0343003  0.00    0.0027571    0.0004037   -0.0007384
h     2.3732334    3.3356606    0.6651208  0.00    0.0100039   -0.0067812   -0.0018053
h    -1.6466549    2.2686322   -0.4014490  0.00   -0.0017183    0.0003136   -0.0009710
c     1.7544864   -1.0010400   -0.8874930  0.00    0.3509319   -0.5364240    0.0558278
c     0.9204339   -2.0225937   -1.7124729  0.00    0.1299814    0.0867938    0.0806534
h     2.1380633   -1.4477230    0.0663646  0.00    0.7272135   -1.2178804   -0.7655648
h     2.6615392   -0.8061717   -1.4784251  0.00   -0.0109182   -0.0399474    0.0274675
c     1.7951377   -3.2561807   -2.0628147  0.00   -0.0334384   -0.2527129   -0.2660494
o     1.6306308   -4.0564499   -2.9773772  0.00    0.0573491    0.1677562    0.2193150
o     2.7767608   -3.4344405   -1.1323769  0.00   -0.0514213    0.0790037    0.0351199
h     2.7963172   -2.5743479   -0.6445382  0.00   -1.1270287    1.7722906    0.6019079
n    -0.3003773   -2.5523625   -1.0161443  0.00   -0.0721052   -0.0460080    0.0100633
h     0.6068125   -1.5835562   -2.6689675  0.00   -0.0082226   -0.0104471    0.0190619
h    -0.1962939   -2.3714239   -0.0075574  0.00    0.0023075    0.0043263   -0.0321534
h    -1.1084859   -1.9965140   -1.3120889  0.00    0.0338512    0.0021113    0.0111978
    24
 Energy =       0.4707423560
c     1.6450393    2.6205522    0.3024092  0.00    0.0454568    0.0689535    0.0232915
c     0.3028820    2.9454126    0.1943121  0.00   -0.0061140    0.0994076    0.0269417
c    -0.6058578    2.0233986   -0.2988357  0.00   -0.0860683    0.0419236    0.0039643
c     2.0711197    1.3425039   -0.0635272  0.00    0.0653234   -0.0108768    0.0082510
c     1.1687616    0.3782903   -0.5553235  0.00    0.0173114   -0.0933465   -0.0230075
c    -0.1746668    0.7479642   -0.6751524  0.00   -0.0305209   -0.0453419   -0.0206233
o    -0.1697250    4.1601957    0.5967697  0.00   -0.0504110   -0.0218674   -0.0550838
h    -0.6045141    4.6027827   -0.1531654  0.00    0.0425887   -0.0367055    0.0442888
h    -0.9279424    0.0802581   -1.0553158  0.00   -0.0070499   -0.0053995   -0.0020980
h     3.1270395    1.0969863    0.0442118  0.00    0.0027181    0.0003614   -0.0007437
h     2.3679570    3.3335965    0.6865697  0.00    0.0098663   -0.0066415   -0.0017586
h    -1.6561381    2.2910345   -0.3772435  0.00   -0.0017211    0.0003170   -0.0009570
c     1.7335253   -0.9982005   -0.8711307  0.00    0.3472159   -0.5266059    0.0567460
c     0.9525661   -2.0267193   -1.7702933  0.00    0.1297041    0.0880082    0.0775292
h     2.1382672   -1.4386974    0.1006644  0.00    0.7144925   -1.1970887   -0.7518947
h     2.6546690   -0.7879410   -1.4359081  0.00   -0.0102461   -0.0391514    0.0268856
c     1.8337165   -3.2867415   -2.0345983  0.00   -0.0357543   -0.2404406   -0.2663317
o     1.7305786   -4.1445870   -2.9144583  0.00    0.0557908    0.1602419    0.2134777
o     2.7243612   -3.4725765   -1.0127792  0.00   -0.0413931    0.0615984    0.0377251
h     2.7830024   -2.5644887   -0.6277679  0.00   -1.1092821    1.7532166    0.5952664
n    -0.3308973   -2.5406839   -1.1748974  0.00   -0.0765188   -0.0533530    0.0026303
h     0.7239853   -1.5914463   -2.7549079  0.00   -0.0091253   -0.0090941    0.0152384
h    -0.2470862   -2.4892834   -0.1412784  0.00    0.0054708    0.0045788   -0.0175807
h    -1.0901114   -1.9051958   -1.4504535  0.00    0.0282660    0.0073059    0.0078430
    24
 Energy =       0.4490748821
c     1.6426822    2.6055818    0.3115529  0.00    0.0441932    0.0670657    0.0226381
c     0.2991583    2.9212107    0.2007119  0.00   -0.0058519    0.0964760    0.0260837
c    -0.6001274    1.9981787   -0.3066953  0.00   -0.0837005    0.0407155    0.0038336
c     2.0793701    1.3346459   -0.0611203  0.00    0.0635678   -0.0106773    0.0080006
c     1.1857858    0.3701355   -0.5613879  0.00    0.0164506   -0.0908744   -0.0223143
c    -0.1582999    0.7292999   -0.6900866  0.00   -0.0296442   -0.0443806   -0.0200473
o    -0.1848839    4.1262655    0.6218812  0.00   -0.0489757   -0.0209951   -0.0532029
h    -0.6160886    4.5831422   -0.1230823  0.00    0.0413009   -0.0355929    0.0428894
h    -0.8989613    0.0519845   -1.0863728  0.00   -0.0066978   -0.0060922   -0.0023824
h     3.1363609    1.0945397    0.0483097  0.00    0.0026552    0.0003177   -0.0007358
h     2.3575393    3.3205594    0.7069549  0.00    0.0096437   -0.0063805   -0.0016721
h    -1.6517326    2.2591556   -0.3885419  0.00   -0.0017032    0.0003082   -0.0009359
c     1.7579605   -0.9966028   -0.8922499  0.00    0.3388230   -0.5117964    0.0564921
c     0.9346963   -2.0186204   -1.7378268  0.00    0.1258233    0.0873049    0.0741685
h     2.1620136   -1.4336440    0.0600293  0.00    0.6935440   -1.1626754   -0.7306804
h     2.6629983   -0.7906450   -1.4845326  0.00   -0.0095352   -0.0379216    0.0259454
c     1.8099965   -3.2629943   -2.0593704  0.00   -0.0367397   -0.2291669   -0.2601057
o     1.6617956   -4.0751629   -2.9824812  0.00    0.0534560    0.1529888    0.2052339
o     2.7734161   -3.4568654   -1.1003144  0.00   -0.0350994    0.0542691    0.0389440
h     2.8164049   -2.5667658   -0.6548527  0.00   -1.0779738    1.7067897    0.5795972
n    -0.3168889   -2.5309634   -1.0727635  0.00   -0.0711414   -0.0635991   -0.0070593
h     0.6550881   -1.5806867   -2.7111260  0.00   -0.0094613   -0.0086349    0.0135873
h    -0.2424497   -2.3305303   -0.0453436  0.00    0.0081341    0.0076695    0.0002700
h    -1.1153026   -1.9748039   -1.4333913  0.00    0.0189323    0.0148822    0.0014522
    24
 Energy =       0.4307020402
c     1.6145538    2.6096949    0.3157873  0.00    0.0418300    0.0635041    0.0215394
c     0.2693709    2.9101454    0.2042206  0.00   -0.0050185    0.0903058    0.0245612
c    -0.6229710    1.9666160   -0.2738785  0.00   -0.0794444    0.0380463    0.0034077
c     2.0633711    1.3419170   -0.0453317  0.00    0.0603483   -0.0101695    0.0075982
c     1.1796559    0.3636812   -0.5309886  0.00    0.0157596   -0.0861070   -0.0211505
c    -0.1707810    0.6987016   -0.6409135  0.00   -0.0283101   -0.0421173   -0.0190293
o    -0.2207339    4.1320504    0.5751990  0.00   -0.0459803   -0.0188292   -0.0483390
h    -0.6417060    4.5556760   -0.1992820  0.00    0.0383598   -0.0329555    0.0393315
h    -0.9086553   -0.0011702   -1.0055742  0.00   -0.0066059   -0.0058093   -0.0015720
h     3.1247487    1.1175571    0.0557909  0.00    0.0026974    0.0002885   -0.0006779
h     2.3235743    3.3419054    0.6901810  0.00    0.0093779   -0.0057883   -0.0013922
h    -1.6782091    2.2143158   -0.3507535  0.00   -0.0017567    0.0002513   -0.0008825
c     1.7704531   -0.9945637   -0.8658335  0.00    0.3213577   -0.4849167    0.0535809
c     0.9693978   -2.0133205   -1.7381838  0.00    0.1202272    0.0824191    0.0699413
h     2.1979570   -1.4198224    0.0797260  0.00    0.6578183   -1.1025903   -0.6928503
h     2.6736249   -0.7712678   -1.4552222  0.00   -0.0089238   -0.0359049    0.0245085
c     1.8446746   -3.2602683   -2.0405133  0.00   -0.0344954   -0.2170118   -0.2463213
o     1.6985678   -4.0803966   -2.9677883  0.00    0.0506634    0.1448620    0.1943490
o     2.8110383   -3.4505407   -1.0838154  0.00   -0.0332534    0.0513826    0.0368671
h     2.8495344   -2.5618704   -0.6358244  0.00   -1.0220772    1.6183381    0.5496632
n    -0.3087746   -2.5121504   -1.1166768  0.00   -0.0584768   -0.0695880   -0.0105801
h     0.7308157   -1.5671342   -2.7202839  0.00   -0.0089211   -0.0078931    0.0118508
h    -0.3182037   -2.2261907   -0.0999965  0.00    0.0073404    0.0110767    0.0113059
h    -1.1007718   -2.0171503   -1.5921444  0.00    0.0074838    0.0192062   -0.0057095
    24
 Energy =       0.4150402151
c     1.6326645    2.5856105    0.3398051  0.00    0.0404708    0.0617926    0.0209262
c     0.2891361    2.8924059    0.2373613  0.00   -0.0034888    0.0848295    0.0225168
c    -0.6024452    1.9719742   -0.2850780  0.00   -0.0774875    0.0359434    0.0027467
c     2.0782047    1.3270243   -0.0522305  0.00    0.0589758   -0.0101992    0.0073355
c     1.1922454    0.3653883   -0.5618645  0.00    0.0151409   -0.0839689   -0.0206084
c    -0.1534394    0.7127015   -0.6836629  0.00   -0.0275833   -0.0414920   -0.0186584
o    -0.2018380    4.0875589    0.6964062  0.00   -0.0435796   -0.0158794   -0.0411129
h    -0.6238750    4.5795120   -0.0405289  0.00    0.0350236   -0.0295246    0.0345267
h    -0.8884217    0.0269077   -1.0832599  0.00   -0.0066576   -0.0053022   -0.0017354
h     3.1372821    1.0933112    0.0518086  0.00    0.0026948    0.0003039   -0.0006426
h     2.3402434    3.3007528    0.7502952  0.00    0.0095119   -0.0049470   -0.0010020
h    -1.6564958    2.2254760   -0.3577398  0.00   -0.0017695    0.0002600   -0.0008608
c     1.7742804   -0.9908290   -0.9162257  0.00    0.3141325   -0.4719244    0.0531419
c     0.9333806   -2.0073197   -1.7379321  0.00    0.1183225    0.0807639    0.0670814
h     2.1937013   -1.4183891    0.0146841  0.00    0.6392899   -1.0721924   -0.6740481
h     2.6644118   -0.7765579   -1.5291951  0.00   -0.0083635   -0.0348941    0.0236420
c     1.8078921   -3.2359145   -2.0963485  0.00   -0.0340279   -0.2085749   -0.2402354
o     1.6211329   -4.0208006   -3.0526116  0.00    0.0487270    0.1392659    0.1876111
o     2.8261629   -3.4334044   -1.1910219  0.00   -0.0290874    0.0460516    0.0364093
h     2.8555493   -2.5657953   -0.6891696  0.00   -0.9944322    1.5767993    0.5360021
n    -0.3029741   -2.5195620   -1.0425889  0.00   -0.0587598   -0.0700553   -0.0087336
h     0.6323789   -1.5594991   -2.7052400  0.00   -0.0092154   -0.0069745    0.0096717
h    -0.2679995   -2.2191395   -0.0295048  0.00    0.0071227    0.0111803    0.0128116
h    -1.1306458   -2.0449978   -1.4782576  0.00    0.0050402    0.0187388   -0.0067852
    24
 Energy =       0.3828538749
c     1.6525185    2.5713494    0.3383303  0.00    0.0371978    0.0566187    0.0191337
c     0.3152024    2.8895423    0.2241434  0.00   -0.0031850    0.0776691    0.0206338
c    -0.5770790    1.9792591   -0.3080323  0.00   -0.0710191    0.0328731    0.0025556
c     2.0919756    1.3133318   -0.0523469  0.00    0.0541314   -0.0092957    0.0067090
c     1.2044338    0.3634940   -0.5710501  0.00    0.0138091   -0.0768985   -0.0187891
c    -0.1345975    0.7217185   -0.7076952  0.00   -0.0253256   -0.0380258   -0.0170506
o    -0.1652829    4.0931396    0.6771973  0.00   -0.0399644   -0.0146239   -0.0374772
h    -0.5740971    4.5929778   -0.0658702  0.00    0.0320567   -0.0268747    0.0314507
h    -0.8679929    0.0448046   -1.1266719  0.00   -0.0060327   -0.0042234   -0.0017534
h     3.1481647    1.0705989    0.0588883  0.00    0.0025441    0.0002624   -0.0005900
h     2.3602667    3.2821238    0.7557771  0.00    0.0087468   -0.0045111   -0.0009110
h    -1.6277472    2.2427012   -0.3929386  0.00   -0.0017608    0.0002433   -0.0008046
c     1.7752799   -0.9948211   -0.9357039  0.00    0.2909316   -0.4343144    0.0503239
c     0.8909639   -2.0070802   -1.7018952  0.00    0.1099226    0.0746204    0.0604367
h     2.1869535   -1.4279832   -0.0219082  0.00    0.5862649   -0.9849487   -0.6204036
h     2.6509991   -0.7923529   -1.5756545  0.00   -0.0072506   -0.0320052    0.0214447
c     1.7550269   -3.2183158   -2.1165307  0.00   -0.0319245   -0.1879639   -0.2201597
o     1.5133499   -3.9654016   -3.1076573  0.00    0.0433858    0.1256804    0.1693688
o     2.8291758   -3.4284433   -1.2736024  0.00   -0.0224177    0.0378399    0.0337484
h     2.8632715   -2.5860016   -0.7153447  0.00   -0.9139162    1.4523048    0.4949207
n    -0.2968550   -2.5250575   -0.9302846  0.00   -0.0556290   -0.0667258   -0.0063336
h     0.5291065   -1.5584379   -2.6515195  0.00   -0.0091240   -0.0057186    0.0070363
h    -0.2136474   -2.2151672    0.0777745  0.00    0.0065349    0.0106318    0.0137844
h    -1.1588579   -2.0695644   -1.3195045  0.00    0.0020239    0.0173858   -0.0072740
    24
 Energy =       0.3273920283
c     1.6675985    2.5527134    0.3389401  0.00    0.0304310    0.0455585    0.0153027
c     0.3421465    2.8870205    0.2001059  0.00   -0.0024122    0.0619194    0.0166879
c    -0.5484498    1.9869461   -0.3377394  0.00   -0.0573758    0.0264335    0.0023014
c     2.0997694    1.2957817   -0.0416589  0.00    0.0439496   -0.0074047    0.0053073
c     1.2137892    0.3613279   -0.5715105  0.00    0.0112218   -0.0621103   -0.0150582
c    -0.1148414    0.7311899   -0.7290211  0.00   -0.0205568   -0.0307541   -0.0137262
o    -0.1207071    4.1138687    0.6203731  0.00   -0.0325874   -0.0117576   -0.0288863
h    -0.4945956    4.6166419   -0.1480261  0.00    0.0256393   -0.0207536    0.0240586
h    -0.8460591    0.0627180   -1.1659000  0.00   -0.0048132   -0.0030758   -0.0017384
h     3.1516292    1.0422990    0.0835227  0.00    0.0022270    0.0001845   -0.0004744
h     2.3732942    3.2621593    0.7612746  0.00    0.0070822   -0.0036215   -0.0007584
h    -1.5936519    2.2640763   -0.4441294  0.00   -0.0017715    0.0002754   -0.0006675
c     1.7734062   -1.0001466   -0.9457368  0.00    0.2431090   -0.3600560    0.0436319
c     0.8475942   -2.0069920   -1.6597020  0.00    0.0908216    0.0609922    0.0483001
h     2.1803292   -1.4436007   -0.0487092  0.00    0.4818432   -0.8127253   -0.5142919
h     2.6344233   -0.8075597   -1.6128830  0.00   -0.0054725   -0.0262905    0.0172865
c     1.6927863   -3.2044715   -2.1208848  0.00   -0.0267372   -0.1492560   -0.1773194
o     1.3895163   -3.9184939   -3.1525579  0.00    0.0330576    0.1003324    0.1337055
o     2.8200848   -3.4358022   -1.3472261  0.00   -0.0137667    0.0260936    0.0270647
h     2.8777539   -2.6222368   -0.7354258  0.00   -0.7540072    1.2030847    0.4122264
n    -0.2888478   -2.5181429   -0.8165525  0.00   -0.0465087   -0.0562881   -0.0036349
h     0.4354370   -1.5580863   -2.5918485  0.00   -0.0080016   -0.0041404    0.0043556
h    -0.1610909   -2.2013714    0.1839474  0.00    0.0053087    0.0088925    0.0129234
h    -1.1807830   -2.0834244   -1.1607514  0.00   -0.0006804    0.0144671   -0.0065966
    24
 Energy =       0.2280060632
c     1.6550279    2.5124552    0.3772870  0.00    0.0160163    0.0203699    0.0062980
c     0.3558510    2.8719240    0.1801681  0.00   -0.0012611    0.0270524    0.0078331
c    -0.5195202    1.9938970   -0.3867347  0.00   -0.0270366    0.0118460    0.0020661
c     2.0824321    1.2658571    0.0096573  0.00    0.0212539   -0.0024574    0.0019886
c     1.2121184    0.3623590   -0.5587513  0.00    0.0054338   -0.0287952   -0.0065004
c    -0.0950005    0.7468007   -0.7639656  0.00   -0.0103050   -0.0142407   -0.0060145
o    -0.0820428    4.1314798    0.5567830  0.00   -0.0146687   -0.0128101   -0.0001745
h    -0.3358425    4.6732894   -0.2616248  0.00    0.0103537   -0.0005947   -0.0022008
h    -0.8156354    0.0902380   -1.2360513  0.00   -0.0026990   -0.0020677   -0.0016030
h     3.1249197    0.9962040    0.1732991  0.00    0.0019978    0.0000716   -0.0000916
h     2.3466493    3.2179117    0.8278046  0.00    0.0037587   -0.0014243   -0.0003097
h    -1.5535926    2.2923588   -0.5385657  0.00   -0.0021838    0.0003798   -0.0004530
c     1.7673044   -0.9983066   -0.9511126  0.00    0.1464629   -0.2146982    0.0297534
c     0.8055797   -2.0004728   -1.6253094  0.00    0.0472861    0.0294907    0.0231439
h     2.1793483   -1.4657930   -0.0682361  0.00    0.2799302   -0.4789777   -0.3059015
h     2.6142472   -0.8043537   -1.6440853  0.00   -0.0021570   -0.0149114    0.0092056
c     1.6285782   -3.1816829   -2.1259318  0.00   -0.0145869   -0.0670397   -0.0798541
o     1.2573291   -3.8691749   -3.2230026  0.00    0.0118390    0.0469711    0.0567946
o     2.8122196   -3.4575925   -1.4430370  0.00   -0.0003402    0.0032100    0.0090469
h     2.9205822   -2.6983267   -0.7588491  0.00   -0.4413759    0.7167511    0.2519224
n    -0.2663299   -2.4904909   -0.7086464  0.00   -0.0226090   -0.0293195    0.0007888
h     0.3528496   -1.5479555   -2.5395019  0.00   -0.0043952   -0.0014308    0.0010481
h    -0.1037627   -2.1632960    0.2791835  0.00    0.0025350    0.0042378    0.0072726
h    -1.1927785   -2.1009151   -1.0128766  0.00   -0.0032491    0.0083868   -0.0040590
    24
 Energy =       0.1931899080
c     1.6131252    2.4980338    0.4195728  0.00    0.0107641    0.0136326    0.0044022
c     0.3196289    2.8535185    0.2047720  0.00   -0.0006616    0.0188249    0.0031886
c    -0.5396489    1.9804940   -0.3836437  0.00   -0.0182307    0.0082854    0.0011180
c     2.0515572    1.2612282    0.0464058  0.00    0.0143876   -0.0014299    0.0013623
c     1.1976544    0.3645841   -0.5469259  0.00    0.0034191   -0.0193814   -0.0042967
c    -0.1051924    0.7431143   -0.7674645  0.00   -0.0070907   -0.0096830   -0.0040184
o    -0.1298724    4.1089184    0.5856211  0.00   -0.0081773   -0.0305783    0.0362166
h    -0.1770893    4.7234140   -0.2503300  0.00    0.0053157    0.0205737   -0.0356995
h    -0.8148806    0.0867353   -1.2557334  0.00   -0.0019732   -0.0016284   -0.0011341
h     3.0918559    0.9940519    0.2247899  0.00    0.0014720    0.0000786   -0.0000267
h     2.2910566    3.2025153    0.8916686  0.00    0.0027455   -0.0007351   -0.0000962
h    -1.5714568    2.2782256   -0.5483173  0.00   -0.0015347    0.0003659   -0.0003064
c     1.7676145   -0.9862753   -0.9538762  0.00    0.1047519   -0.1540770    0.0215822
c     0.8158118   -1.9916046   -1.6426884  0.00    0.0321718    0.0196815    0.0156630
h     2.1872650   -1.4671345   -0.0720864  0.00    0.2019648   -0.3457776   -0.2198722
h     2.6156779   -0.7766407   -1.6429151  0.00   -0.0012843   -0.0106562    0.0064879
c     1.6455844   -3.1619863   -2.1536847  0.00   -0.0100747   -0.0450153   -0.0527922
o     1.2788871   -3.8355722   -3.2784322  0.00    0.0079503    0.0314932    0.0372315
o     2.8302383   -3.4607301   -1.4820733  0.00   -0.0001098    0.0012096    0.0053733
h     2.9527392   -2.7326790   -0.7716113  0.00   -0.3172252    0.5167601    0.1822846
n    -0.2460026   -2.4894675   -0.7260593  0.00   -0.0142009   -0.0203436    0.0004683
h     0.3626702   -1.5317013   -2.5528437  0.00   -0.0029208   -0.0009164    0.0006529
h    -0.1038454   -2.1460253    0.2580646  0.00    0.0019342    0.0030175    0.0053511
h    -1.1828464   -2.1386027   -1.0443090  0.00   -0.0033929    0.0062992   -0.0031401
    24
 Energy =       0.1843506765
c     1.5544571    2.4696471    0.5065894  0.00    0.0122108    0.0131247    0.0052118
c     0.2759795    2.8361639    0.2267606  0.00   -0.0005424    0.0183435    0.0030884
c    -0.5523934    1.9818358   -0.4347733  0.00   -0.0187931    0.0064043   -0.0003833
c     2.0107718    1.2434494    0.1226486  0.00    0.0148665   -0.0001010    0.0022765
c     1.1876361    0.3648986   -0.5399688  0.00    0.0034130   -0.0185763   -0.0041344
c    -0.1009340    0.7528289   -0.8246470  0.00   -0.0084591   -0.0093568   -0.0044592
o    -0.1864353    4.0850356    0.6170825  0.00   -0.0060050   -0.0326690    0.0412065
h    -0.3358425    4.6778448   -0.2261320  0.00    0.0036837    0.0234780   -0.0402331
h    -0.7843711    0.1111972   -1.3712921  0.00   -0.0033834   -0.0026353   -0.0021379
h     3.0413608    0.9703964    0.3482353  0.00    0.0026401    0.0002585    0.0004843
h     2.2076797    3.1605431    1.0342334  0.00    0.0039822    0.0004121    0.0008854
h    -1.5738762    2.2865036   -0.6504316  0.00   -0.0028788    0.0002973   -0.0007787
c     1.7816760   -0.9700246   -0.9648604  0.00    0.0958119   -0.1419589    0.0194051
c     0.8444477   -1.9875254   -1.6570029  0.00    0.0293568    0.0182883    0.0143668
h     2.2226142   -1.4445214   -0.0887396  0.00    0.1855306   -0.3173548   -0.2015737
h     2.6213062   -0.7373417   -1.6568289  0.00   -0.0008993   -0.0098058    0.0058227
c     1.6923528   -3.1377086   -2.1838890  0.00   -0.0085500   -0.0395077   -0.0446822
o     1.3704336   -3.7604789   -3.3567886  0.00    0.0066077    0.0267915    0.0302531
o     2.8717885   -3.4418251   -1.5064557  0.00   -0.0000232    0.0010588    0.0047606
h     2.9892819   -2.7223302   -0.7883174  0.00   -0.2911475    0.4744874    0.1672777
n    -0.2056573   -2.5049880   -0.7392176  0.00   -0.0103735   -0.0217244   -0.0022966
h     0.3803084   -1.5307937   -2.5631252  0.00   -0.0027103   -0.0006523    0.0005178
h    -0.0220293   -2.2242794    0.2604485  0.00    0.0024770    0.0040663    0.0094097
h    -1.1400236   -2.1021127   -1.0056279  0.00   -0.0068147    0.0073316   -0.0042874
    24
 Energy =       0.1657337626
c     1.5229832    2.4288746    0.6067801  0.00    0.0125131    0.0107870    0.0056641
c     0.2695973    2.8239101    0.2600430  0.00   -0.0006152    0.0158149    0.0023682
c    -0.5295309    2.0016229   -0.4771946  0.00   -0.0173706    0.0037793   -0.0021469
c     1.9863378    1.2106889    0.2107271  0.00    0.0138168    0.0015273    0.0032182
c     1.1922083    0.3651892   -0.5263490  0.00    0.0028866   -0.0160163   -0.0035467
c    -0.0726136    0.7791989   -0.8752931  0.00   -0.0091459   -0.0077402   -0.0045376
o    -0.1924479    4.0713002    0.6619091  0.00   -0.0024282   -0.0311191    0.0423158
h    -0.4530088    4.6383504   -0.1720434  0.00    0.0007652    0.0235449   -0.0408489
h    -0.7323038    0.1634642   -1.4809017  0.00   -0.0045042   -0.0032377   -0.0029961
h     3.0001929    0.9179378    0.4863852  0.00    0.0037560    0.0004586    0.0011277
h     2.1530994    3.0959990    1.1929865  0.00    0.0048211    0.0015104    0.0019323
h    -1.5339151    2.3251633   -0.7442699  0.00   -0.0040486    0.0002003   -0.0012493
c     1.7950175   -0.9610963   -0.9675251  0.00    0.0772696   -0.1142479    0.0152452
c     0.8649122   -1.9647218   -1.6933530  0.00    0.0234570    0.0144033    0.0109913
h     2.2131289   -1.4629886   -0.0889259  0.00    0.1505794   -0.2582176   -0.1627362
h     2.6503771   -0.7179957   -1.6374231  0.00   -0.0003548   -0.0077237    0.0044417
c     1.7069301   -3.1201962   -2.2177687  0.00   -0.0070123   -0.0307089   -0.0354523
o     1.3702830   -3.7537432   -3.3865001  0.00    0.0052675    0.0209727    0.0237316
o     2.8767281   -3.4524317   -1.5367857  0.00    0.0002692    0.0001209    0.0033919
h     2.9991786   -2.7587101   -0.7975390  0.00   -0.2357300    0.3849050    0.1362274
n    -0.2060869   -2.4779997   -0.7999303  0.00   -0.0082806   -0.0180983   -0.0020114
h     0.4240846   -1.4951373   -2.6044287  0.00   -0.0023052   -0.0003585    0.0001323
h    -0.0261894   -2.2317496    0.2086979  0.00    0.0023434    0.0034598    0.0083859
h    -1.1284310   -2.0485151   -1.0633972  0.00   -0.0059494    0.0059838   -0.0036482
    24
 Energy =       0.1439127185
c     1.5031303    2.3794739    0.7084437  0.00    0.0120576    0.0071394    0.0058081
c     0.2863867    2.8188339    0.2919439  0.00   -0.0010770    0.0122022    0.0011398
c    -0.4837532    2.0377205   -0.5189586  0.00   -0.0145808    0.0015196   -0.0036538
c     1.9624509    1.1639370    0.3056177  0.00    0.0120456    0.0027346    0.0040467
c     1.1974744    0.3623781   -0.5059753  0.00    0.0025857   -0.0124214   -0.0026662
c    -0.0323122    0.8172355   -0.9218393  0.00   -0.0092693   -0.0052572   -0.0043947
o    -0.1616068    4.0719292    0.7007209  0.00    0.0019399   -0.0266291    0.0398776
h    -0.5385687    4.6086111   -0.1056912  0.00   -0.0029307    0.0212222   -0.0381403
h    -0.6674758    0.2352714   -1.5857803  0.00   -0.0051113   -0.0032178   -0.0035523
h     2.9514966    0.8390938    0.6342199  0.00    0.0048171    0.0003695    0.0018159
h     2.1110464    3.0152672    1.3517396  0.00    0.0051724    0.0020814    0.0026972
h    -1.4624105    2.3916823   -0.8408124  0.00   -0.0050642    0.0003669   -0.0017419
c     1.7983717   -0.9605593   -0.9598005  0.00    0.0552985   -0.0803515    0.0102486
c     0.8760166   -1.9380895   -1.7341604  0.00    0.0167670    0.0098029    0.0067456
h     2.1759739   -1.5031622   -0.0773500  0.00    0.1095569   -0.1898761   -0.1166557
h     2.6794329   -0.7136159   -1.5964162  0.00    0.0005229   -0.0050402    0.0027036
c     1.7053841   -3.1061933   -2.2527859  0.00   -0.0054660   -0.0201462   -0.0245084
o     1.3503877   -3.7464147   -3.4194376  0.00    0.0035007    0.0138875    0.0160228
o     2.8608421   -3.4810604   -1.5670603  0.00    0.0008234   -0.0014138    0.0017041
h     2.9983673   -2.8228160   -0.8014770  0.00   -0.1701452    0.2797233    0.1002853
n    -0.2313254   -2.4387173   -0.8807364  0.00   -0.0064068   -0.0140656   -0.0012030
h     0.4745391   -1.4465510   -2.6523309  0.00   -0.0019561    0.0002063   -0.0007259
h    -0.0687945   -2.2307840    0.1384625  0.00    0.0020311    0.0026832    0.0071218
h    -1.1345219   -1.9770561   -1.1526356  0.00   -0.0051112    0.0044798   -0.0029747
    24
 Energy =       0.1272857628
c     1.4320555    2.3319449    0.8184400  0.00    0.0095590    0.0052486    0.0051802
c     0.2420444    2.7912228    0.3549238  0.00   -0.0004565    0.0090394    0.0011728
c    -0.4874623    2.0382025   -0.5178499  0.00   -0.0110116   -0.0001521   -0.0039184
c     1.9078379    1.1292920    0.4000709  0.00    0.0095294    0.0032668    0.0041476
c     1.1849568    0.3589760   -0.4756519  0.00    0.0012957   -0.0091564   -0.0022671
c    -0.0199850    0.8305711   -0.9365165  0.00   -0.0075704   -0.0040429   -0.0038402
o    -0.2154860    4.0376459    0.7809319  0.00    0.0046205   -0.0212834    0.0334749
h    -0.6850296    4.5531122    0.0155944  0.00   -0.0049469    0.0182173   -0.0318125
h    -0.6220031    0.2725008   -1.6497916  0.00   -0.0047263   -0.0031730   -0.0036321
h     2.8786750    0.7912009    0.7656672  0.00    0.0041864    0.0004841    0.0017994
h     2.0084119    2.9456520    1.5104927  0.00    0.0046974    0.0023860    0.0029686
h    -1.4473320    2.4040167   -0.8782763  0.00   -0.0044110    0.0001184   -0.0016385
c     1.8099546   -0.9455473   -0.9510693  0.00    0.0386317   -0.0552222    0.0077688
c     0.9240619   -1.9019506   -1.7963582  0.00    0.0121193    0.0068447    0.0029076
h     2.1575704   -1.5219923   -0.0716002  0.00    0.0783745   -0.1366461   -0.0819982
h     2.7153076   -0.6724890   -1.5441133  0.00    0.0016328   -0.0029637    0.0011117
c     1.7774099   -3.0426538   -2.3395842  0.00   -0.0040270   -0.0117886   -0.0118414
o     1.4837884   -3.6046285   -3.5729608  0.00    0.0002559    0.0061979    0.0022690
o     2.8983194   -3.4709635   -1.6245860  0.00    0.0015793   -0.0030587    0.0001655
h     3.0175232   -2.8694625   -0.8106442  0.00   -0.1195534    0.2013788    0.0752972
n    -0.2046033   -2.4422317   -0.9974774  0.00   -0.0062462   -0.0120875   -0.0026595
h     0.5481085   -1.3769865   -2.7070837  0.00   -0.0013184    0.0004851   -0.0013841
h    -0.0576453   -2.3083411    0.0376127  0.00    0.0018784    0.0023214    0.0094597
h    -1.0959469   -1.9506763   -1.2522695  0.00   -0.0040927    0.0035860   -0.0027308
    24
 Energy =       0.1228322948
c     1.4225758    2.3124840    0.8607322  0.00    0.0084272    0.0046079    0.0045965
c     0.2397037    2.7795836    0.3891076  0.00   -0.0003962    0.0079473    0.0010223