    24
 Energy =      44.5068115021
c     0.0448833    2.3534058   -1.3813971  0.00   -0.0475175    0.0477036   -0.0565465
c     0.1418476    2.9248573   -0.1206726  0.00   -0.0509637    0.0955035   -0.0074051
c     0.7555652    2.2402731    0.9181560  0.00   -0.0013904    0.0617989    0.0777060
c     0.5800579    1.0803682   -1.5985351  0.00    0.6923518    0.6368497   -0.5390876
c     1.2047783    0.3610782   -0.5608861  0.00    0.0820816   -0.0897335    0.0307311
c     1.2772621    0.9610456    0.7017654  0.00    0.0252936   -0.0329639    0.0379325
o    -0.3596449    4.1638607    0.1435223  0.00   -0.0075015   -0.0386514    0.0733743
h    -1.0078207    4.0887669    0.8629229  0.00    0.0452162   -0.0122085   -0.0600761
h     1.7275121    0.4624698    1.5506282  0.00   -0.0074543    0.0127048    0.0060144
h     0.4997167    0.6426498   -2.5929302  0.00   -1.1870037   -0.8731521    1.4055150
h    -0.4370006    2.8749235   -2.2021886  0.00    0.0015671   -0.0087011   -0.0078077
h     0.8245662    2.6993933    1.9006814  0.00   -0.0002546    0.0002128    0.0019542
c     1.7669373   -1.0073413   -0.8964724  0.00   -0.0682457    0.0225433   -0.0383027
c     0.8861134   -2.0194266   -1.6556448  0.00    0.0386114   -0.0860899    0.0168285
h     2.1212937   -1.4658931    0.0371405  0.00   -0.0039952    0.0148746   -0.0063549
h     2.6645729   -0.8285312   -1.5058794  0.00   -0.0141854    0.0034157    0.0062784
c     0.2877588   -1.3395944   -2.9073099  0.00   -0.1183655    0.3181664   -0.1023079
o    -0.0664180   -0.1744118   -2.9918994  0.00    0.6026493   -0.0688612   -0.8917340
o     0.1608327   -2.2305444   -3.9280651  0.00    0.2217149   -0.2454795    0.2108478
h     0.6076566   -3.0557810   -3.6102305  0.00  377.4378761 -248.2375282  316.5702934
n     1.5974427   -3.2508470   -2.1301054  0.00   -0.4962524    0.0167227   -0.7586467
h     0.0358579   -2.3311629   -1.0380560  0.00    0.0213651   -0.0141547   -0.0165915
h     1.2905400   -4.0382287   -1.5473940  0.00    0.0011190    0.0306370   -0.0234714
h     1.2573657   -3.4835548   -3.0659095  0.00 -377.1667160  248.4463908 -315.9291435
    24
 Energy =       4.2930925642
c     0.0448929    2.3533960   -1.3813856  0.00   -0.0474707    0.0478004   -0.0565922
c     0.1418580    2.9248379   -0.1206711  0.00   -0.0509178    0.0954281   -0.0073733
c     0.7555655    2.2402605    0.9181402  0.00   -0.0013908    0.0617652    0.0776313
c     0.5799169    1.0802386   -1.5984254  0.00    0.6923422    0.6366729   -0.5380879
c     1.2047616    0.3610965   -0.5608923  0.00    0.0820368   -0.0895404    0.0305846
c     1.2772569    0.9610524    0.7017577  0.00    0.0252785   -0.0329370    0.0379204
o    -0.3596434    4.1638686    0.1435073  0.00   -0.0075003   -0.0386157    0.0733185
h    -1.0078299    4.0887694    0.8629351  0.00    0.0451880   -0.0122107   -0.0600333
h     1.7275136    0.4624672    1.5506269  0.00   -0.0074464    0.0126883    0.0060295
h     0.4999583    0.6428276   -2.5932164  0.00   -1.1866266   -0.8724472    1.4049541
h    -0.4370009    2.8749252   -2.2021870  0.00    0.0015403   -0.0086820   -0.0078073
h     0.8245663    2.6993933    1.9006810  0.00   -0.0002507    0.0002220    0.0019772
c     1.7669512   -1.0073459   -0.8964646  0.00   -0.0682768    0.0225345   -0.0383470
c     0.8861056   -2.0194091   -1.6556482  0.00    0.0457456   -0.0761993    0.0425082
h     2.1212945   -1.4658961    0.0371418  0.00   -0.0039708    0.0148234   -0.0063737
h     2.6645758   -0.8285319   -1.5058806  0.00   -0.0141325    0.0033442    0.0063212
c     0.2877829   -1.3396592   -2.9072891  0.00   -0.1281544    0.3376213   -0.1055814
o    -0.0665407   -0.1743978   -2.9917179  0.00    0.6019742   -0.0698566   -0.8918912
o     0.1607875   -2.2304944   -3.9281080  0.00    0.2055630   -0.2810221    0.2013094
h     0.5308177   -3.0052447   -3.6746780  0.00   23.9521752  -15.5303659   20.2547419
n     1.5975437   -3.2508505   -2.1299510  0.00   -0.3196064   -0.0325471   -0.5324814
h     0.0358535   -2.3311600   -1.0380526  0.00    0.0214167   -0.0141715   -0.0163025
h     1.2905397   -4.0382350   -1.5473892  0.00   -0.0001273    0.0270706   -0.0273076
h     1.3341494   -3.5341336   -3.0015925  0.00  -23.8373890   15.7986244  -19.8491174
    24
 Energy =       4.2298432747
c     0.0207494    2.3806325   -1.3487581  0.00   -0.0438519    0.0430931   -0.0543737
c     0.1866626    2.9463282   -0.0886525  0.00   -0.0463115    0.0870754   -0.0052267
c     0.8118488    2.2396538    0.9246509  0.00   -0.0007746    0.0574528    0.0734163
c     0.5147019    1.0982241   -1.5891857  0.00    0.6293388    0.5762065   -0.4856403
c     1.1777512    0.3781872   -0.5860861  0.00    0.0740825   -0.0843331    0.0250322
c     1.3061523    0.9595502    0.6780984  0.00    0.0245809   -0.0314055    0.0365537
o    -0.2371679    4.2130926    0.2000772  0.00   -0.0046767   -0.0306913    0.0692868
h    -0.9248425    4.1570979    0.8898755  0.00    0.0421590   -0.0126031   -0.0526605
h     1.7957885    0.4472330    1.4987481  0.00   -0.0058831    0.0104772    0.0068835
h     0.3892706    0.5832687   -2.6253426  0.00   -1.0719588   -0.7822939    1.2769025
h    -0.4729534    2.9228859   -2.1475554  0.00    0.0018024   -0.0073953   -0.0065476
h     0.9373564    2.6928502    1.9065309  0.00    0.0010814    0.0001839    0.0042237
c     1.7681171   -0.9572170   -0.9699068  0.00   -0.0668407    0.0216136   -0.0355163
c     0.8650207   -1.9834132   -1.6636683  0.00    0.0401446   -0.0647766    0.0441649
h     2.2073319   -1.4168192   -0.0681016  0.00   -0.0022777    0.0112224   -0.0036707
h     2.6165083   -0.7464621   -1.6453025  0.00   -0.0106081    0.0035005    0.0031358
c     0.2805922   -1.3985430   -2.9727772  0.00   -0.1095455    0.3188690   -0.0890288
o    -0.1842947   -0.2656828   -3.1331997  0.00    0.5359248   -0.0722640   -0.8196391
o     0.1330373   -2.3878209   -3.9196051  0.00    0.1831594   -0.2630415    0.1764543
h     0.5456064   -3.1107498   -3.5970260  0.00   22.4662334  -14.5713396   18.9961625
n     1.5662781   -3.2616079   -2.0203836  0.00   -0.2891627   -0.0287883   -0.4914445
h    -0.0001111   -2.2257644   -1.0306662  0.00    0.0178641   -0.0137869   -0.0140492
h     1.2052279   -3.9934410   -1.3886361  0.00   -0.0029155    0.0206311   -0.0221965
h     1.3530445   -3.6437081   -2.9218867  0.00  -22.3615646   14.8123937  -18.6322225
    24
 Energy =       3.9650969283
c    -0.0124535    2.4123803   -1.2825489  0.00   -0.0357141    0.0349782   -0.0463538
c     0.2130884    2.9650041   -0.0296976  0.00   -0.0379776    0.0716199   -0.0031145
c     0.8518692    2.2374247    0.9530822  0.00   -0.0008809    0.0476794    0.0614815
c     0.4417771    1.1276500   -1.5434677  0.00    0.4925991    0.4531573   -0.3618244
c     1.1332130    0.3985744   -0.5842499  0.00    0.0593602   -0.0702121    0.0182536
c     1.3197818    0.9596671    0.6761286  0.00    0.0209313   -0.0262020    0.0314559
o    -0.1609673    4.2486584    0.2767775  0.00   -0.0008257   -0.0227854    0.0569751
h    -0.8890798    4.2135480    0.9371200  0.00    0.0341257   -0.0110844   -0.0411644
h     1.8466736    0.4302649    1.4644309  0.00   -0.0040267    0.0075665    0.0068995
h     0.2445977    0.5084510   -2.6103234  0.00   -0.8148942   -0.5810824    0.9983903
h    -0.5270222    2.9718741   -2.0555186  0.00    0.0017050   -0.0056394   -0.0054396
h     1.0258550    2.6814470    1.9327107  0.00    0.0017370    0.0002230    0.0051260
c     1.7443298   -0.9134190   -1.0223817  0.00   -0.0562523    0.0170716   -0.0292723
c     0.8519831   -1.9582850   -1.7092645  0.00    0.0311762   -0.0484352    0.0393760
h     2.2213679   -1.3883698   -0.1449158  0.00   -0.0017724    0.0078446   -0.0027720
h     2.5723185   -0.6702511   -1.7159774  0.00   -0.0082201    0.0027808    0.0018771
c     0.2698651   -1.4633379   -3.0662409  0.00   -0.0838008    0.2658273   -0.0675619
o    -0.3097582   -0.3635063   -3.2919528  0.00    0.3935096   -0.0988042   -0.6658505
o     0.1579344   -2.5056252   -3.9705116  0.00    0.1469664   -0.2194325    0.1401594
h     0.6171027   -3.1782645   -3.5852393  0.00   18.9366853  -12.2843929   16.0129648
n     1.5950724   -3.2421713   -1.9695418  0.00   -0.2349958   -0.0175290   -0.3950159
h    -0.0272776   -2.1810083   -1.0831717  0.00    0.0139694   -0.0112494   -0.0119545
h     1.2459067   -3.9427647   -1.2910379  0.00   -0.0034351    0.0149494   -0.0175084
h     1.4354989   -3.7201657   -2.9029676  0.00  -18.8499693   12.4731507  -15.7251270
    24
 Energy =       3.4405575728
c    -0.0536066    2.4090042   -1.2141793  0.00   -0.0245332    0.0240303   -0.0325213
c     0.1874313    2.9580886    0.0227294  0.00   -0.0262706    0.0497097   -0.0024323
c     0.8407455    2.2320937    0.9875386  0.00   -0.0013919    0.0332181    0.0421468
c     0.3923964    1.1354997   -1.4756243  0.00    0.3104108    0.2932561   -0.2111142
c     1.0901795    0.4017307   -0.5455010  0.00    0.0400212   -0.0490235    0.0126508
c     1.3040850    0.9607350    0.7028858  0.00    0.0139399   -0.0177468    0.0220673
o    -0.2045929    4.2446823    0.3200422  0.00    0.0002814   -0.0155974    0.0381482
h    -0.9628226    4.2182637    0.9611036  0.00    0.0226242   -0.0071250   -0.0289919
h     1.8519994    0.4277973    1.4744908  0.00   -0.0031551    0.0054181    0.0052316
h     0.1435317    0.4739427   -2.5096651  0.00   -0.4798480   -0.3198701    0.6556734
h    -0.5922480    2.9658633   -1.9734796  0.00    0.0010851   -0.0039223   -0.0046320
h     1.0268579    2.6780324    1.9623753  0.00    0.0006756    0.0005836    0.0033521
c     1.7206322   -0.9120958   -0.9991429  0.00   -0.0398981    0.0136272   -0.0184552
c     0.8717958   -1.9606626   -1.7739833  0.00    0.0193344   -0.0328049    0.0258657
h     2.1463886   -1.4181575   -0.1082273  0.00   -0.0009004    0.0050081    0.0002003
h     2.5917943   -0.6507846   -1.6365924  0.00   -0.0038729    0.0028022    0.0004099
c     0.2938812   -1.4694833   -3.1396525  0.00   -0.0567186    0.1858932   -0.0449242
o    -0.3291362   -0.3552408   -3.3733841  0.00    0.2198294   -0.1308899   -0.4657570
o     0.2248089   -2.4716173   -4.0810739  0.00    0.1042574   -0.1573447    0.0990920
h     0.7080712   -3.1533949   -3.6906518  0.00   13.9782651   -9.0678896   11.8238963
n     1.6793424   -3.2149733   -2.0321210  0.00   -0.1670099   -0.0086503   -0.2842487
h    -0.0206949   -2.2305175   -1.1753693  0.00    0.0080816   -0.0084375   -0.0075914
h     1.4046598   -3.9314786   -1.3273866  0.00   -0.0027709    0.0065019   -0.0087180
h     1.5461771   -3.7095523   -2.9938909  0.00  -13.9124366    9.1992536  -11.6193483
    24
 Energy =       3.1573864040
c    -0.0158933    2.4216137   -1.1728738  0.00   -0.0204736    0.0202126   -0.0277196
c     0.2686743    2.9548948    0.0581506  0.00   -0.0218297    0.0414733   -0.0021653
c     0.9664829    2.2228642    0.9844067  0.00   -0.0006541    0.0273860    0.0365571
c     0.4190900    1.1549607   -1.4631584  0.00    0.2624225    0.2475326   -0.1712100
c     1.1498413    0.4097617   -0.5701644  0.00    0.0334998   -0.0411701    0.0111635
c     1.4189926    0.9573613    0.6697824  0.00    0.0120420   -0.0146844    0.0198482
o    -0.1468944    4.2277818    0.3941750  0.00    0.0003022   -0.0114379    0.0311644
h    -0.9134783    4.1660120    1.0295441  0.00    0.0179557   -0.0063207   -0.0235955
h     1.9963375    0.4134471    1.4126555  0.00   -0.0021562    0.0042453    0.0051038
h     0.0884698    0.4675051   -2.4762486  0.00   -0.4065019   -0.2659046    0.5394777
h    -0.6010862    2.9802456   -1.8974534  0.00   -0.0000540   -0.0025909   -0.0052021
h     1.1856110    2.6578753    1.9574033  0.00    0.0007399    0.0006729    0.0034095
c     1.7379066   -0.9228947   -1.0500955  0.00   -0.0328079    0.0118070   -0.0146413
c     0.8202604   -1.9555528   -1.7770403  0.00    0.0153810   -0.0269128    0.0206538
h     2.1959812   -1.4362447   -0.1783097  0.00   -0.0002257    0.0042293    0.0008448
h     2.5834182   -0.6846907   -1.7327215  0.00   -0.0019536    0.0024155   -0.0006700
c     0.2077243   -1.4520054   -3.1181877  0.00   -0.0469550    0.1551190   -0.0375902
o    -0.4077372   -0.3131952   -3.3120416  0.00    0.1853321   -0.1126061   -0.3878105
o     0.1118620   -2.4193246   -4.0878429  0.00    0.0866752   -0.1309638    0.0820914
h     0.5876946   -3.1381879   -3.7243582  0.00   11.8988954   -7.7207438   10.0644633
n     1.5752316   -3.2406161   -2.0468150  0.00   -0.1399677   -0.0079087   -0.2428019
h    -0.0574630   -2.1795549   -1.1342781  0.00    0.0049163   -0.0069458   -0.0053457
h     1.2544170   -3.9629761   -1.3643390  0.00   -0.0027751    0.0034778   -0.0060795
h     1.4362340   -3.7013052   -3.0189489  0.00  -11.8418075    7.8296183   -9.8899461
    24
 Energy =       2.8630421091
c     0.0093189    2.4195553   -1.1062290  0.00   -0.0167792    0.0162240   -0.0236210
c     0.3528993    2.9398170    0.1119068  0.00   -0.0176735    0.0337411   -0.0014201
c     1.0774933    2.1925219    1.0010787  0.00   -0.0005708    0.0224875    0.0304998
c     0.4108850    1.1518974   -1.4217343  0.00    0.2089244    0.1978044   -0.1342369
c     1.1686514    0.3910631   -0.5689552  0.00    0.0269271   -0.0337227    0.0086822
c     1.4989396    0.9257956    0.6594323  0.00    0.0100511   -0.0116554    0.0172129
o    -0.0305243    4.2199086    0.4695307  0.00    0.0005845   -0.0079193    0.0250127
h    -0.8110424    4.1720272    1.0942449  0.00    0.0143394   -0.0051156   -0.0188096
h     2.1027597    0.3675450    1.3708527  0.00   -0.0012587    0.0031464    0.0049164
h     0.0232727    0.4775072   -2.4098214  0.00   -0.3229443   -0.2077286    0.4248261
h    -0.5987319    2.9925139   -1.8006095  0.00   -0.0004166   -0.0017956   -0.0049661
h     1.3443641    2.6192010    1.9663572  0.00    0.0009493    0.0010879    0.0038137
c     1.7240118   -0.9506145   -1.0784207  0.00   -0.0258465    0.0092470   -0.0118687
c     0.7696436   -1.9530948   -1.8068320  0.00    0.0120135   -0.0219106    0.0170888
h     2.1822103   -1.4894222   -0.2214072  0.00   -0.0000058    0.0031303    0.0009927
h     2.5646355   -0.7217981   -1.7703365  0.00   -0.0014846    0.0018493   -0.0005348
c     0.1334414   -1.4095000   -3.1164002  0.00   -0.0366590    0.1244436   -0.0294218
o    -0.4806739   -0.2459520   -3.2471881  0.00    0.1452825   -0.0936032   -0.3083817
o     0.0151513   -2.3253660   -4.1306715  0.00    0.0679547   -0.1036808    0.0638355
h     0.4812894   -3.0914325   -3.8109157  0.00    9.7982075   -6.3612172    8.2866696
n     1.4999220   -3.2410218   -2.1153462  0.00   -0.1141792   -0.0074527   -0.1997064
h    -0.0956621   -2.1720750   -1.1436238  0.00    0.0036375   -0.0054396   -0.0040633
h     1.1768105   -3.9784488   -1.4488905  0.00   -0.0022896    0.0023635   -0.0046335
h     1.3426118   -3.6628524   -3.0947810  0.00   -9.7487636    6.4457164   -8.1418865
    24
 Energy =       2.5910680116
c     0.0142810    2.4044130   -1.0412108  0.00   -0.0136696    0.0124612   -0.0204178
c     0.4238610    2.9212052    0.1551722  0.00   -0.0138502    0.0269455   -0.0008412
c     1.1821206    2.1670604    1.0063448  0.00   -0.0002934    0.0180480    0.0252146
c     0.3832866    1.1348589   -1.3752153  0.00    0.1617865    0.1541977   -0.1041061
c     1.1762948    0.3685994   -0.5640893  0.00    0.0209580   -0.0272962    0.0062193
c     1.5730817    0.8988762    0.6444363  0.00    0.0083643   -0.0088346    0.0149542
o     0.0761979    4.2106958    0.5246396  0.00    0.0009190   -0.0051186    0.0196352
h    -0.7101092    4.1854970    1.1479143  0.00    0.0112271   -0.0037783   -0.0146418
h     2.2104345    0.3343121    1.3219076  0.00   -0.0003451    0.0022261    0.0048712
h    -0.0502162    0.4801465   -2.3384562  0.00   -0.2505120   -0.1586444    0.3271075
h    -0.6179296    2.9867406   -1.7059414  0.00   -0.0007052   -0.0011870   -0.0047206
h     1.5031172    2.5927561    1.9561870  0.00    0.0013412    0.0015474    0.0043523
c     1.7075502   -0.9755990   -1.0987035  0.00   -0.0199012    0.0071224   -0.0093873
c     0.7268852   -1.9504168   -1.8322934  0.00    0.0091817   -0.0175852    0.0140355
h     2.1625526   -1.5370649   -0.2539461  0.00    0.0000515    0.0022030    0.0010783
h     2.5456648   -0.7512771   -1.7950483  0.00   -0.0011714    0.0013572   -0.0003238
c     0.0692443   -1.3682898   -3.1116826  0.00   -0.0271640    0.0972641   -0.0223694
o    -0.5612724   -0.1927374   -3.1738946  0.00    0.1103292   -0.0748202   -0.2391826
o    -0.0565678   -2.2300996   -4.1722223  0.00    0.0520214   -0.0802376    0.0478873
h     0.3925196   -3.0387518   -3.8919753  0.00    7.9163005   -5.1429815    6.6944403
n     1.4433996   -3.2332872   -2.1777723  0.00   -0.0911986   -0.0065798   -0.1606973
h    -0.1266513   -2.1737993   -1.1535343  0.00    0.0026521   -0.0042258   -0.0029372
h     1.1257650   -3.9865165   -1.5253383  0.00   -0.0018537    0.0014815   -0.0033139
h     1.2681666   -3.6195469   -3.1640373  0.00   -7.8744680    5.2064352   -6.5768566
    24
 Energy =       2.3540156399
c    -0.0175520    2.3743606   -0.9355948  0.00   -0.0113790    0.0109292   -0.0167140
c     0.4309845    2.8637294    0.2553426  0.00   -0.0109927    0.0209257   -0.0016354
c     1.2448165    2.1034992    1.0469297  0.00    0.0009142    0.0132117    0.0211039
c     0.3596557    1.1238903   -1.3218954  0.00    0.1224458    0.1184418   -0.0809815
c     1.1975564    0.3504582   -0.5664092  0.00    0.0166362   -0.0223143    0.0053178
c     1.6411048    0.8547006    0.6342320  0.00    0.0073468   -0.0077769    0.0126653
o     0.0566302    4.1308908    0.6825500  0.00    0.0006673   -0.0009488    0.0144606
h    -0.7307814    4.0616421    1.3066674  0.00    0.0073441   -0.0031946   -0.0103090
h     2.3194917    0.2817819    1.2653670  0.00    0.0009537    0.0006760    0.0049537
h    -0.0916261    0.5083484   -2.2768888  0.00   -0.1895012   -0.1183809    0.2510859
h    -0.6908778    2.9641060   -1.5537450  0.00   -0.0017696    0.0002050   -0.0047819
h     1.5977138    2.5084868    1.9941974  0.00    0.0013791    0.0013211    0.0041131
c     1.7240283   -0.9752260   -1.1509731  0.00   -0.0149354    0.0050989   -0.0074345
c     0.7207301   -1.9202937   -1.8920497  0.00    0.0069051   -0.0139297    0.0115352
h     2.1933715   -1.5648346   -0.3325084  0.00    0.0004023    0.0012798    0.0014114
h     2.5481945   -0.7308399   -1.8578886  0.00   -0.0006946    0.0009930   -0.0005988
c     0.0505307   -1.2938854   -3.1418858  0.00   -0.0191499    0.0748387   -0.0161582
o    -0.5971604   -0.1118006   -3.1310553  0.00    0.0808577   -0.0584118   -0.1837113
o    -0.0680593   -2.0935869   -4.2544508  0.00    0.0385337   -0.0593425    0.0327242
h     0.3351213   -2.9532504   -4.0068682  0.00    6.3233686   -4.1134187    5.3470544
n     1.4237142   -3.1952316   -2.2750143  0.00   -0.0718168   -0.0055791   -0.1275957
h    -0.1237366   -2.1509447   -1.2030223  0.00    0.0019601   -0.0031685   -0.0021302
h     1.1116881   -3.9643491   -1.6376897  0.00   -0.0015013    0.0008093   -0.0023116
h     1.2261381   -3.5438762   -3.2661064  0.00   -6.2879746    4.1577356   -5.2520633
    24
 Energy =       2.1257109405
c     0.0023364    2.3575478   -0.8520859  0.00   -0.0089236    0.0087365   -0.0124913
c     0.4494724    2.7999850    0.3546189  0.00   -0.0080257    0.0149283   -0.0014625
c     1.2811252    2.0195672    1.1031786  0.00    0.0008291    0.0099707    0.0160642
c     0.3914928    1.1315814   -1.2959599  0.00    0.0869078    0.0843926   -0.0605396
c     1.2303751    0.3333092   -0.5738747  0.00    0.0121557   -0.0170106    0.0037381
c     1.6820309    0.7926174    0.6387698  0.00    0.0058668   -0.0064046    0.0096684
o     0.0495078    4.0403843    0.8413031  0.00    0.0009008    0.0025436    0.0105472
h    -0.7509122    3.9290952    1.4479397  0.00    0.0034763   -0.0029352   -0.0063710
h     2.3668078    0.1970285    1.2410002  0.00    0.0010638    0.0001549    0.0040529
h    -0.0444366    0.5797514   -2.2655203  0.00   -0.1307900   -0.0822365    0.1859861
h    -0.6816098    2.9666242   -1.4386538  0.00   -0.0019451    0.0004936   -0.0038067
h     1.6351640    2.3887911    2.0640757  0.00    0.0009718    0.0013949    0.0037113
c     1.7370488   -0.9802796   -1.1975125  0.00   -0.0100266    0.0038258   -0.0054960
c     0.6982124   -1.8794908   -1.9455483  0.00    0.0047963   -0.0102081    0.0079596
h     2.2043789   -1.6012730   -0.4004987  0.00    0.0006261    0.0005863    0.0015743
h     2.5561445   -0.7315566   -1.9087993  0.00   -0.0003939    0.0007119   -0.0003891
c     0.0428265   -1.2133296   -3.1835194  0.00   -0.0118945    0.0492833   -0.0100687
o    -0.5184856    0.0272331   -3.1655492  0.00    0.0513181   -0.0399912   -0.1377973
o    -0.1136665   -1.9806442   -4.3162850  0.00    0.0277712   -0.0414076    0.0221516
h     0.2626721   -2.8713136   -4.1005695  0.00    4.8211962   -3.1389143    4.0758063
n     1.3608964   -3.1706103   -2.3364164  0.00   -0.0519206   -0.0029993   -0.0951713
h    -0.1505660   -2.0867040   -1.2532769  0.00    0.0011373   -0.0022747   -0.0016315
h     0.9980982   -3.9458030   -1.7308386  0.00   -0.0017129   -0.0018060   -0.0002179
h     1.1727633   -3.4747360   -3.3447370  0.00   -4.7933845    3.1691657   -4.0058170
    24
 Energy =       1.9817838515
c     0.0476271    2.3543178   -0.7971787  0.00   -0.0073929    0.0071999   -0.0102734
c     0.5243711    2.7691246    0.4064432  0.00   -0.0064242    0.0118833   -0.0011405
c     1.3638293    1.9675615    1.1207626  0.00    0.0008310    0.0080684    0.0132598
c     0.4136935    1.1344852   -1.2728290  0.00    0.0674098    0.0654825   -0.0479589
c     1.2554163    0.3147364   -0.5822541  0.00    0.0095019   -0.0136288    0.0029032
c     1.7392163    0.7459600    0.6264722  0.00    0.0049751   -0.0052620    0.0080494
o     0.1487571    4.0061256    0.9220551  0.00    0.0004883    0.0029546    0.0085505
h    -0.6555400    3.8995225    1.5257370  0.00    0.0027062   -0.0023914   -0.0049596
h     2.4294468    0.1305370    1.2018465  0.00    0.0012053   -0.0001688    0.0035408
h    -0.0346936    0.6186056   -2.2460764  0.00   -0.1011425   -0.0625146    0.1457337
h    -0.6384545    2.9839683   -1.3585966  0.00   -0.0018707    0.0006730   -0.0032983
h     1.7432106    2.3156806    2.0795588  0.00    0.0009473    0.0012878    0.0034255
c     1.7252915   -0.9974527   -1.2335965  0.00   -0.0071248    0.0030278   -0.0041919
c     0.6443291   -1.8588753   -1.9649605  0.00    0.0031598   -0.0075652    0.0057164
h     2.1969531   -1.6399032   -0.4559457  0.00    0.0007839    0.0002772    0.0015152
h     2.5324009   -0.7566984   -1.9614014  0.00   -0.0000866    0.0004877   -0.0004667
c    -0.0133804   -1.1657916   -3.1877552  0.00   -0.0086249    0.0361122   -0.0070819
o    -0.5079764    0.1106498   -3.1565799  0.00    0.0382788   -0.0294739   -0.1083363
o    -0.2176946   -1.9127439   -4.3290671  0.00    0.0209994   -0.0320938    0.0159799
h     0.1674915   -2.8141994   -4.1548232  0.00    3.8930243   -2.5360106    3.2901552
n     1.2625835   -3.1674881   -2.3631893  0.00   -0.0388482   -0.0005521   -0.0759815
h    -0.1974529   -2.0389339   -1.2553933  0.00    0.0003010   -0.0016129   -0.0010433
h     0.8393451   -3.9436075   -1.7951801  0.00   -0.0027614   -0.0047410    0.0018675
h     1.0929066   -3.4278060   -3.3868079  0.00   -3.8703357    2.5585607   -3.2359647
    24
 Energy =       1.8040466813
c     0.0428928    2.3230875   -0.6909492  0.00   -0.0062620    0.0059287   -0.0084810
c     0.5808647    2.7103566    0.4950787  0.00   -0.0046694    0.0088422   -0.0010649
c     1.4654655    1.8993238    1.1405482  0.00    0.0018378    0.0049855    0.0107091
c     0.3921329    1.1209995   -1.2189871  0.00    0.0423833    0.0423550   -0.0334427
c     1.2770679    0.2944672   -0.5958504  0.00    0.0063635   -0.0103758    0.0020640
c     1.8228199    0.6964684    0.5949149  0.00    0.0045433   -0.0043132    0.0068086
o     0.2243724    3.9326106    1.0597148  0.00   -0.0000469    0.0036421    0.0058570
h    -0.5666456    3.8147287    1.6806662  0.00    0.0014492   -0.0014794   -0.0028634
h     2.5501966    0.0715590    1.1139530  0.00    0.0023367   -0.0013932    0.0036867
h    -0.0871894    0.6415283   -2.1885432  0.00   -0.0659878   -0.0376108    0.0943462
h    -0.6733321    2.9648941   -1.1998435  0.00   -0.0024257    0.0015411   -0.0032735
h     1.8946951    2.2258781    2.0861564  0.00    0.0014027    0.0010556    0.0037397
c     1.7255760   -0.9929890   -1.3029987  0.00   -0.0043076    0.0012233   -0.0027967
c     0.6092557   -1.8292660   -2.0054657  0.00    0.0021452   -0.0051055    0.0040979
h     2.2309624   -1.6576082   -0.5643361  0.00    0.0012822   -0.0006240    0.0020555
h     2.4995953   -0.7303191   -2.0600700  0.00    0.0007514    0.0002089   -0.0012420
c    -0.0960181   -1.1063079   -3.1862839  0.00   -0.0052594    0.0228948   -0.0039399
o    -0.5730454    0.1831216   -3.0969511  0.00    0.0238709   -0.0195508   -0.0709027
o    -0.3522635   -1.8125090   -4.3476488  0.00    0.0091932   -0.0153271    0.0074478
h     0.0804961   -2.7155139   -4.2580903  0.00    2.7706892   -1.8103331    2.3380093
n     1.2108285   -3.1284363   -2.4412393  0.00   -0.0257096   -0.0001534   -0.0519972
h    -0.2034435   -2.0162840   -1.2624142  0.00   -0.0006160   -0.0008108    0.0000212
h     0.7757487   -3.9164905   -1.9002901  0.00   -0.0021536   -0.0038883    0.0015719
h     1.0306440   -3.3455244   -3.4698300  0.00   -2.7508105    1.8182883   -2.3004107
    24
 Energy =       1.6640900805
c     0.0258710    2.2832208   -0.5850230  0.00   -0.0050656    0.0050574   -0.0060962
c     0.6074427    2.6429482    0.5874724  0.00   -0.0034432    0.0063543   -0.0011315
c     1.5317544    1.8285534    1.1681952  0.00    0.0022066    0.0027883    0.0080309
c     0.3703285    1.1047444   -1.1653074  0.00    0.0249152    0.0258343   -0.0222389
c     1.2919140    0.2758653   -0.6040057  0.00    0.0043659   -0.0077213    0.0014960
c     1.8822466    0.6496415    0.5724258  0.00    0.0038539   -0.0036727    0.0050220
o     0.2573946    3.8438897    1.2010093  0.00   -0.0001752    0.0039170    0.0035602
h    -0.5173081    3.7031807    1.8394193  0.00    0.0001948   -0.0008963   -0.0011253
h     2.6406559    0.0202379    1.0396574  0.00    0.0027180   -0.0019474    0.0031785
h    -0.1260934    0.6628510   -2.1388965  0.00   -0.0403374   -0.0210183    0.0581732
h    -0.7165804    2.9321132   -1.0451177  0.00   -0.0025636    0.0019149   -0.0027748
h     1.9970428    2.1338390    2.1032107  0.00    0.0013785    0.0007596    0.0031979
c     1.7275143   -0.9841368   -1.3611050  0.00   -0.0024204    0.0001278   -0.0019484
c     0.5883079   -1.7955826   -2.0506975  0.00    0.0012794   -0.0034414    0.0027076
h     2.2537370   -1.6704020   -0.6570577  0.00    0.0013032   -0.0009678    0.0019202
h     2.4784469   -0.6966801   -2.1324173  0.00    0.0008648    0.0000859   -0.0013565
c    -0.1359472   -1.0401028   -3.2007913  0.00   -0.0026312    0.0137813   -0.0018144
o    -0.6166356    0.2492937   -3.0516646  0.00    0.0133130   -0.0118354   -0.0438607
o    -0.3968160   -1.6952813   -4.3943866  0.00    0.0041639   -0.0080552    0.0030342
h     0.0412601   -2.6039886   -4.3649966  0.00    1.9028767   -1.2459909    1.6037803
n     1.1721535   -3.0898134   -2.5116425  0.00   -0.0144854    0.0024465   -0.0325177
h    -0.2081005   -1.9862703   -1.2906807  0.00   -0.0006540   -0.0002706    0.0002550
h     0.6931683   -3.8875265   -2.0219035  0.00   -0.0028400   -0.0054229    0.0026890
h     1.0199194   -3.2528194   -3.5544559  0.00   -1.8888180    1.2481730   -1.5821807
    24
 Energy =       1.5956816733
c    -0.0100525    2.2406046   -0.4912069  0.00   -0.0046197    0.0048299   -0.0048744
c     0.6019547    2.5819421    0.6703961  0.00   -0.0030059    0.0053132   -0.0011880
c     1.5603268    1.7721644    1.1993298  0.00    0.0023665    0.0018651    0.0068277
c     0.3379863    1.0848836   -1.1132185  0.00    0.0179052    0.0195851   -0.0175765
c     1.2937192    0.2615633   -0.6030572  0.00    0.0037902   -0.0066553    0.0014094
c     1.9139729    0.6166116    0.5626153  0.00    0.0036240   -0.0036097    0.0040406
o     0.2494997    3.7611658    1.3239626  0.00    0.0001303    0.0041954    0.0022604
h    -0.5057818    3.5928508    1.9800494  0.00   -0.0007766   -0.0007364   -0.0000227
h     2.6993513   -0.0094203    0.9883744  0.00    0.0029291   -0.0022473    0.0028715
h    -0.1739780    0.6671714   -2.0883615  0.00   -0.0304333   -0.0150402    0.0435914
h    -0.7770735    2.8881221   -0.9114479  0.00   -0.0027025    0.0021557   -0.0025187
h     2.0500060    2.0630510    2.1260217  0.00    0.0013204    0.0005756    0.0028120
c     1.7312762   -0.9701113   -1.4029432  0.00   -0.0017861   -0.0005268   -0.0016481
c     0.5863589   -1.7716949   -2.0914639  0.00    0.0010361   -0.0028041    0.0023322
h     2.2758909   -1.6707764   -0.7273046  0.00    0.0012698   -0.0011770    0.0018197
h     2.4652043   -0.6527031   -2.1790213  0.00    0.0010005    0.0001388   -0.0015034
c    -0.1572746   -0.9904205   -3.2121978  0.00   -0.0012201    0.0105077   -0.0000168
o    -0.6747198    0.2800196   -3.0012877  0.00    0.0086339   -0.0062747   -0.0321448
o    -0.3840687   -1.5899979   -4.4444412  0.00    0.0013904   -0.0049316    0.0000490
h     0.0904497   -2.4829332   -4.4716537  0.00    1.4869310   -0.9763511    1.2508561
n     1.1689857   -3.0533520   -2.5830318  0.00   -0.0049956    0.0084647   -0.0196410
h    -0.1961251   -1.9809094   -1.3214802  0.00   -0.0007774    0.0000136    0.0005381
h     0.6268448   -3.8656355   -2.1806567  0.00   -0.0068385   -0.0114277    0.0058098
h     1.0889234   -3.1444208   -3.6467347  0.00   -1.4751718    0.9741371   -1.2440835
    24
 Energy =       1.4924699119
c     0.0280008    2.2271472   -0.4387889  0.00   -0.0026029    0.0027871   -0.0024617
c     0.6621502    2.5380271    0.7179135  0.00   -0.0015454    0.0027412   -0.0006541