    13
 Energy =       0.1150461380
c    -3.7133889    1.6950595    0.3173519  0.00   -0.0764883    0.0344944    0.0944552
c    -2.4962693    2.6345192    0.2419999  0.00    0.2037907    0.1670741   -0.3006519
c    -4.9565486    2.3924193   -0.2155699  0.00    0.0130911   -0.0004793    0.0103801
h    -4.7854386    2.7464192   -1.2386596  0.00   -0.0050864   -0.0035173    0.0186130
h    -5.2149185    3.2645991    0.3947669  0.00    0.0024880   -0.0120547   -0.0126178
h    -5.8205083    1.7195795   -0.2420919  0.00    0.0121273    0.0113262   -0.0050980
n    -3.4097890    0.4519539   -0.4549189  0.00    0.0258420   -0.0685918   -0.0109441
h    -3.8575589    1.4177196    1.3669296  0.00    0.0084635   -0.0084571   -0.0278952
h    -3.2072391   -0.2948399    0.2179739  0.00   -0.0176784    0.0297046   -0.0190461
h    -4.2689788    0.1396900   -0.9176007  0.00    0.0230155    0.0217542    0.0251250
o    -1.9513094    3.0041591   -0.7839488  0.00   -0.1295588   -0.1032657    0.2466454
o    -2.1005994    3.0267291    1.4825496  0.00   -0.0448004   -0.0307629   -0.0100213
h    -2.2705794    4.0015489    1.5135996  0.00   -0.0152059   -0.0372248   -0.0089443
    13
 Energy =       0.0951340524
c    -3.7226333    1.6947405    0.3257994  0.00   -0.0479726    0.0214354    0.0596235
c    -2.4890767    2.6026644    0.2787697  0.00    0.1257860    0.1081010   -0.1884286
c    -4.9424344    2.4178064   -0.2518249  0.00    0.0115115   -0.0019091    0.0093249
h    -4.6923385    2.8635703   -1.2377005  0.00   -0.0005437    0.0009473    0.0051915
h    -5.2659915    3.2329054    0.4225895  0.00    0.0006204   -0.0043067   -0.0034864
h    -5.7994291    1.7306401   -0.4008450  0.00    0.0022191    0.0021691   -0.0049318
n    -3.4367175    0.4444430   -0.4280167  0.00    0.0186892   -0.0426570   -0.0062978
h    -3.9029058    1.4435519    1.3847939  0.00    0.0052757   -0.0051972   -0.0168737
h    -3.2427926   -0.3098708    0.2515916  0.00   -0.0113977    0.0186692   -0.0117076
h    -4.2799777    0.1345615   -0.9392047  0.00    0.0128337    0.0135421    0.0146346
o    -1.9293131    2.9653444   -0.8166817  0.00   -0.0819918   -0.0661573    0.1540157
o    -2.0242321    3.0104387    1.5008815  0.00   -0.0181497   -0.0379436   -0.0038892
h    -2.3252841    3.9687607    1.5922295  0.00   -0.0168801   -0.0066932   -0.0071752
    13
 Energy =       0.0886450114
c    -3.7072019    1.6888586    0.3224289  0.00   -0.0310889    0.0138667    0.0390892
c    -2.4636992    2.5778211    0.2890057  0.00    0.0813176    0.0719840   -0.1232773
c    -4.9192042    2.4355342   -0.2457987  0.00    0.0152524   -0.0059062    0.0091558
h    -4.7055492    2.7440260   -1.3042010  0.00    0.0036448    0.0025887   -0.0077948
h    -5.1346399    3.3551844    0.3570324  0.00   -0.0010394    0.0078499    0.0052558
h    -5.8305918    1.7823399   -0.2420919  0.00   -0.0083377   -0.0069555   -0.0021806
n    -3.4570230    0.4440966   -0.4450437  0.00    0.0135993   -0.0270170   -0.0039847
h    -3.8901879    1.4378644    1.3858571  0.00    0.0034653   -0.0033769   -0.0109298
h    -3.2819956   -0.3346573    0.2201209  0.00   -0.0074930    0.0112066   -0.0071818
h    -4.3001272    0.1659369   -0.9863323  0.00    0.0068765    0.0089711    0.0083820
o    -1.8965070    2.9517103   -0.8423703  0.00   -0.0539218   -0.0426043    0.1000866
o    -1.9938264    3.0270621    1.5022086  0.00    0.0057109   -0.0566454   -0.0049886
h    -2.4725730    3.9237794    1.6715659  0.00   -0.0279860    0.0260382   -0.0016319
    13
 Energy =       0.0873982040
c    -3.6919318    1.6647908    0.3128411  0.00   -0.0270327    0.0158425    0.0376944
c    -2.4549291    2.5614459    0.2844539  0.00    0.0748953    0.0660151   -0.1142869
c    -4.9322176    2.4424448   -0.1555968  0.00    0.0113392   -0.0045304    0.0086243
h    -4.7695060    2.8038800   -1.2079837  0.00    0.0035398    0.0031711   -0.0097277
h    -5.1196349    3.3307151    0.5038719  0.00   -0.0017156    0.0090876    0.0062296
h    -5.8418143    1.7881779   -0.1409896  0.00   -0.0079726   -0.0062391   -0.0019245
n    -3.4720663    0.4689967   -0.5427077  0.00    0.0142117   -0.0257411   -0.0097439
h    -3.8251978    1.3461566    1.3700261  0.00    0.0029085   -0.0038380   -0.0065482
h    -3.2672681   -0.3558307    0.0613678  0.00   -0.0055960    0.0059220   -0.0035644
h    -4.3339105    0.2268299   -1.0747613  0.00    0.0053945    0.0074434    0.0065768
o    -1.8719128    2.9244604   -0.8488918  0.00   -0.0497304   -0.0393104    0.0919868
o    -2.0081261    3.0415906    1.4958644  0.00    0.0065779   -0.0535359   -0.0040958
h    -2.4646111    3.9558986    1.6248873  0.00   -0.0268198    0.0257131   -0.0012206
    13
 Energy =       0.0855046223
c    -3.7117352    1.6630725    0.3084201  0.00   -0.0228943    0.0131828    0.0323281
c    -2.4269426    2.4921835    0.2803353  0.00    0.0610663    0.0540778   -0.0956758
c    -4.9180332    2.5126049   -0.1332281  0.00    0.0085045   -0.0023438    0.0060642
h    -4.7526798    2.8804857   -1.1810271  0.00    0.0027743    0.0027003   -0.0080697
h    -5.0535526    3.3987773    0.5405923  0.00   -0.0017024    0.0086644    0.0058203
h    -5.8581965    1.9038505   -0.1144629  0.00   -0.0077948   -0.0058839   -0.0016762
n    -3.5679389    0.4689821   -0.5654665  0.00    0.0144438   -0.0217019   -0.0090259
h    -3.8491781    1.3392623    1.3644396  0.00    0.0023883   -0.0032452   -0.0052312
h    -3.4091615   -0.3796195    0.0233407  0.00   -0.0043022    0.0025512   -0.0020173
h    -4.4438576    0.2864061   -1.1042885  0.00    0.0018595    0.0053056    0.0036707
o    -1.8362708    2.8413793   -0.8670931  0.00   -0.0401967   -0.0321508    0.0754586
o    -1.9197214    2.9252871    1.4904417  0.00    0.0099793   -0.0466098   -0.0014723
h    -2.3058580    3.8668847    1.6403780  0.00   -0.0241255    0.0254533   -0.0001734
    13
 Energy =       0.0861342925
c    -3.7249611    1.6683816    0.2993301  0.00   -0.0229630    0.0130370    0.0324124
c    -2.3959448    2.4292732    0.2618334  0.00    0.0590368    0.0524565   -0.0964725
c    -4.8947757    2.5851797   -0.1133585  0.00    0.0075513   -0.0010069    0.0050077
h    -4.7244335    2.9619274   -1.1571391  0.00    0.0025720    0.0027598   -0.0079908
h    -4.9812402    3.4666918    0.5758708  0.00   -0.0017988    0.0095692    0.0063630
h    -5.8632165    2.0205388   -0.0937334  0.00   -0.0088189   -0.0063479   -0.0017222
n    -3.6548343    0.4790080   -0.5921743  0.00    0.0161764   -0.0227780   -0.0097639
h    -3.8627283    1.3373687    1.3531812  0.00    0.0023132   -0.0032467   -0.0049728
h    -3.5271588   -0.3857116   -0.0179485  0.00   -0.0040793    0.0012983   -0.0015942
h    -4.5490785    0.3464938   -1.1186058  0.00   -0.0001921    0.0045121    0.0022278
o    -1.8284173    2.7942503   -0.8940152  0.00   -0.0394604   -0.0313519    0.0729929
o    -1.8215787    2.7880231    1.4711917  0.00    0.0160983   -0.0499174    0.0025717
h    -2.2247587    3.7081315    1.7079491  0.00   -0.0264355    0.0310160    0.0009408
    13
 Energy =       0.0839198150
c    -3.7184705    1.6584600    0.3106235  0.00   -0.0170033    0.0094330    0.0240345
c    -2.4158820    2.4598400    0.2888035  0.00    0.0410739    0.0383590   -0.0720370
c    -4.9106869    2.5345989   -0.1261259  0.00    0.0051771   -0.0001882    0.0033428
h    -4.7461797    2.8997835   -1.1725477  0.00    0.0018412    0.0021092   -0.0059725
h    -5.0234563    3.4216283    0.5483309  0.00   -0.0012924    0.0074133    0.0049504
h    -5.8618935    1.9458294   -0.0998097  0.00   -0.0069181   -0.0048515   -0.0013082
n    -3.6046038    0.4619680   -0.5637376  0.00    0.0153398   -0.0165257   -0.0071019
h    -3.8619773    1.3401005    1.3687968  0.00    0.0017052   -0.0024020   -0.0035300
h    -3.5170974   -0.3986543    0.0262994  0.00   -0.0027349   -0.0000256    0.0001093
h    -4.4614622    0.3288939   -1.1540528  0.00   -0.0037162    0.0028716   -0.0008776
o    -1.8032928    2.7789288   -0.8751965  0.00   -0.0282535   -0.0238333    0.0509187
o    -1.8923643    2.9012949    1.4977809  0.00    0.0196423   -0.0469104    0.0045641
h    -2.2357596    3.8668847    1.6332166  0.00   -0.0248610    0.0345506    0.0029075
    13
 Energy =       0.0822582945
c    -3.7192645    1.6536139    0.3298967  0.00   -0.0103546    0.0058128    0.0142070
c    -2.4261831    2.4644526    0.3078646  0.00    0.0159422    0.0231631   -0.0376936
c    -4.9156701    2.5068735   -0.1373449  0.00    0.0029134    0.0000962    0.0018276
h    -4.7509057    2.8494886   -1.1887455  0.00    0.0011148    0.0013805   -0.0038222
h    -5.0399454    3.4045892    0.5158025  0.00   -0.0007747    0.0046774    0.0032214
h    -5.8587089    1.9113101   -0.0991305  0.00   -0.0042430   -0.0030076   -0.0008273
n    -3.5915877    0.4366943   -0.5091218  0.00    0.0153614   -0.0062515   -0.0050874
h    -3.8710073    1.3662147    1.3974230  0.00    0.0009812   -0.0014766   -0.0015697
h    -3.5888314   -0.4170863    0.1035759  0.00   -0.0012473   -0.0047468    0.0042763
h    -4.3982814    0.3282669   -1.1766044  0.00   -0.0081595    0.0019241   -0.0048739
o    -1.7280630    2.6582198   -0.8627299  0.00   -0.0106240   -0.0161656    0.0169918
o    -1.9586199    3.0146887    1.5002172  0.00    0.0218779   -0.0483136    0.0103610
h    -2.2060579    4.0222307    1.5012787  0.00   -0.0227878    0.0429075    0.0029888
    13
 Energy =       0.0813916699
c    -3.7137532    1.6491983    0.3202736  0.00   -0.0137579    0.0076417    0.0179799
c    -2.4558403    2.5174440    0.3324680  0.00    0.0160901    0.0260933   -0.0397356
c    -4.9372405    2.4624421   -0.1518189  0.00    0.0033007    0.0005989    0.0019304
h    -4.7720905    2.8212812   -1.1985855  0.00    0.0014094    0.0016480   -0.0045405
h    -5.1011844    3.3505524    0.5084838  0.00   -0.0011310    0.0060788    0.0041449
h    -5.8599042    1.8322098   -0.1305379  0.00   -0.0056562   -0.0039749   -0.0009207
n    -3.5202167    0.4536975   -0.5416659  0.00    0.0204707   -0.0058422   -0.0083335
h    -3.8720100    1.3342336    1.3793056  0.00    0.0007526   -0.0016068   -0.0012923
h    -3.4411440   -0.4084553    0.0599846  0.00   -0.0009385   -0.0098902    0.0071325
h    -4.3420319    0.2984715   -1.1844508  0.00   -0.0116156    0.0021026   -0.0068686
o    -1.7834800    2.8169730   -0.8330831  0.00   -0.0081742   -0.0169037    0.0134228
o    -2.0096011    3.0281859    1.5524949  0.00    0.0254699   -0.0558438    0.0137305
h    -2.2446295    4.0433225    1.5695131  0.00   -0.0262200    0.0498984    0.0033502
    13
 Energy =       0.0831828118
c    -3.7060034    1.6526603    0.3338740  0.00   -0.0150937    0.0087056    0.0181546
c    -2.4217499    2.4844349    0.2727010  0.00    0.0123949    0.0238745   -0.0339368
c    -4.9310327    2.4874921   -0.0965410  0.00    0.0027126    0.0004498    0.0017279
h    -4.7967245    2.8426210   -1.1491205  0.00    0.0014308    0.0015919   -0.0048667
h    -5.0571947    3.3782465    0.5689457  0.00   -0.0011993    0.0063061    0.0044740
h    -5.8630308    1.8724068   -0.0430121  0.00   -0.0060486   -0.0040267   -0.0008998
n    -3.5827887    0.4330840   -0.5100450  0.00    0.0243195   -0.0024595   -0.0107055
h    -3.8213107    1.3643520    1.4072718  0.00    0.0002848   -0.0010797    0.0003760
h    -3.5998971   -0.4323353    0.0990284  0.00   -0.0008296   -0.0162414    0.0103349
h    -4.3862749    0.3435129   -1.1917761  0.00   -0.0152438    0.0021602   -0.0094266
o    -1.7416251    2.6660896   -0.9198640  0.00   -0.0032410   -0.0147636    0.0049628
o    -1.9357248    3.0510358    1.4540886  0.00    0.0259432   -0.0536615    0.0172236
h    -2.2097689    4.0559559    1.4568307  0.00   -0.0254297    0.0491445    0.0025815
    13
 Energy =       0.0816704875
c    -3.7383410    1.6524489    0.3166615  0.00   -0.0151488    0.0068734    0.0152855
c    -2.4427296    2.4724255    0.3726726  0.00    0.0106351    0.0210337   -0.0302462
c    -4.9145055    2.5136675   -0.2010916  0.00    0.0000244    0.0015137    0.0019269
h    -4.7053626    2.8506282   -1.2500385  0.00    0.0017690    0.0023417   -0.0072407
h    -5.0586003    3.4160094    0.4446182  0.00   -0.0014882    0.0060916    0.0044738
h    -5.8662895    1.9255081   -0.1953518  0.00   -0.0072314   -0.0042065   -0.0005948
n    -3.5639942    0.4507343   -0.5442467  0.00    0.0320509    0.0094888   -0.0134232
h    -3.9497340    1.3456467    1.3747410  0.00   -0.0009034   -0.0014079    0.0052171
h    -3.4411440   -0.4165116    0.0647519  0.00    0.0014309   -0.0281342    0.0179006
h    -4.4241444    0.2786549   -1.1468937  0.00   -0.0248715    0.0008492   -0.0158300
o    -1.7165330    2.7487288   -0.7790276  0.00    0.0007864   -0.0120959   -0.0022064
o    -2.0140336    2.9702424    1.6102515  0.00    0.0277887   -0.0515004    0.0237782
h    -2.2177144    3.9913733    1.6153347  0.00   -0.0248422    0.0491529    0.0009592
    13
 Energy =       0.0805184390
c    -3.7108255    1.6432719    0.3259774  0.00   -0.0162697    0.0043548    0.0177243
c    -2.4646567    2.5456715    0.3300658  0.00    0.0092406    0.0206932   -0.0258148
c    -4.9610880    2.4325779   -0.1458006  0.00   -0.0017500    0.0047968    0.0020641
h    -4.8078576    2.7908382   -1.1994693  0.00    0.0021241    0.0034333   -0.0092173
h    -5.1383845    3.3226092    0.5106340  0.00   -0.0020625    0.0071841    0.0048483
h    -5.8763784    1.7848102   -0.1118927  0.00   -0.0099927   -0.0059034   -0.0002224
n    -3.4942192    0.4477135   -0.5375726  0.00    0.0359888    0.0096837   -0.0137471
h    -3.8611133    1.3275794    1.3940725  0.00   -0.0012961   -0.0028663    0.0070795
h    -3.4016846   -0.4262209    0.0699368  0.00    0.0015936   -0.0302092    0.0196122
h    -4.3248633    0.2816010   -1.1858150  0.00   -0.0278249   -0.0002894   -0.0185625
o    -1.8276293    2.9074819   -0.8570691  0.00    0.0066507   -0.0088354   -0.0102078
o    -2.0116608    3.0550626    1.5551462  0.00    0.0296773   -0.0562550    0.0256041
h    -2.1727652    4.0865601    1.5341680  0.00   -0.0260793    0.0542130    0.0008394
    13
 Energy =       0.0769291825
c    -3.6941782    1.6359268    0.3306841  0.00   -0.0145176    0.0022682    0.0172257
c    -2.5013839    2.6074783    0.3180481  0.00    0.0058342    0.0151911   -0.0155156
c    -4.9935506    2.3589007   -0.1178779  0.00   -0.0025251    0.0061432    0.0016863
h    -4.8767516    2.7278076   -1.1718675  0.00    0.0019733    0.0034319   -0.0085940
h    -5.2037156    3.2384496    0.5423020  0.00   -0.0020355    0.0068383    0.0043581
h    -5.8740645    1.6653989   -0.0694703  0.00   -0.0100741   -0.0060520   -0.0000062
n    -3.4280788    0.4537311   -0.5365146  0.00    0.0325501    0.0070310   -0.0119400
h    -3.8101259    1.3123161    1.4003941  0.00   -0.0013075   -0.0031217    0.0065778
h    -3.3422027   -0.4216221    0.0649559  0.00    0.0013749   -0.0261658    0.0171249
h    -4.2317516    0.2789711   -1.2128205  0.00   -0.0249286   -0.0009986   -0.0169931
o    -1.9472036    3.0662351   -0.8829786  0.00    0.0105072   -0.0029260   -0.0165962
o    -2.0423758    3.1177535    1.5384030  0.00    0.0262267   -0.0571252    0.0229702
h    -2.1077437    4.1582101    1.4791238  0.00   -0.0230780    0.0554855   -0.0002979
    13
 Energy =       0.0717936336
c    -3.6772453    1.6327579    0.3350117  0.00   -0.0100937   -0.0005641    0.0143861
c    -2.5546215    2.6810346    0.3100919  0.00    0.0036198    0.0083389   -0.0048886
c    -5.0285379    2.2700059   -0.0882512  0.00   -0.0031918    0.0070509    0.0010135
h    -4.9556536    2.6485555   -1.1407182  0.00    0.0015218    0.0030234   -0.0067246
h    -5.2807226    3.1334845    0.5761723  0.00   -0.0017848    0.0056955    0.0032766
h    -5.8611921    1.5225473   -0.0246976  0.00   -0.0090276   -0.0056468    0.0002731
n    -3.3502697    0.4718939   -0.5361177  0.00    0.0247575    0.0029034   -0.0081871
h    -3.7547035    1.3016542    1.4045812  0.00   -0.0011452   -0.0029970    0.0050422
h    -3.2735517   -0.4052574    0.0537267  0.00    0.0009385   -0.0179304    0.0120098
h    -4.1134478    0.2893546   -1.2498217  0.00   -0.0186910   -0.0019465   -0.0133066
o    -2.0893145    3.2249882   -0.8959595  0.00    0.0111517    0.0031463   -0.0181700
o    -2.0920458    3.1970170    1.5228167  0.00    0.0176123   -0.0551011    0.0177657
h    -2.0218204    4.2315204    1.4155466  0.00   -0.0156675    0.0540277   -0.0024899
    13
 Energy =       0.0673939962
c    -3.6533167    1.6354887    0.3437065  0.00   -0.0054869   -0.0036814    0.0109404
c    -2.6084137    2.7573623    0.2856229  0.00    0.0035874    0.0052594   -0.0004765
c    -5.0604425    2.1721678   -0.0354465  0.00   -0.0044058    0.0081611    0.0008846
h    -5.0481229    2.5648128   -1.0841186  0.00    0.0011228    0.0030977   -0.0058043
h    -5.3561085    3.0095073    0.6426748  0.00   -0.0018997    0.0048521    0.0024194
h    -5.8319108    1.3637941    0.0458280  0.00   -0.0084413   -0.0059221    0.0007294
n    -3.2743389    0.4959999   -0.5295406  0.00    0.0221589    0.0046946   -0.0030834
h    -3.6716438    1.3048009    1.4157056  0.00   -0.0008595   -0.0032770    0.0045295
h    -3.2664770   -0.3957648    0.0388308  0.00    0.0010124   -0.0142118    0.0107535
h    -3.9686512    0.3501577   -1.3187702  0.00   -0.0174325   -0.0039297   -0.0153987
o    -2.2298822    3.3397024   -0.9318457  0.00    0.0093559    0.0052194   -0.0155175
o    -2.1307994    3.2958535    1.4801952  0.00    0.0102282   -0.0446166    0.0128230
h    -1.9530185    4.3056739    1.3295394  0.00   -0.0089399    0.0443542   -0.0027996
    13
 Energy =       0.0638866719
c    -3.6196548    1.6404703    0.3606416  0.00   -0.0024329   -0.0068545    0.0070361
c    -2.6525089    2.8243810    0.2317975  0.00    0.0038460    0.0032736    0.0011055
c    -5.0813080    2.0712929    0.0541129  0.00   -0.0068271    0.0087463    0.0018903
h    -5.1514151    2.4755622   -0.9887052  0.00    0.0005580    0.0040169   -0.0067067
h    -5.4061843    2.8775515    0.7549702  0.00   -0.0022811    0.0042117    0.0018860
h    -5.7843066    1.2050410    0.1624051  0.00   -0.0083623   -0.0069056    0.0012741
n    -3.2176908    0.5118901   -0.5100760  0.00    0.0317718    0.0199521    0.0045947
h    -3.5520422    1.3264220    1.4374075  0.00   -0.0001549   -0.0037807    0.0064936
h    -3.3649111   -0.4035812    0.0160843  0.00   -0.0017487   -0.0264262    0.0190654
h    -3.8111244    0.4663262   -1.4000631  0.00   -0.0243345   -0.0041527   -0.0303582
o    -2.3698718    3.4034875   -1.0130906  0.00    0.0080572    0.0066079   -0.0153019
o    -2.1425956    3.4099564    1.3904988  0.00    0.0066136   -0.0337683    0.0112053
h    -1.8995127    4.3907567    1.1863986  0.00   -0.0047051    0.0350795   -0.0021841
    13
 Energy =       0.0593550198
c    -3.5965021    1.6527852    0.3760654  0.00    0.0005815   -0.0064882    0.0031294
c    -2.7154958    2.8891072    0.1844948  0.00    0.0028233    0.0012361    0.0016580
c    -5.0933011    1.9742614    0.1320404  0.00   -0.0056133    0.0061275    0.0016248
h    -5.2406855    2.3674394   -0.9050374  0.00   -0.0001714    0.0032620   -0.0050877
h    -5.4436319    2.7551470    0.8460292  0.00   -0.0015357    0.0023879    0.0008427
h    -5.7237304    1.0609813    0.2704995  0.00   -0.0058745   -0.0055899    0.0010663
n    -3.1682797    0.5389097   -0.4921667  0.00    0.0184792    0.0134624    0.0036362
h    -3.4556549    1.3607559    1.4502413  0.00    0.0003856   -0.0030952    0.0050035
h    -3.3981727   -0.3777356   -0.0154059  0.00   -0.0012042   -0.0158215    0.0120956
h    -3.6821761    0.5527927   -1.4213335  0.00   -0.0143670   -0.0029017   -0.0190412
o    -2.5286249    3.4565548   -1.0807930  0.00    0.0048014    0.0055045   -0.0111542
o    -2.1736408    3.5193646    1.3033515  0.00    0.0005255   -0.0237380    0.0089749
h    -1.8332304    4.4491930    1.0343959  0.00    0.0011695    0.0256542   -0.0027483
    13
 Energy =       0.0564616957
c    -3.5702459    1.6632616    0.3951369  0.00    0.0013264   -0.0052606    0.0008546
c    -2.7753961    2.9415804    0.1355981  0.00    0.0018633   -0.0000950    0.0010499
c    -5.0912774    1.8825728    0.2205383  0.00   -0.0041908    0.0033837    0.0018721
h    -5.3175219    2.2474723   -0.8115385  0.00   -0.0009455    0.0026057   -0.0042191
h    -5.4554660    2.6473101    0.9426907  0.00   -0.0008085    0.0009794    0.0002134
h    -5.6511482    0.9337012    0.4004938  0.00   -0.0037362   -0.0045585    0.0007731
n    -3.1261693    0.5617821   -0.4736957  0.00    0.0176669    0.0156194    0.0078346
h    -3.3553439    1.3970395    1.4622480  0.00    0.0009083   -0.0024075    0.0039739
h    -3.4783412   -0.3541849   -0.0739608  0.00   -0.0052540   -0.0173806    0.0116705
h    -3.5341522    0.6687720   -1.4484525  0.00   -0.0111370    0.0005377   -0.0204474
o    -2.6813657    3.4815311   -1.1499516  0.00    0.0024511    0.0042262   -0.0084465
o    -2.2039885    3.6239151    1.2076320  0.00   -0.0004904   -0.0112068    0.0066035
h    -1.8127101    4.5048032    0.8756428  0.00    0.0023465    0.0135569   -0.0017325
    13
 Energy =       0.0549664569
c    -3.5521723    1.6749766    0.4123137  0.00    0.0005302   -0.0013072    0.0005257
c    -2.8376037    2.9812167    0.0914019  0.00    0.0002219   -0.0011420    0.0006205
c    -5.0824121    1.8114936    0.2998939  0.00    0.0000841    0.0006229    0.0011875
h    -5.3748695    2.1125911   -0.7340188  0.00   -0.0009924    0.0009727   -0.0025702
h    -5.4495060    2.5878105    1.0067265  0.00    0.0003800    0.0000694    0.0001377
h    -5.5825800    0.8482100    0.5475969  0.00   -0.0013812   -0.0022777    0.0001490
n    -3.0947156    0.5809804   -0.4564984  0.00    0.0029104    0.0033138    0.0013264
h    -3.2778055    1.4405056    1.4696109  0.00    0.0003514   -0.0007580    0.0010008
h    -3.5187401   -0.3233951   -0.1345769  0.00   -0.0010933   -0.0029822    0.0027366
h    -3.4132121    0.7503390   -1.4439343  0.00   -0.0022380    0.0006934   -0.0034795
o    -2.8401188    3.4937206   -1.2057846  0.00    0.0002821    0.0015553   -0.0040223
o    -2.2259296    3.7041320    1.1113027  0.00   -0.0004448   -0.0009485    0.0028381
h    -1.8034609    4.5369755    0.7183481  0.00    0.0013895    0.0021881   -0.0004504
    13
 Energy =       0.0548269702
c    -3.5505166    1.6764365    0.4193415  0.00   -0.0001773    0.0001239    0.0002842
c    -2.8556268    2.9896089    0.0909875  0.00   -0.0001221   -0.0001081    0.0001065
c    -5.0807563    1.7934038    0.3090947  0.00    0.0005075   -0.0002537   -0.0000889
h    -5.3786285    2.0521085   -0.7320427  0.00   -0.0000641    0.0001225   -0.0002726
h    -5.4561673    2.5903334    0.9890142  0.00   -0.0001415    0.0004331    0.0003455
h    -5.5673043    0.8361265    0.5941995  0.00   -0.0000131   -0.0002382    0.0000173
n    -3.0793272    0.5830453   -0.4444938  0.00    0.0018505    0.0011529    0.0016166
h    -3.2723841    1.4519976    1.4763186  0.00   -0.0000380    0.0000788   -0.0001807
h    -3.5444719   -0.3150872   -0.1682811  0.00   -0.0010270   -0.0017986    0.0007652
h    -3.3384161    0.7799044   -1.4433693  0.00   -0.0007104    0.0006088   -0.0025100
o    -2.9014192    3.5116806   -1.1992951  0.00   -0.0000251   -0.0000004   -0.0004262
o    -2.2145410    3.7058958    1.0954665  0.00    0.0000554   -0.0000016    0.0005071
h    -1.8135671    4.5441023    0.6954410  0.00   -0.0000948   -0.0001192   -0.0001639
    13
 Energy =       0.0548215480
c    -3.5516774    1.6776624    0.4202413  0.00    0.0000009    0.0000030    0.0000093
c    -2.8580765    2.9915005    0.0907358  0.00   -0.0000341   -0.0000629   -0.0000104
c    -5.0822520    1.7919343    0.3083121  0.00    0.0000038   -0.0000019    0.0000008
h    -5.3796327    2.0456642   -0.7338972  0.00   -0.0000040    0.0000043   -0.0000109
h    -5.4594522    2.5906578    0.9842371  0.00   -0.0000018    0.0000068    0.0000079
h    -5.5677226    0.8354327    0.5970652  0.00   -0.0000015   -0.0000073    0.0000005
n    -3.0779775    0.5838586   -0.4415522  0.00    0.0000109   -0.0000069   -0.0000018
h    -3.2742971    1.4549059    1.4779727  0.00    0.0000007   -0.0000010    0.0000019
h    -3.5425633   -0.3134963   -0.1668105  0.00   -0.0000002   -0.0000002    0.0000024
h    -3.3338911    0.7794128   -1.4398383  0.00   -0.0000084    0.0000027   -0.0000055
o    -2.9162213    3.5193740   -1.1965075  0.00   -0.0000201    0.0000178   -0.0001267
o    -2.2040485    3.7016456    1.0911834  0.00    0.0000511    0.0000426    0.0001404
h    -1.8053139    4.5410042    0.6912395  0.00    0.0000027    0.0000030   -0.0000079
    13
 Energy =       0.0548215283
c    -3.5517850    1.6777447    0.4203236  0.00    0.0000000    0.0000000    0.0000001
c    -2.8582622    2.9916290    0.0908337  0.00   -0.0000002   -0.0000004   -0.0000001
c    -5.0823562    1.7918396    0.3081828  0.00    0.0000000   -0.0000000    0.0000000
h    -5.3796250    2.0452793   -0.7341169  0.00   -0.0000000    0.0000000   -0.0000000
h    -5.4597288    2.5906873    0.9838475  0.00   -0.0000000    0.0000000    0.0000001
h    -5.5677693    0.8353691    0.5971097  0.00    0.0000000   -0.0000000    0.0000000
n    -3.0778535    0.5839442   -0.4413393  0.00    0.0000001   -0.0000000    0.0000000
h    -3.2745277    1.4550751    1.4781032  0.00    0.0000000   -0.0000000    0.0000000
h    -3.5425256   -0.3134144   -0.1667569  0.00   -0.0000000   -0.0000000   -0.0000000
h    -3.3334386    0.7795144   -1.4397015  0.00   -0.0000000    0.0000000   -0.0000001
o    -2.9173142    3.5200382   -1.1960738  0.00   -0.0000001    0.0000001   -0.0000008
o    -2.2032400    3.7011912    1.0909348  0.00    0.0000002    0.0000003    0.0000009
h    -1.8047001    4.5406588    0.6910347  0.00    0.0000000    0.0000000   -0.0000001
    13
 Energy =       0.0548215283
c    -3.5517878    1.6777472    0.4203254  0.00    0.0000000    0.0000000    0.0000000
c    -2.8582672    2.9916327    0.0908359  0.00   -0.0000000   -0.0000000   -0.0000000
c    -5.0823590    1.7918374    0.3081785  0.00   -0.0000000   -0.0000000    0.0000000
h    -5.3796245    2.0452739   -0.7341229  0.00   -0.0000000    0.0000000   -0.0000000
h    -5.4597367    2.5906856    0.9838397  0.00   -0.0000000    0.0000000    0.0000000
h    -5.5677705    0.8353661    0.5971055  0.00   -0.0000000   -0.0000000    0.0000000
n    -3.0778499    0.5839468   -0.4413340  0.00    0.0000000   -0.0000000   -0.0000000
h    -3.2745340    1.4550801    1.4781065  0.00    0.0000000   -0.0000000    0.0000000
h    -3.5425197   -0.3134128   -0.1667512  0.00   -0.0000000   -0.0000000   -0.0000000
h    -3.3334326    0.7795143   -1.4396972  0.00   -0.0000000    0.0000000   -0.0000000
o    -2.9173429    3.5200556   -1.1960645  0.00   -0.0000000    0.0000000   -0.0000000
o    -2.2032186    3.7011799    1.0909296  0.00    0.0000000    0.0000000    0.0000000
h    -1.8046828    4.5406497    0.6910302  0.00    0.0000000    0.0000000   -0.0000000
