    27
 Energy =       0.3402829317
c    -1.4235396    2.6054793   -0.0667700  0.00   -0.0462723    0.0382651    0.0026498
c    -1.3072796    1.2134697   -0.1072300  0.00   -0.0853701   -0.0325714    0.0019262
c    -0.0178900    0.6711998   -0.1697000  0.00   -0.0889505   -0.1876551   -0.0008827
c    -0.2940599    3.4190890   -0.0891300  0.00   -0.0232174    0.0690765    0.0028150
c     0.9872197    2.8590292   -0.1560400  0.00    0.0105496    0.0641308    0.0008053
c     1.1340797    1.4562096   -0.1970299  0.00    0.0529280    0.0520750    0.0022528
n     0.3879399   -0.6395298   -0.2140799  0.00    0.1482020    0.1066465   -0.0047996
c     2.2666594    0.5727398   -0.2659299  0.00    0.1481344   -0.0623274   -0.0115590
c     1.7555995   -0.7123598   -0.2706899  0.00   -0.0785430   -0.1028983    0.0017216
h    -0.2400399   -1.4313496   -0.2047299  0.00    0.0365635    0.0482756   -0.0000815
c     3.7030089    1.0223397   -0.3320099  0.00    0.0038535   -0.0139067   -0.0138325
c     4.7465686   -0.0024900    0.1378100  0.00    0.1421202    0.1276951   -0.0635793
h     3.7978489    1.9290294    0.2803699  0.00   -0.0054589   -0.0082412   -0.0113377
h     3.9233889    1.3348996   -1.3618196  0.00   -0.0021666   -0.0035305    0.0152674
c     4.8964886   -1.0916697   -0.9404947  0.00   -0.2540793   -0.2648111   -0.1365881
n     4.3764788   -0.6892298    1.4261196  0.00    0.0004476   -0.0559829    0.0724130
h     5.7313184    0.4619039    0.2668599  0.00    0.0815686   -0.1130040   -0.1251003
h     5.1527685   -0.5416468    2.0793394  0.00   -0.0262302    0.0057740   -0.0289722
h     3.5998490   -0.1655630    1.8450295  0.00    0.0248081   -0.0061160   -0.0301255
h    -2.4108593    3.0588691   -0.0157800  0.00   -0.0008756    0.0002971    0.0001046
h    -2.1896094    0.5822398   -0.0890100  0.00   -0.0036511    0.0038007    0.0001546
h    -0.4052699    4.5000487   -0.0535400  0.00    0.0008887    0.0003264    0.0003708
h     1.8590495    3.5066790   -0.1715100  0.00   -0.0005628    0.0026867    0.0008445
h     2.2327294   -1.6813195   -0.3062999  0.00    0.0280552   -0.0159488   -0.0367587
o     4.0245989   -1.8702095   -1.2891796  0.00    0.1281716    0.2030929    0.1338091
o     6.1470682   -1.0846497   -1.4758196  0.00   -0.0065441    0.0598751    0.0631588
h     6.6314281   -0.3704729   -0.9859697  0.00   -0.1843691    0.0849761    0.1653238
    27
 Energy =       0.3176315649
c    -1.3625453    2.7053832   -0.1859869  0.00   -0.0415579    0.0342805    0.0024235
c    -1.2722145    1.3153494   -0.2064830  0.00   -0.0764089   -0.0296541    0.0018770
c     0.0003500    0.7497292   -0.2660372  0.00   -0.0797308   -0.1623449   -0.0014594
c    -0.2187302    3.4941607   -0.2152205  0.00   -0.0209362    0.0619400    0.0026154
c     1.0487085    2.9084696   -0.2691908  0.00    0.0094410    0.0575619    0.0007580
c     1.1628406    1.5079354   -0.2958599  0.00    0.0457824    0.0475357    0.0018445
n     0.3672411   -0.5772539   -0.2260352  0.00    0.1332700    0.0909302   -0.0039628
c     2.2723269    0.6051555   -0.3113827  0.00    0.1271879   -0.0547133   -0.0115029
c     1.7407039   -0.6659234   -0.2640656  0.00   -0.0727006   -0.0855451    0.0013755
h    -0.2818178   -1.3569049   -0.1849576  0.00    0.0318047    0.0420045    0.0000938
c     3.7318537    0.9970291   -0.2735440  0.00    0.0049471   -0.0120596   -0.0118973
c     4.6980774   -0.1023651    0.2163558  0.00    0.1275482    0.1124804   -0.0584997
h     3.8279883    1.8686720    0.3929827  0.00   -0.0035656   -0.0059530   -0.0087299
h     4.0351694    1.3450337   -1.2762286  0.00   -0.0010731   -0.0012837    0.0098312
c     4.8554023   -1.1874876   -0.8672543  0.00   -0.2270071   -0.2363080   -0.1217087
n     4.2467051   -0.7753641    1.4856413  0.00   -0.0024217   -0.0531176    0.0650095
h     5.7033470    0.3085002    0.3960255  0.00    0.0758240   -0.1003121   -0.1120170
h     4.9940154   -0.6665200    2.1853801  0.00   -0.0209106    0.0052825   -0.0231695
h     3.4610594   -0.2330844    1.8713083  0.00    0.0208090   -0.0053015   -0.0261489
h    -2.3409743    3.1783801   -0.1384036  0.00   -0.0010172    0.0003592    0.0001067
h    -2.1651357    0.6994614   -0.1656423  0.00   -0.0035801    0.0030458    0.0001940
h    -0.3082643    4.5777178   -0.1903973  0.00    0.0007424    0.0006047    0.0003440
h     1.9359090    3.5355532   -0.2796525  0.00   -0.0002059    0.0026128    0.0007165
h     2.2278172   -1.6312760   -0.1611403  0.00    0.0265319   -0.0211700   -0.0294713
o     3.9741278   -1.9849702   -1.2278420  0.00    0.1177942    0.1794553    0.1167263
o     6.1127128   -1.1923447   -1.3949085  0.00   -0.0068019    0.0521532    0.0552452
h     6.6188695   -0.5103005   -0.8746950  0.00   -0.1637652    0.0775160    0.1494063
    27
 Energy =       0.2879533938
c    -1.2976534    2.7880034   -0.2113542  0.00   -0.0337735    0.0272462    0.0019982
c    -1.2440554    1.4030347   -0.2219660  0.00   -0.0614154   -0.0242035    0.0015088
c     0.0031288    0.8053700   -0.2748356  0.00   -0.0628451   -0.1289029   -0.0013695
c    -0.1350146    3.5406530   -0.2458090  0.00   -0.0170715    0.0498751    0.0021844
c     1.1100532    2.9198288   -0.2946924  0.00    0.0077146    0.0465054    0.0006755
c     1.1772956    1.5249423   -0.3091223  0.00    0.0366166    0.0380067    0.0015102
n     0.3109726   -0.5408490   -0.2262831  0.00    0.1065319    0.0715136   -0.0031925
c     2.2531526    0.6042628   -0.3142893  0.00    0.1016053   -0.0437183   -0.0089842
c     1.6939637   -0.6490162   -0.2564206  0.00   -0.0577401   -0.0687079    0.0010322
h    -0.3680267   -1.3036703   -0.1818202  0.00    0.0245558    0.0329275    0.0001226
c     3.7302273    0.9476600   -0.2969536  0.00    0.0036821   -0.0098402   -0.0094149
c     4.6693185   -0.1639393    0.2408059  0.00    0.1030259    0.0905605   -0.0479685
h     3.8620558    1.8491347    0.3287074  0.00   -0.0028564   -0.0030420   -0.0061173
h     4.0401960    1.2345812   -1.3206271  0.00   -0.0000101   -0.0005407    0.0060592
c     4.8442476   -1.2896677   -0.7992464  0.00   -0.1798762   -0.1888478   -0.0963045
n     4.1957715   -0.7701753    1.5302588  0.00   -0.0023655   -0.0448826    0.0524132
h     5.6836434    0.2407108    0.4096327  0.00    0.0628027   -0.0816896   -0.0919732
h     4.9280983   -0.6233794    2.2457049  0.00   -0.0160075    0.0044847   -0.0168274
h     3.3934310   -0.2201205    1.8805460  0.00    0.0154701   -0.0033462   -0.0204782
h    -2.2630069    3.2882076   -0.1684218  0.00   -0.0012697    0.0004730    0.0001085
h    -2.1523295    0.8096253   -0.1783893  0.00   -0.0031572    0.0021321    0.0001697
h    -0.1935588    4.6269526   -0.2300393  0.00    0.0005172    0.0010396    0.0002895
h     2.0166489    3.5189720   -0.3104893  0.00    0.0003232    0.0024603    0.0005672
h     2.1718979   -1.6114226   -0.1303688  0.00    0.0203337   -0.0164403   -0.0231051
o     3.9240336   -2.0826655   -1.1785443  0.00    0.0931525    0.1431387    0.0923929
o     6.1083360   -1.3510978   -1.3177230  0.00   -0.0096289    0.0288866    0.0365682
h     6.6027161   -0.5832000   -0.8954941  0.00   -0.1283144    0.0749120    0.1281351
    27
 Energy =       0.2447579179
c    -1.2366082    2.8328937   -0.2315320  0.00   -0.0186194    0.0146990    0.0012865
c    -1.2203308    1.4572579   -0.2256027  0.00   -0.0336921   -0.0134871    0.0009905
c    -0.0058934    0.8281245   -0.2586369  0.00   -0.0325515   -0.0701486   -0.0003627
c    -0.0584404    3.5456771   -0.2663133  0.00   -0.0099208    0.0278257    0.0014188
c     1.1555314    2.8898403   -0.2945236  0.00    0.0049177    0.0260421    0.0003836
c     1.1667954    1.5103811   -0.2878136  0.00    0.0197181    0.0206121    0.0007357
n     0.2448993   -0.5462051   -0.2093644  0.00    0.0571542    0.0379066   -0.0030439
c     2.2067510    0.5988582   -0.2638087  0.00    0.0562940   -0.0236731   -0.0054714
c     1.6511247   -0.6435977   -0.2016734  0.00   -0.0308154   -0.0373612    0.0010187
h    -0.4536338   -1.3068906   -0.1782766  0.00    0.0127771    0.0181684    0.0002256
c     3.6844818    0.9410839   -0.2311277  0.00    0.0000886   -0.0058575   -0.0060373
c     4.6405908   -0.1946380    0.2256933  0.00    0.0620239    0.0478298   -0.0283797
h     3.8221613    1.8008855    0.4580850  0.00   -0.0011653    0.0003027   -0.0020389
h     3.9848443    1.2949052   -1.2419653  0.00    0.0004555    0.0002483    0.0010229
c     4.8402981   -1.2605796   -0.8602186  0.00   -0.0987427   -0.1015027   -0.0529866
n     4.2247527   -0.8277923    1.5135015  0.00    0.0041484   -0.0324839    0.0256627
h     5.6443057    0.2491687    0.3661881  0.00    0.0396872   -0.0503447   -0.0600616
h     4.9501181   -0.6213485    2.2327560  0.00   -0.0064930    0.0036572   -0.0075300
h     3.3550834   -0.3788736    1.8832215  0.00   -0.0023027    0.0026802   -0.0077864
h    -2.1871685    3.3620427   -0.2054654  0.00   -0.0010750    0.0009354    0.0000676
h    -2.1435202    0.8874342   -0.1872514  0.00   -0.0020103    0.0012277    0.0002462
h    -0.0833002    4.6339538   -0.2690663  0.00    0.0004889    0.0015575   -0.0000149
h     2.0833335    3.4563160   -0.3135613  0.00    0.0011048    0.0017061    0.0000409
h     2.1661777   -1.5876065   -0.0533900  0.00    0.0153751   -0.0095222   -0.0126863
o     3.8938641   -2.1118007   -1.2391468  0.00    0.0465214    0.0766989    0.0528669
o     6.0919491   -1.2966580   -1.4371646  0.00   -0.0082881    0.0076047    0.0121623
h     6.6473763   -0.6000967   -0.9507771  0.00   -0.0750786    0.0546785    0.0882707
    27
 Energy =       0.2298404374
c    -1.2095011    2.8484132   -0.2604795  0.00   -0.0109548    0.0085162    0.0008756
c    -1.2150184    1.4782080   -0.2394460  0.00   -0.0196479   -0.0079003    0.0006568
c    -0.0184985    0.8312903   -0.2500474  0.00   -0.0183218   -0.0406136   -0.0003348
c    -0.0221651    3.5377793   -0.2894723  0.00   -0.0060178    0.0163737    0.0009811
c     1.1740305    2.8622979   -0.2960815  0.00    0.0032105    0.0152016    0.0002731
c     1.1552477    1.4916597   -0.2729179  0.00    0.0114998    0.0117575    0.0003085
n     0.2017087   -0.5559845   -0.1914504  0.00    0.0330271    0.0215297   -0.0019151
c     2.1768139    0.5841957   -0.2296219  0.00    0.0328515   -0.0137280   -0.0033431
c     1.6186971   -0.6518854   -0.1706667  0.00   -0.0172285   -0.0217851    0.0007615
h    -0.5063090   -1.3153716   -0.1593855  0.00    0.0072316    0.0105781    0.0000802
c     3.6566937    0.9319664   -0.1941556  0.00   -0.0005226   -0.0029851   -0.0037584
c     4.6409674   -0.1954419    0.2254552  0.00    0.0378569    0.0288544   -0.0181461
h     3.7921586    1.7748430    0.5176868  0.00   -0.0006730    0.0004687   -0.0009614
h     3.9462882    1.3149969   -1.1983394  0.00    0.0003986    0.0002961    0.0001904
c     4.8561531   -1.2487451   -0.8673465  0.00   -0.0577164   -0.0580844   -0.0307124
n     4.2853162   -0.8227666    1.5288475  0.00    0.0063656   -0.0373110   -0.0017023
h     5.6376378    0.2834425    0.3315993  0.00    0.0274998   -0.0316371   -0.0402814
h     4.9554916   -0.4625954    2.2634560  0.00    0.0113291    0.0101455    0.0093346
h     3.3302702   -0.5081267    1.8583578  0.00   -0.0217174    0.0089485   -0.0004617
h    -2.1512525    3.3933334   -0.2524806  0.00   -0.0008740    0.0007849    0.0000344
h    -2.1466500    0.9222204   -0.2087026  0.00   -0.0013079    0.0006955    0.0001149
h    -0.0279240    4.6260052   -0.3053089  0.00    0.0002820    0.0012340    0.0000039
h     2.1121454    3.4109755   -0.3123160  0.00    0.0009215    0.0010424    0.0000317
h     2.1412100   -1.5928087   -0.0294064  0.00    0.0102078   -0.0057409   -0.0078314
o     3.8976392   -2.1293924   -1.2395332  0.00    0.0255141    0.0442276    0.0318462
o     6.0977359   -1.2861838   -1.4778116  0.00   -0.0048925    0.0033375    0.0060844
h     6.6866564   -0.6095897   -1.0076670  0.00   -0.0483215    0.0357934    0.0578710
    27
 Energy =       0.2276848838
c    -1.2878275    2.7258455   -0.2336095  0.00   -0.0113333    0.0084204    0.0008077
c    -1.2484554    1.3562716   -0.1710990  0.00   -0.0190956   -0.0085590    0.0006349
c    -0.0317092    0.7478443   -0.1894074  0.00   -0.0174879   -0.0372085   -0.0005460
c    -0.1239280    3.4527539   -0.3100036  0.00   -0.0048885    0.0166174    0.0008269
c     1.0928880    2.8161773   -0.3254276  0.00    0.0039314    0.0153036    0.0001733
c     1.1183073    1.4466699   -0.2614719  0.00    0.0111510    0.0113431    0.0001850
n     0.2380374   -0.6318849   -0.0831761  0.00    0.0292829    0.0185650   -0.0014570
c     2.1710244    0.5782022   -0.2196349  0.00    0.0306755   -0.0117924   -0.0034895
c     1.6606008   -0.6759326   -0.1094672  0.00   -0.0154591   -0.0212008    0.0004625
h    -0.4403850   -1.4174056   -0.0006324  0.00    0.0045627    0.0072169    0.0003728
c     3.6383437    0.9840232   -0.2382380  0.00    0.0003791   -0.0012959   -0.0037792
c     4.6765549   -0.0958494    0.1785989  0.00    0.0353285    0.0258776   -0.0170644
h     3.7635857    1.8483376    0.4503483  0.00   -0.0001617    0.0008754   -0.0005987
h     3.8827919    1.3550905   -1.2600776  0.00    0.0004402    0.0009475   -0.0009022
c     4.9081319   -1.1529636   -0.9056691  0.00   -0.0528032   -0.0531588   -0.0281453
n     4.3681065   -0.7205501    1.4957042  0.00    0.0064628   -0.0369735   -0.0031653
h     5.6548659    0.4271285    0.2568638  0.00    0.0267584   -0.0285467   -0.0374518
h     5.0813799   -0.3842544    2.2015762  0.00    0.0120629    0.0101097    0.0106570
h     3.4376072   -0.3832446    1.8723020  0.00   -0.0222339    0.0087736    0.0011048
h    -2.2469806    3.2404343   -0.2195008  0.00   -0.0014390    0.0010013    0.0000420
h    -2.1610842    0.7708777   -0.0996788  0.00   -0.0023995   -0.0003069    0.0002053
h    -0.1652534    4.5402449   -0.3575731  0.00    0.0004258    0.0023523   -0.0000544
h     2.0126986    3.3948431   -0.3809487  0.00    0.0020023    0.0018866   -0.0000570
h     2.2263472   -1.5938212    0.0357069  0.00    0.0097971   -0.0064453   -0.0068344
o     3.9675313   -2.0690670   -1.2508133  0.00    0.0227824    0.0397969    0.0289414
o     6.1445444   -1.1686086   -1.5298021  0.00   -0.0043007    0.0030695    0.0054471
h     6.7278194   -0.4784270   -1.0721037  0.00   -0.0444404    0.0333311    0.0536844
    27
 Energy =       0.2220456479
c    -1.3179543    2.6689969   -0.2334834  0.00   -0.0083666    0.0064280    0.0005667
c    -1.2618111    1.3048156   -0.1185553  0.00   -0.0134937   -0.0071400    0.0003841
c    -0.0416800    0.7103222   -0.1316811  0.00   -0.0126822   -0.0260806   -0.0009086
c    -0.1649086    3.4042502   -0.3564531  0.00   -0.0027113    0.0124739    0.0006341
c     1.0555391    2.7810408   -0.3684424  0.00    0.0030379    0.0118770    0.0001693
c     1.0948006    1.4181156   -0.2517602  0.00    0.0080341    0.0080457    0.0001560
n     0.2441357   -0.6652160    0.0266161  0.00    0.0203300    0.0119912   -0.0004709
c     2.1563528    0.5713656   -0.2001255  0.00    0.0210055   -0.0077190   -0.0027269
c     1.6706017   -0.6847014   -0.0339596  0.00   -0.0111847   -0.0158321    0.0000058
h    -0.4204699   -1.4594880    0.1581208  0.00    0.0018799    0.0033233    0.0006325
c     3.6165843    1.0018546   -0.2792416  0.00    0.0007889   -0.0001523   -0.0030268
c     4.6890385   -0.0410051    0.1457319  0.00    0.0253900    0.0180249   -0.0122156
h     3.7473640    1.8928362    0.3749524  0.00    0.0003841    0.0013227    0.0001357
h     3.8228169    1.3405707   -1.3216294  0.00    0.0003807    0.0012713   -0.0019249
c     4.9312566   -1.1186874   -0.9165503  0.00   -0.0363157   -0.0356360   -0.0199085
n     4.4155882   -0.6365831    1.4812614  0.00    0.0050547   -0.0296976   -0.0059494
h     5.6533692    0.5151458    0.1941095  0.00    0.0206946   -0.0200927   -0.0277753
h     5.1816234   -0.3440224    2.1495718  0.00    0.0117007    0.0087194    0.0106339
h     3.5250597   -0.2522390    1.9041900  0.00   -0.0195443    0.0071564    0.0030429
h    -2.2822791    3.1731255   -0.2235915  0.00   -0.0010628    0.0007996    0.0000279
h    -2.1657556    0.7115387   -0.0094980  0.00   -0.0022249   -0.0008569    0.0002151
h    -0.2188631    4.4888713   -0.4449135  0.00    0.0004609    0.0026111   -0.0000923
h     1.9675543    3.3670451   -0.4630791  0.00    0.0020040    0.0019763   -0.0000974
h     2.2606682   -1.5858840    0.1206749  0.00    0.0073397   -0.0050408   -0.0048619
o     3.9972569   -2.0734165   -1.2159565  0.00    0.0141071    0.0258728    0.0203719
o     6.1559338   -1.1369306   -1.5685612  0.00   -0.0031189    0.0015322    0.0032556
h     6.7537208   -0.4389857   -1.1449813  0.00   -0.0318874    0.0248223    0.0397270
    27
 Energy =       0.2186983697
c    -1.3163526    2.6692689   -0.2584260  0.00   -0.0065398    0.0052593    0.0003844
c    -1.2623863    1.3124844   -0.0808367  0.00   -0.0097329   -0.0066973    0.0003596
c    -0.0466265    0.7142328   -0.0846613  0.00   -0.0094594   -0.0188834   -0.0010078
c    -0.1639178    3.3934237   -0.4340718  0.00   -0.0010894    0.0100196    0.0003938
c     1.0522697    2.7657378   -0.4377756  0.00    0.0023666    0.0101294    0.0000337
c     1.0874963    1.4109072   -0.2576961  0.00    0.0061828    0.0057472    0.0001303
n     0.2349704   -0.6563025    0.1340385  0.00    0.0148824    0.0071946    0.0001111
c     2.1454823    0.5672555   -0.1874862  0.00    0.0146673   -0.0047723   -0.0021643
c     1.6624283   -0.6783051    0.0464310  0.00   -0.0087653   -0.0127652   -0.0000385
h    -0.4285886   -1.4437996    0.3168739  0.00    0.0000276    0.0006453    0.0008759
c     3.6049159    0.9896740   -0.3284749  0.00    0.0008857   -0.0001295   -0.0026056
c     4.6882931   -0.0282042    0.1302277  0.00    0.0192228    0.0144330   -0.0092326
h     3.7529273    1.9172062    0.2720911  0.00    0.0007865    0.0027397    0.0012433
h     3.7857352    1.2689171   -1.3945158  0.00    0.0005858    0.0016290   -0.0034988
c     4.9241973   -1.1564422   -0.8845759  0.00   -0.0242552   -0.0227755   -0.0144235
n     4.4299890   -0.5606995    1.4938836  0.00    0.0042409   -0.0262080   -0.0070730
h     5.6485487    0.5402798    0.1431225  0.00    0.0159170   -0.0138992   -0.0205921
h     5.2441460   -0.3119715    2.1212522  0.00    0.0119995    0.0078618    0.0100030
h     3.5865020   -0.1047942    1.9429878  0.00   -0.0190303    0.0069469    0.0056523
h    -2.2786405    3.1767752   -0.2564146  0.00   -0.0007712    0.0006792    0.0000122
h    -2.1657610    0.7270977    0.0701446  0.00   -0.0021946   -0.0014101    0.0002855
h    -0.2156538    4.4734979   -0.5717103  0.00    0.0005171    0.0031366   -0.0002037
h     1.9641727    3.3436363   -0.5755203  0.00    0.0020861    0.0022489   -0.0001872
h     2.2567814   -1.5706862    0.2280008  0.00    0.0050832   -0.0039845   -0.0033121
o     3.9942407   -2.1499007   -1.1016983  0.00    0.0068758    0.0140309    0.0138686
o     6.1307737   -1.2023079   -1.5724335  0.00   -0.0024299   -0.0007138    0.0007802
h     6.7496002   -0.4942454   -1.1999908  0.00   -0.0220590    0.0195373    0.0302052
    27
 Energy =       0.2189977750
c    -1.2819033    2.7293388   -0.2937336  0.00   -0.0066558    0.0053111    0.0003574
c    -1.2516607    1.3761507   -0.0853122  0.00   -0.0095941   -0.0069100    0.0004372
c    -0.0472940    0.7556836   -0.0822835  0.00   -0.0091932   -0.0180769   -0.0010053
c    -0.1173477    3.4279316   -0.4929845  0.00   -0.0008494    0.0101385    0.0002853
c     1.0871816    2.7776594   -0.4904690  0.00    0.0025608    0.0102361   -0.0000713
c     1.0986591    1.4266024   -0.2790950  0.00    0.0061464    0.0055963    0.0000801
n     0.2090399   -0.6142775    0.1697738  0.00    0.0141539    0.0062782    0.0002388
c     2.1411502    0.5644642   -0.1951865  0.00    0.0140931   -0.0043888   -0.0019582
c     1.6354681   -0.6652052    0.0738737  0.00   -0.0085229   -0.0126196    0.0000113
h    -0.4682665   -1.3845929    0.3770555  0.00   -0.0005147   -0.0000535    0.0010139
c     3.6083994    0.9517684   -0.3631026  0.00    0.0007944   -0.0001844   -0.0024956
c     4.6768244   -0.0627892    0.1406277  0.00    0.0188514    0.0156390   -0.0099635
h     3.7765322    1.9047669    0.1929122  0.00    0.0007953    0.0039538    0.0018422
h     3.7898674    1.1774168   -1.4427959  0.00    0.0009444    0.0019305   -0.0047322
c     4.8955780   -1.2472940   -0.8177743  0.00   -0.0207642   -0.0192352   -0.0136503
n     4.4140841   -0.5247493    1.5301695  0.00    0.0037150   -0.0266498   -0.0045761
h     5.6457015    0.4933872    0.1227787  0.00    0.0154686   -0.0124960   -0.0198378
h     5.2282638   -0.2522000    2.1473205  0.00    0.0117187    0.0076298    0.0102185
h     3.5707858   -0.0472282    1.9562587  0.00   -0.0187349    0.0069794    0.0060197
h    -2.2348279    3.2545667   -0.2971146  0.00   -0.0009385    0.0007722    0.0000101
h    -2.1646877    0.8108613    0.0852031  0.00   -0.0024474   -0.0016560    0.0003512
h    -0.1501793    4.5057674   -0.6544587  0.00    0.0005369    0.0034874   -0.0002687
h     2.0085517    3.3358041   -0.6470743  0.00    0.0023345    0.0024466   -0.0002452
h     2.2123427   -1.5622868    0.2809099  0.00    0.0043552   -0.0040935   -0.0025193
o     3.9744740   -2.2700689   -0.9429451  0.00    0.0037893    0.0085083    0.0117709
o     6.0869048   -1.3295712   -1.5292701  0.00   -0.0018942   -0.0017996   -0.0003752
h     6.7219016   -0.6191708   -1.1905177  0.00   -0.0201486    0.0192562    0.0290621
    27
 Energy =       0.2176250587
c    -1.3233444    2.6592512   -0.2659696  0.00   -0.0067230    0.0052710    0.0003408
c    -1.2653214    1.3049859   -0.0687752  0.00   -0.0095143   -0.0068459    0.0004775
c    -0.0480875    0.7094817   -0.0692791  0.00   -0.0089282   -0.0173611   -0.0009690
c    -0.1731281    3.3836335   -0.4575446  0.00   -0.0007912    0.0101180    0.0002115
c     1.0445561    2.7585859   -0.4578613  0.00    0.0027696    0.0100591   -0.0001354
c     1.0834339    1.4064770   -0.2580642  0.00    0.0060251    0.0054511    0.0000382
n     0.2376341   -0.6582885    0.1683484  0.00    0.0133137    0.0057059    0.0003003
c     2.1439420    0.5672477   -0.1806943  0.00    0.0136055   -0.0042286   -0.0017301
c     1.6659628   -0.6766889    0.0746256  0.00   -0.0080730   -0.0122903    0.0000619
h    -0.4231252   -1.4455746    0.3662742  0.00   -0.0008161   -0.0004551    0.0010725
c     3.6019826    0.9929387   -0.3365181  0.00    0.0007620   -0.0000705   -0.0023396
c     4.6903038   -0.0195745    0.1258916  0.00    0.0181700    0.0165646   -0.0104660
h     3.7505546    1.9288081    0.2545540  0.00    0.0007055    0.0046454    0.0021861
h     3.7765908    1.2621897   -1.4081767  0.00    0.0012045    0.0021401   -0.0054414
c     4.9284440   -1.1548141   -0.8865285  0.00   -0.0174064   -0.0160894   -0.0125265
n     4.4329655   -0.5464341    1.4949157  0.00    0.0025531   -0.0278576   -0.0039247
h     5.6481340    0.5548684    0.1352758  0.00    0.0150824   -0.0112743   -0.0192343
h     5.2626301   -0.3263139    2.1140425  0.00    0.0128394    0.0076513    0.0117483
h     3.6110945   -0.0618394    1.9547353  0.00   -0.0189885    0.0075000    0.0062270
h    -2.2871437    3.1646574   -0.2668963  0.00   -0.0011458    0.0008665    0.0000102
h    -2.1668946    0.7193514    0.0948837  0.00   -0.0026058   -0.0017614    0.0003860
h    -0.2279541    4.4619210   -0.6105910  0.00    0.0005131    0.0036375   -0.0003009
h     1.9548396    3.3366699   -0.6083111  0.00    0.0024908    0.0025101   -0.0002785
h     2.2652005   -1.5647912    0.2668519  0.00    0.0038292   -0.0041490   -0.0016622
o     3.9950342   -2.1556275   -1.1016983  0.00    0.0010313    0.0038658    0.0093503
o     6.1338420   -1.2017203   -1.5800249  0.00   -0.0011982   -0.0023624   -0.0011794
h     6.7533970   -0.4866651   -1.2206999  0.00   -0.0187046    0.0187592    0.0277774
    27
 Energy =       0.2154793868
c    -1.3379311    2.6346774   -0.2275256  0.00   -0.0054973    0.0043216    0.0002699
c    -1.2676450    1.2848096   -0.0122189  0.00   -0.0077125   -0.0056805    0.0003886
c    -0.0467195    0.6992069   -0.0131915  0.00   -0.0072869   -0.0140767   -0.0008001
c    -0.1953775    3.3644682   -0.4372415  0.00   -0.0005297    0.0082866    0.0001624
c     1.0261106    2.7490601   -0.4377174  0.00    0.0023233    0.0082386   -0.0001193
c     1.0761610    1.4017476   -0.2202438  0.00    0.0048909    0.0043777    0.0000133
n     0.2511922   -0.6644050    0.2359454  0.00    0.0106281    0.0045510    0.0002816
c     2.1431271    0.5746453   -0.1434936  0.00    0.0108766   -0.0031811   -0.0013045
c     1.6799657   -0.6698681    0.1307504  0.00   -0.0068528   -0.0099677    0.0000375
h    -0.4007567   -1.4550951    0.4488335  0.00   -0.0008014   -0.0005673    0.0009065
c     3.5945778    1.0149567   -0.3176989  0.00   -0.0003841    0.0004851   -0.0019742
c     4.6995551   -0.0091320    0.0763964  0.00    0.0159078    0.0142653   -0.0087828
h     3.7503879    1.9295803    0.3035820  0.00    0.0003605    0.0043708    0.0021539
h     3.7412839    1.3236410   -1.3829702  0.00    0.0010589    0.0020466   -0.0054770
c     4.9020129   -1.1083646   -0.9839104  0.00   -0.0103956   -0.0101433   -0.0092092
n     4.4827081   -0.5791457    1.4345203  0.00    0.0019226   -0.0257216   -0.0053636
h     5.6564412    0.5663985    0.0787244  0.00    0.0124903   -0.0092305   -0.0157103
h     5.3468790   -0.4177572    2.0244565  0.00    0.0135219    0.0067649    0.0124460
h     3.7040111   -0.0765580    1.9472831  0.00   -0.0182949    0.0079397    0.0067472
h    -2.3055286    3.1323213   -0.2288887  0.00   -0.0009523    0.0007252    0.0000076
h    -2.1630807    0.6944498    0.1646799  0.00   -0.0021826   -0.0015030    0.0003249
h    -0.2596731    4.4395722   -0.6048075  0.00    0.0004371    0.0030843   -0.0002572
h     1.9310013    3.3308867   -0.6028527  0.00    0.0021303    0.0020880   -0.0002355
h     2.2919317   -1.5519898    0.3168692  0.00    0.0025423   -0.0032964   -0.0002908
o     3.9192475   -2.0509244   -1.2604514  0.00   -0.0020408   -0.0013565    0.0046600
o     6.1023912   -1.1702921   -1.6865290  0.00   -0.0012749   -0.0025394   -0.0014601
h     6.7432700   -0.4741541   -1.3295343  0.00   -0.0148846    0.0157183    0.0225852
    27
 Energy =       0.2121183778
c    -1.3608965    2.5953226   -0.1740880  0.00   -0.0030438    0.0022195    0.0001871
c    -1.2739069    1.2518553    0.0591878  0.00   -0.0041346   -0.0030519    0.0002170
c    -0.0496394    0.6781707    0.0459231  0.00   -0.0041008   -0.0073343   -0.0004042
c    -0.2301036    3.3304172   -0.4144147  0.00    0.0000647    0.0045062    0.0000832
c     0.9949921    2.7267589   -0.4254783  0.00    0.0013913    0.0043801   -0.0000380
c     1.0600122    1.3864970   -0.1890578  0.00    0.0025042    0.0022057    0.0000334
n     0.2630117   -0.6836392    0.2900095  0.00    0.0049461    0.0024147    0.0003466
c     2.1338305    0.5738846   -0.1274739  0.00    0.0054118   -0.0016921   -0.0005627
c     1.6916175   -0.6730055    0.1551059  0.00   -0.0033587   -0.0046971    0.0001270
h    -0.3767801   -1.4801315    0.5166435  0.00   -0.0006362   -0.0004534    0.0005870
c     3.5750904    1.0279023   -0.3374602  0.00    0.0000245    0.0005692   -0.0010703
c     4.6993905    0.0223866    0.0414565  0.00    0.0077342    0.0082007   -0.0046447
h     3.7328295    1.9464535    0.2737179  0.00    0.0003285    0.0022008    0.0011721
h     3.6946186    1.3312313   -1.4052384  0.00    0.0006209    0.0011881   -0.0031040
c     4.9278280   -1.0450458   -1.0422165  0.00   -0.0040612   -0.0046381   -0.0042333
n     4.4786262   -0.5793240    1.3796867  0.00   -0.0063924   -0.0261067   -0.0220134
h     5.6401549    0.6212390    0.0723649  0.00    0.0074610   -0.0047109   -0.0095417
h     5.3972141   -0.5765103    1.9227818  0.00    0.0272755    0.0041759    0.0186015
h     3.8068884    0.0127427    1.9554835  0.00   -0.0225916    0.0145793    0.0112538
h    -2.3327443    3.0836532   -0.1672542  0.00   -0.0005401    0.0004587    0.0000500
h    -2.1602363    0.6558790    0.2561697  0.00   -0.0013183   -0.0008439    0.0002574
h    -0.3072119    4.4009097   -0.5982314  0.00    0.0003489    0.0018354   -0.0001423
h     1.8908755    3.3128518   -0.6169551  0.00    0.0014492    0.0013012   -0.0001648
h     2.3200633   -1.5509892    0.3045943  0.00    0.0021620   -0.0023110    0.0000619
o     3.9373756   -1.9652121   -1.3682195  0.00   -0.0025105   -0.0017749    0.0017539
o     6.1340206   -1.0939202   -1.7398288  0.00   -0.0006660   -0.0013984   -0.0010885
h     6.7786228   -0.3976418   -1.3944424  0.00   -0.0083689    0.0087770    0.0122759
    27
 Energy =       0.2113297121
c    -1.4087853    2.5042952   -0.2252483  0.00   -0.0032632    0.0020881    0.0001973
c    -1.2925586    1.1621713    0.0032979  0.00   -0.0042248   -0.0029229    0.0002745
c    -0.0544014    0.6181925    0.0047456  0.00   -0.0037536   -0.0067213   -0.0003348
c    -0.2926037    3.2674665   -0.4468028  0.00    0.0000250    0.0045400   -0.0000103
c     0.9470032    2.6936699   -0.4426200  0.00    0.0017561    0.0041057   -0.0001111
c     1.0411108    1.3544440   -0.2104443  0.00    0.0025096    0.0020339   -0.0000207
n     0.2876401   -0.7380746    0.2429585  0.00    0.0038782    0.0019814    0.0003761
c     2.1336154    0.5682289   -0.1372246  0.00    0.0051069   -0.0013707   -0.0006560
c     1.7181735   -0.6913713    0.1286508  0.00   -0.0026204   -0.0044972    0.0001234
h    -0.3359706   -1.5519880    0.4537299  0.00   -0.0009801   -0.0009111    0.0006604
c     3.5662746    1.0585255   -0.3247711  0.00   -0.0003595    0.0006340   -0.0012525
c     4.7100476    0.0899491    0.0922119  0.00    0.0068458    0.0075075   -0.0034464
h     3.6868293    1.9890459    0.2775718  0.00    0.0003634    0.0026283    0.0015041
h     3.6987034    1.3516095   -1.3936880  0.00    0.0004771    0.0010856   -0.0029590
c     5.0104226   -0.9675311   -0.9847851  0.00   -0.0034220   -0.0037531   -0.0035480