    13
 Energy =       0.1091446762
c    -3.7133889    1.6950595    0.3173519  0.00   -0.0805525    0.0300694    0.0996244
c    -2.4962693    2.6345192    0.2419999  0.00    0.2038501    0.1436474   -0.3235736
c    -4.9565486    2.3924193   -0.2155699  0.00    0.0130578   -0.0036791    0.0112670
h    -4.7854386    2.7464192   -1.2386596  0.00   -0.0039527   -0.0049036    0.0178359
h    -5.2149185    3.2645991    0.3947669  0.00    0.0027678   -0.0123145   -0.0127125
h    -5.8205083    1.7195795   -0.2420919  0.00    0.0126301    0.0119466   -0.0057014
n    -3.4097890    0.4519539   -0.4549189  0.00    0.0465013   -0.0376953   -0.0521308
h    -3.8575589    1.4177196    1.3669296  0.00    0.0021612    0.0016974   -0.0246554
h    -4.2340588    0.2238779   -1.0206697  0.00    0.0212941    0.0305482    0.0214817
h    -2.6878492    0.6694128   -1.1486897  0.00   -0.0290763    0.0112988    0.0368799
o    -1.9513094    3.0041591   -0.7839488  0.00   -0.1294516   -0.1034439    0.2469540
o    -2.1005994    3.0267291    1.4825496  0.00   -0.0436982   -0.0297834   -0.0064254
h    -2.2705794    4.0015489    1.5135996  0.00   -0.0155312   -0.0373880   -0.0088439
    13
 Energy =       0.0887897434
c    -3.7204813    1.6987255    0.3158655  0.00   -0.0517808    0.0194863    0.0644116
c    -2.4875468    2.6089230    0.2740869  0.00    0.1295305    0.0945295   -0.2076117
c    -4.9424584    2.4257915   -0.2508354  0.00    0.0120195   -0.0046791    0.0102173
h    -4.6971012    2.8819222   -1.2334162  0.00    0.0002007    0.0003280    0.0043331
h    -5.2633076    3.2350398    0.4327476  0.00    0.0007516   -0.0040975   -0.0032120
h    -5.8006040    1.7400915   -0.4008450  0.00    0.0027540    0.0024305   -0.0053392
n    -3.4475096    0.4427805   -0.4362296  0.00    0.0274558   -0.0247846   -0.0311942
h    -3.8924507    1.4393233    1.3739612  0.00    0.0013474    0.0012630   -0.0153720
h    -4.2687338    0.1969667   -1.0124145  0.00    0.0133561    0.0200003    0.0135199
h    -2.6842566    0.6046480   -1.1175248  0.00   -0.0156390    0.0077889    0.0216461
o    -1.9279664    2.9776789   -0.8161493  0.00   -0.0839390   -0.0673381    0.1579768
o    -2.0337336    3.0187270    1.4982132  0.00   -0.0192197   -0.0368201   -0.0024306
h    -2.3326663    3.9773795    1.5851896  0.00   -0.0168371   -0.0081071   -0.0069453
    13
 Energy =       0.0814635920
c    -3.7066531    1.6968139    0.3041539  0.00   -0.0315338    0.0122627    0.0397557
c    -2.4649833    2.5900640    0.2813571  0.00    0.0790128    0.0599350   -0.1278780
c    -4.9239042    2.4470262   -0.2491949  0.00    0.0140707   -0.0064795    0.0087388
h    -4.7164789    2.7803532   -1.2993000  0.00    0.0034854    0.0020186   -0.0065811
h    -5.1449988    3.3510493    0.3719211  0.00   -0.0007227    0.0060915    0.0044708
h    -5.8305288    1.7895620   -0.2561277  0.00   -0.0066538   -0.0057335   -0.0025452
n    -3.4753942    0.4420749   -0.4573758  0.00    0.0155052   -0.0163019   -0.0174231
h    -3.8783515    1.4341651    1.3668830  0.00    0.0008371    0.0008049   -0.0093905
h    -4.2946707    0.2225517   -1.0586677  0.00    0.0069306    0.0126790    0.0074321
h    -2.6757460    0.5637529   -1.1159979  0.00   -0.0071370    0.0054298    0.0120727
o    -1.9001643    2.9739025   -0.8499948  0.00   -0.0524518   -0.0408135    0.0968688
o    -1.9955231    3.0330158    1.4958865  0.00    0.0113484   -0.0628934   -0.0055552
h    -2.4914194    3.9236658    1.6791062  0.00   -0.0326910    0.0330001    0.0000343
    13
 Energy =       0.0780019544
c    -3.6923693    1.6650793    0.2882574  0.00   -0.0201633    0.0122296    0.0315723
c    -2.4471761    2.5514131    0.2702802  0.00    0.0578422    0.0442524   -0.0939351
c    -4.9355301    2.4615449   -0.1504484  0.00    0.0066880   -0.0033745    0.0064803
h    -4.7886958    2.8465289   -1.1938325  0.00    0.0027339    0.0023302   -0.0078591
h    -5.1111956    3.3331830    0.5306743  0.00   -0.0014851    0.0069211    0.0052788
h    -5.8465647    1.8136213   -0.1353667  0.00   -0.0055249   -0.0040114   -0.0019001
n    -3.5194210    0.4536947   -0.5609688  0.00    0.0157998   -0.0176251   -0.0141828
h    -3.8091128    1.3374471    1.3463087  0.00    0.0007460   -0.0002142   -0.0033780
h    -4.3519415    0.3020498   -1.1731941  0.00    0.0024799    0.0076137    0.0021674
h    -2.7194463    0.5823020   -1.2207341  0.00   -0.0053712    0.0040905    0.0085069
o    -1.8564723    2.9113700   -0.8771154  0.00   -0.0382486   -0.0305871    0.0705489
o    -1.9885010    3.0342006    1.4772578  0.00    0.0113498   -0.0498779   -0.0044994
h    -2.4323899    3.9555628    1.6115306  0.00   -0.0268465    0.0282526    0.0011999
    13
 Energy =       0.0773239908
c    -3.7172881    1.6632560    0.2759196  0.00   -0.0172236    0.0113411    0.0294316
c    -2.4132077    2.4668715    0.2568120  0.00    0.0497807    0.0378523   -0.0828390
c    -4.9192049    2.5516354   -0.1137925  0.00    0.0040652   -0.0007275    0.0037190
h    -4.7721330    2.9549820   -1.1490876  0.00    0.0020151    0.0021979   -0.0069836
h    -5.0270761    3.4148673    0.5934631  0.00   -0.0016023    0.0080561    0.0059430
h    -5.8686416    1.9593506   -0.0953006  0.00   -0.0066916   -0.0044956   -0.0018460
n    -3.6450887    0.4623401   -0.6064327  0.00    0.0160580   -0.0213376   -0.0112355
h    -3.8326998    1.3163017    1.3285916  0.00    0.0008438   -0.0004903   -0.0026372
h    -4.4883019    0.3955382   -1.2264765  0.00   -0.0029302    0.0056273   -0.0015770
h    -2.8303855    0.5365667   -1.2600527  0.00   -0.0022205    0.0038289    0.0059388
o    -1.8289162    2.8269744   -0.9022107  0.00   -0.0324945   -0.0258996    0.0600557
o    -1.8822363    2.8818187    1.4650911  0.00    0.0150129   -0.0438037    0.0003612
h    -2.2736368    3.8174947    1.6461248  0.00   -0.0246131    0.0278506    0.0016690
    13
 Energy =       0.0756744189
c    -3.7136990    1.6603914    0.2871575  0.00   -0.0144260    0.0097566    0.0249662
c    -2.4365794    2.5052236    0.2783821  0.00    0.0399685    0.0317114   -0.0702190
c    -4.9357189    2.5046689   -0.1378512  0.00    0.0028412   -0.0001645    0.0026467
h    -4.7893726    2.8888920   -1.1793953  0.00    0.0015817    0.0019848   -0.0061148
h    -5.0742406    3.3790068    0.5490878  0.00   -0.0013863    0.0073859    0.0054580
h    -5.8681903    1.8875531   -0.1143643  0.00   -0.0060680   -0.0040210   -0.0016423
n    -3.5948106    0.4447531   -0.5691180  0.00    0.0145132   -0.0193728   -0.0094697
h    -3.8363735    1.3321395    1.3456113  0.00    0.0008116   -0.0004504   -0.0019688
h    -4.4238492    0.3402552   -1.2037308  0.00   -0.0035695    0.0044591   -0.0023013
h    -2.7666737    0.5207602   -1.2064267  0.00   -0.0015964    0.0030435    0.0046700
o    -1.8023538    2.8091828   -0.8807169  0.00   -0.0266301   -0.0223455    0.0470316
o    -1.9624624    2.9989228    1.4844988  0.00    0.0198758   -0.0480692    0.0046977
h    -2.2944927    3.9762478    1.5595146  0.00   -0.0259156    0.0360821    0.0022458
    13
 Energy =       0.0739489555
c    -3.7248357    1.6710085    0.3083858  0.00   -0.0088070    0.0073995    0.0156451
c    -2.4515164    2.5183282    0.2840990  0.00    0.0140063    0.0200980   -0.0347290
c    -4.9430692    2.4921632   -0.1664076  0.00    0.0012894    0.0000220    0.0016331
h    -4.7907554    2.8316468   -1.2209064  0.00    0.0010099    0.0016936   -0.0047582
h    -5.0891773    3.3917920    0.4816350  0.00   -0.0009844    0.0053589    0.0040796
h    -5.8720715    1.8753263   -0.1205112  0.00   -0.0038885   -0.0027330   -0.0010352
n    -3.6022712    0.4162507   -0.4859990  0.00    0.0071537   -0.0143333   -0.0039936
h    -3.8610704    1.3940474    1.3818643  0.00    0.0004366   -0.0006323    0.0001918
h    -4.4081304    0.2918034   -1.1461989  0.00   -0.0031326    0.0026808   -0.0023244
h    -2.7432188    0.4306870   -1.0915604  0.00    0.0025089    0.0012270   -0.0001825
o    -1.7250072    2.6749699   -0.8787841  0.00   -0.0075874   -0.0158986    0.0117736
o    -2.0270896    3.1249730    1.4626425  0.00    0.0213385   -0.0490873    0.0122785
h    -2.2606032    4.1350009    1.4043901  0.00   -0.0233435    0.0442046    0.0014213
    13
 Energy =       0.0746978936
c    -3.7478156    1.6735751    0.3009484  0.00   -0.0083775    0.0057645    0.0146398
c    -2.4389624    2.4684764    0.3210752  0.00    0.0111874    0.0182768   -0.0285164
c    -4.9205926    2.5461020   -0.2003087  0.00    0.0005695    0.0012565    0.0013338
h    -4.7295292    2.8846967   -1.2489489  0.00    0.0009595    0.0019189   -0.0049629
h    -5.0482068    3.4473098    0.4485330  0.00   -0.0009735    0.0050541    0.0036756
h    -5.8741436    1.9649795   -0.1800490  0.00   -0.0045580   -0.0030809   -0.0008623
n    -3.6557994    0.4192451   -0.4975893  0.00    0.0058818   -0.0140302    0.0005797
h    -3.9252767    1.3945150    1.3686159  0.00    0.0002665   -0.0011768    0.0008833
h    -4.4350961    0.3433863   -1.1992245  0.00   -0.0059859    0.0023569   -0.0043847
h    -2.7650582    0.3879666   -1.0590408  0.00    0.0058963    0.0012955   -0.0019840
o    -1.6476423    2.5731666   -0.8096787  0.00   -0.0033153   -0.0133980    0.0069450
o    -2.0362062    3.0691596    1.5101036  0.00    0.0193732   -0.0440994    0.0114005
h    -2.2744876    4.0754184    1.4582128  0.00   -0.0209240    0.0398621    0.0012526
    13
 Energy =       0.0758032300
c    -3.7618139    1.6815127    0.3000582  0.00   -0.0083076    0.0054133    0.0142826
c    -2.4192319    2.4209801    0.3222101  0.00    0.0086830    0.0169779   -0.0233003
c    -4.8980641    2.5981448   -0.2082312  0.00    0.0002926    0.0019830    0.0009891
h    -4.6899900    2.9272543   -1.2562795  0.00    0.0009250    0.0018687   -0.0046244
h    -4.9957253    3.5044532    0.4382346  0.00   -0.0009984    0.0049868    0.0034709
h    -5.8727729    2.0524861   -0.1912310  0.00   -0.0048277   -0.0031728   -0.0007247
n    -3.7209307    0.4185542   -0.4897316  0.00    0.0041344   -0.0145447    0.0027146
h    -3.9540320    1.4157679    1.3686216  0.00    0.0000830   -0.0012959    0.0009215
h    -4.4825648    0.3842092   -1.2149694  0.00   -0.0072161    0.0022795   -0.0051199
h    -2.8150238    0.3287884   -1.0231151  0.00    0.0085087    0.0009820   -0.0033538
o    -1.5962933    2.4511556   -0.7943635  0.00    0.0000327   -0.0115131    0.0031128
o    -2.0082731    3.0346820    1.5014236  0.00    0.0177313   -0.0411929    0.0108908
h    -2.2841005    4.0300087    1.4600221  0.00   -0.0190409    0.0372281    0.0007410
    13
 Energy =       0.0764694603
c    -3.7695409    1.6881289    0.2997123  0.00   -0.0079177    0.0051296    0.0134570
c    -2.4047277    2.3871224    0.3185152  0.00    0.0071669    0.0157349   -0.0200085
c    -4.8802876    2.6340457   -0.2110237  0.00    0.0001862    0.0021640    0.0007778
h    -4.6632706    2.9553399   -1.2592491  0.00    0.0008656    0.0017350   -0.0042200
h    -4.9553693    3.5434672    0.4333358  0.00   -0.0009548    0.0047270    0.0032282
h    -5.8686065    2.1137096   -0.1936618  0.00   -0.0046962   -0.0030427   -0.0006297
n    -3.7679388    0.4199564   -0.4825444  0.00    0.0029590   -0.0141431    0.0036674
h    -3.9683768    1.4334650    1.3697008  0.00   -0.0000103   -0.0012545    0.0008839
h    -4.5131829    0.4151558   -1.2257441  0.00   -0.0075200    0.0021980   -0.0052786
h    -2.8541435    0.2847764   -0.9937865  0.00    0.0095456    0.0006866   -0.0039174
o    -1.5676835    2.3625579   -0.7896395  0.00    0.0014842   -0.0102037    0.0012605
o    -1.9834827    3.0143232    1.4867386  0.00    0.0165469   -0.0390356    0.0105332
h    -2.3022058    3.9959488    1.4602954  0.00   -0.0176553    0.0353045    0.0002461
    13
 Energy =       0.0766887852
c    -3.7743870    1.6929614    0.2996157  0.00   -0.0073318    0.0047366    0.0123732
c    -2.3956203    2.3640969    0.3166869  0.00    0.0062732    0.0144192   -0.0177516
c    -4.8667952    2.6576029   -0.2146530  0.00    0.0001416    0.0021224    0.0006575
h    -4.6433123    2.9717997   -1.2632679  0.00    0.0008004    0.0015909   -0.0038355
h    -4.9265104    3.5696539    0.4267288  0.00   -0.0008890    0.0043689    0.0029562
h    -5.8639451    2.1551120   -0.1966984  0.00   -0.0043947   -0.0028281   -0.0005518
n    -3.7989391    0.4217241   -0.4763969  0.00    0.0022905   -0.0131823    0.0038463
h    -3.9783469    1.4468960    1.3705655  0.00   -0.0000531   -0.0011755    0.0008304
h    -4.5315939    0.4348340   -1.2316416  0.00   -0.0072067    0.0020534   -0.0050368
h    -2.8817218    0.2556622   -0.9721057  0.00    0.0094570    0.0005013   -0.0039385
o    -1.5527855    2.3058831   -0.7865083  0.00    0.0018769   -0.0091462    0.0005677
o    -1.9667373    3.0013918    1.4763983  0.00    0.0152976   -0.0363591    0.0099075
h    -2.3181218    3.9703791    1.4639255  0.00   -0.0162620    0.0328986   -0.0000246
    13
 Energy =       0.0765698394
c    -3.7907651    1.7095114    0.3003375  0.00   -0.0058968    0.0035742    0.0088632
c    -2.3703210    2.2904453    0.3193419  0.00    0.0033954    0.0103914   -0.0090161
c    -4.8181537    2.7304359   -0.2394249  0.00   -0.0000729    0.0031145    0.0000939
h    -4.5681608    3.0114835   -1.2904767  0.00    0.0008159    0.0013002   -0.0028042
h    -4.8289263    3.6557027    0.3833366  0.00   -0.0008486    0.0036925    0.0021528
h    -5.8436954    2.2891671   -0.2199825  0.00   -0.0043341   -0.0024588   -0.0000331
n    -3.8933514    0.4276636   -0.4497138  0.00   -0.0027288   -0.0107691    0.0065187
h    -4.0193830    1.4969024    1.3737114  0.00   -0.0006240   -0.0012651    0.0010984
h    -4.5866810    0.4858279   -1.2392281  0.00   -0.0071532    0.0018833   -0.0049832
h    -2.9708914    0.1679230   -0.8985903  0.00    0.0129011   -0.0015471   -0.0056355
o    -1.5190490    2.1471300   -0.7728930  0.00    0.0046417   -0.0049840   -0.0031985
o    -1.9172161    2.9571975    1.4524600  0.00    0.0142066   -0.0327106    0.0090355
h    -2.3722222    3.8786070    1.4937708  0.00   -0.0143022    0.0297786   -0.0020920
    13
 Energy =       0.0757110363
c    -3.7966477    1.7095096    0.3064948  0.00   -0.0004589    0.0012399    0.0018590
c    -2.3902662    2.3050312    0.3598927  0.00   -0.0067758    0.0020601    0.0089587
c    -4.8082468    2.7075519   -0.2947701  0.00   -0.0011976    0.0008071    0.0000870
h    -4.5382577    2.9412020   -1.3514968  0.00    0.0003866    0.0006609   -0.0018290
h    -4.8212368    3.6576412    0.2858554  0.00   -0.0002843    0.0017274    0.0011804
h    -5.8341351    2.2767381   -0.2731142  0.00   -0.0009842   -0.0005797    0.0000593
n    -3.8595703    0.4162227   -0.4193017  0.00   -0.0005095   -0.0037609    0.0036751
h    -4.0615459    1.5211213    1.3759018  0.00   -0.0002118   -0.0001875    0.0011863
h    -4.5825976    0.4182889   -1.1817115  0.00   -0.0040902    0.0007744   -0.0039431
h    -2.9456873    0.1990969   -0.8959724  0.00    0.0051445   -0.0007288   -0.0015075
o    -1.5734193    2.3058831   -0.7741196  0.00    0.0086057   -0.0019815   -0.0127870
o    -1.9442410    2.9286866    1.5184626  0.00    0.0062873   -0.0079922    0.0036096
h    -2.3429647    3.8610236    1.5565280  0.00   -0.0059117    0.0079609   -0.0005488
    13
 Energy =       0.0754995303
c    -3.8043075    1.7344273    0.3064496  0.00   -0.0004399    0.0005180   -0.0021873
c    -2.3932811    2.3141518    0.3325127  0.00    0.0051626   -0.0003650   -0.0087070
c    -4.8050877    2.7167192   -0.3266917  0.00    0.0009958   -0.0010434    0.0001118
h    -4.5369781    2.9059512   -1.3902002  0.00   -0.0000904   -0.0003168    0.0007304
h    -4.8037907    3.6874661    0.2132347  0.00    0.0001585   -0.0006629   -0.0004423
h    -5.8334881    2.2977326   -0.2859624  0.00    0.0007015    0.0002444   -0.0000210
n    -3.8883125    0.4178913   -0.3678374  0.00   -0.0046143    0.0033230    0.0108616
h    -4.0682351    1.5884960    1.3812722  0.00   -0.0000430   -0.0000751   -0.0001656
h    -4.5203890    0.4391637   -1.2080352  0.00   -0.0051528    0.0010643   -0.0045403
h    -2.9467035    0.1095660   -0.7372193  0.00    0.0099836   -0.0039474   -0.0054580
o    -1.6113374    2.3112826   -0.8056624  0.00   -0.0069055    0.0016856    0.0111193
o    -1.9059642    2.9206978    1.4814667  0.00    0.0016173   -0.0071953   -0.0006975
h    -2.3809415    3.8044516    1.6193216  0.00   -0.0013735    0.0067705   -0.0006044
    13
 Energy =       0.0756018644
c    -3.8195829    1.7305790    0.3079566  0.00   -0.0006373    0.0004607   -0.0019433
c    -2.4105321    2.3124689    0.3986582  0.00   -0.0006198   -0.0021217   -0.0058697
c    -4.7929030    2.7064866   -0.3788498  0.00    0.0005573   -0.0005668    0.0004089
h    -4.4700745    2.8975237   -1.4282165  0.00    0.0003481   -0.0001703   -0.0008371
h    -4.8281027    3.6767547    0.1620328  0.00    0.0001297   -0.0001380    0.0001383
h    -5.8204276    2.2796538   -0.3930035  0.00   -0.0008445   -0.0001001   -0.0001376
n    -3.8724905    0.4086144   -0.3598257  0.00   -0.0067533    0.0041074    0.0180971
h    -4.1333802    1.5933232    1.3718273  0.00   -0.0003632   -0.0000578    0.0011377
h    -4.4234088    0.4385051   -1.2602804  0.00   -0.0090924    0.0012741   -0.0110223
h    -2.9050516    0.0735830   -0.6386684  0.00    0.0160599   -0.0057808   -0.0068337
o    -1.5372005    2.2249291   -0.6774289  0.00    0.0001269   -0.0001746   -0.0002047
o    -2.0117995    2.9985891    1.5430011  0.00    0.0079229   -0.0130477    0.0078565
h    -2.4738625    3.9069868    1.5654461  0.00   -0.0068343    0.0163155   -0.0007901
    13
 Energy =       0.0756381479
c    -3.8246914    1.7325589    0.3074212  0.00   -0.0005275    0.0003490   -0.0017686
c    -2.4152468    2.3104702    0.4155522  0.00   -0.0005492   -0.0019419   -0.0052954
c    -4.7841375    2.7085370   -0.3991692  0.00    0.0003781   -0.0004195    0.0003881
h    -4.4467062    2.8901064   -1.4457040  0.00    0.0003573   -0.0001247   -0.0008967
h    -4.8209243    3.6831180    0.1339407  0.00    0.0000935   -0.0000860    0.0001423
h    -5.8137682    2.2873534   -0.4231603  0.00   -0.0008308   -0.0000942   -0.0001164
n    -3.8712952    0.4071806   -0.3542694  0.00   -0.0060530    0.0036433    0.0163472
h    -4.1547224    1.6018560    1.3672350  0.00   -0.0003719   -0.0000667    0.0011733
h    -4.4283558    0.4274984   -1.2502746  0.00   -0.0082349    0.0011397   -0.0100335
h    -2.9039047    0.0788386   -0.6372360  0.00    0.0145037   -0.0052239   -0.0061450
o    -1.5334568    2.2314971   -0.6543511  0.00    0.0001814   -0.0001661   -0.0002763
o    -2.0257297    2.9877687    1.5677983  0.00    0.0073245   -0.0118170    0.0072236
h    -2.4758774    3.9012138    1.5848660  0.00   -0.0062712    0.0148079   -0.0007428
    13
 Energy =       0.0756484948
c    -3.8286038    1.7343064    0.3070066  0.00   -0.0004454    0.0002752   -0.0016018
c    -2.4188985    2.3088977    0.4281042  0.00   -0.0004862   -0.0017687   -0.0047731
c    -4.7770790    2.7102225   -0.4146846  0.00    0.0002677   -0.0003214    0.0003605
h    -4.4286115    2.8842350   -1.4588955  0.00    0.0003486   -0.0000955   -0.0008918
h    -4.8147561    3.6881756    0.1122435  0.00    0.0000700   -0.0000536    0.0001383
h    -5.8082671    2.2935093   -0.4461041  0.00   -0.0007891   -0.0000868   -0.0001001
n    -3.8708515    0.4061938   -0.3495992  0.00   -0.0054299    0.0032461    0.0147515
h    -4.1708639    1.6089802    1.3635558  0.00   -0.0003622   -0.0000690    0.0011431
h    -4.4326427    0.4189996   -1.2419150  0.00   -0.0074428    0.0010204   -0.0091007
h    -2.9038024    0.0827533   -0.6357863  0.00    0.0130813   -0.0047131   -0.0055262
o    -1.5307001    2.2356789   -0.6369208  0.00    0.0002000   -0.0001536   -0.0002973
o    -2.0361902    2.9796266    1.5859824  0.00    0.0066956   -0.0106690    0.0065819
h    -2.4775496    3.8964185    1.5996619  0.00   -0.0057076    0.0133890   -0.0006844
    13
 Energy =       0.0756255855
c    -3.8533638    1.7466782    0.3043959  0.00    0.0011363   -0.0015022   -0.0005596
c    -2.4421266    2.2989299    0.5052171  0.00    0.0003307   -0.0012776   -0.0011854
c    -4.7309166    2.7213967   -0.5125922  0.00   -0.0027947    0.0023390    0.0002485
h    -4.3134133    2.8460964   -1.5413375  0.00    0.0013839    0.0004909   -0.0035406
h    -4.7727563    3.7210182   -0.0259382  0.00   -0.0005655    0.0010162    0.0003740
h    -5.7716040    2.3334872   -0.5904928  0.00   -0.0018193   -0.0000320    0.0000925
n    -3.8705347    0.4005733   -0.3177394  0.00   -0.0001240   -0.0006887    0.0046685
h    -4.2717727    1.6573663    1.3396091  0.00   -0.0014282   -0.0002774    0.0036193
h    -4.4616920    0.3650192   -1.1855924  0.00   -0.0028671   -0.0001773   -0.0046441
h    -2.9071928    0.1065982   -0.6238229  0.00    0.0036749   -0.0013308   -0.0009337
o    -1.5140577    2.2580723   -0.5285929  0.00    0.0014764   -0.0001146   -0.0017931
o    -2.1007685    2.9287744    1.6966541  0.00    0.0049076   -0.0033651    0.0044333
h    -2.4886173    3.8639869    1.6928809  0.00   -0.0033111    0.0049196   -0.0007795
    13
 Energy =       0.0755652515
c    -3.8530122    1.7512007    0.3032794  0.00   -0.0002613    0.0003612    0.0000834
c    -2.4420938    2.3009291    0.4927181  0.00   -0.0001518    0.0003347    0.0003233
c    -4.7305528    2.7224513   -0.5070584  0.00    0.0005613   -0.0004646   -0.0000711
h    -4.3174208    2.8487284   -1.5327884  0.00   -0.0002581   -0.0001095    0.0007090
h    -4.7712860    3.7203440   -0.0194434  0.00    0.0001142   -0.0002031   -0.0000760
h    -5.7681639    2.3314338   -0.5844957  0.00    0.0003608    0.0000070   -0.0000197
n    -3.8797317    0.4042175   -0.3139408  0.00   -0.0001539    0.0001555   -0.0003340
h    -4.2633176    1.6659552    1.3374259  0.00    0.0002485    0.0000504   -0.0007064
h    -4.4483614    0.3752335   -1.1928207  0.00    0.0001117    0.0000538    0.0005937
h    -2.9170980    0.0928608   -0.5958636  0.00   -0.0000825    0.0001278   -0.0000985
o    -1.5170525    2.2426541   -0.5409325  0.00   -0.0001603    0.0000511    0.0002171
o    -2.0928318    2.9341987    1.6768675  0.00   -0.0008625    0.0000387   -0.0005744
h    -2.4978939    3.8577900    1.6897016  0.00    0.0005339   -0.0004031   -0.0000464
    13
 Energy =       0.0755647048
c    -3.8527387    1.7500737    0.3034363  0.00    0.0003865   -0.0004773   -0.0001356
c    -2.4436260    2.3050257    0.4988028  0.00    0.0000447   -0.0004938   -0.0003544
c    -4.7310337    2.7186785   -0.5137906  0.00   -0.0008574    0.0007071    0.0000974
h    -4.3157463    2.8408000   -1.5410755  0.00    0.0003948    0.0001566   -0.0010737
h    -4.7732148    3.7191819   -0.0304752  0.00   -0.0001717    0.0003174    0.0001175
h    -5.7695827    2.3278920   -0.5902909  0.00   -0.0005411   -0.0000116    0.0000304
n    -3.8698357    0.4022250   -0.3130664  0.00   -0.0000189   -0.0001918    0.0012015
h    -4.2682001    1.6641645    1.3373521  0.00   -0.0003861   -0.0000698    0.0010677
h    -4.4610962    0.3618330   -1.1778578  0.00   -0.0006306   -0.0000516   -0.0014083
h    -2.9083582    0.1088700   -0.6193062  0.00    0.0008306   -0.0003641   -0.0000284
o    -1.5214018    2.2705030   -0.5392519  0.00    0.0004559   -0.0000919   -0.0006284
o    -2.0957809    2.9243252    1.6920176  0.00    0.0013678   -0.0001964    0.0010789
h    -2.4882013    3.8544246    1.7061546  0.00   -0.0008746    0.0007673    0.0000356
    13
 Energy =       0.0755575214
c    -3.8535537    1.7497981    0.3033432  0.00    0.0007358   -0.0008987   -0.0002659
c    -2.4449680    2.3055603    0.5043745  0.00    0.0000505   -0.0009363   -0.0006544
c    -4.7292778    2.7179842   -0.5196032  0.00   -0.0016383    0.0013512    0.0001807
h    -4.3108019    2.8367709   -1.5470362  0.00    0.0007573    0.0002952   -0.0020487
h    -4.7715510    3.7201687   -0.0391154  0.00   -0.0003276    0.0006087    0.0002241
h    -5.7688116    2.3289244   -0.5972821  0.00   -0.0010310   -0.0000213    0.0000578
n    -3.8662646    0.4013049   -0.3123364  0.00   -0.0000821   -0.0003537    0.0024678
h    -4.2738554    1.6644994    1.3363870  0.00   -0.0007423   -0.0001305    0.0020377
h    -4.4691301    0.3549690   -1.1698612  0.00   -0.0013284   -0.0001010   -0.0028061
h    -2.9055491    0.1166765   -0.6309133  0.00    0.0017536   -0.0007273   -0.0001093
o    -1.5222921    2.2819174   -0.5341923  0.00    0.0009078   -0.0001751   -0.0012564
o    -2.0993426    2.9175845    1.7027487  0.00    0.0026355   -0.0004392    0.0021216
h    -2.4834185    3.8518390    1.7161356  0.00   -0.0016909    0.0015281    0.0000510
    13
 Energy =       0.0754914618
c    -3.8487233    1.7520464    0.3042718  0.00   -0.0010400    0.0015446    0.0000446
c    -2.4371643    2.3054709    0.4692458  0.00   -0.0009616    0.0016081    0.0014981
c    -4.7425195    2.7203206   -0.4863723  0.00    0.0021430   -0.0017183   -0.0003872
h    -4.3439371    2.8571786   -1.5143062  0.00   -0.0008942   -0.0004960    0.0027747
h    -4.7851223    3.7137885    0.0087212  0.00    0.0004391   -0.0007560   -0.0003201
h    -5.7761903    2.3196891   -0.5547747  0.00    0.0014118    0.0000528   -0.0000870
n    -3.8856179    0.4059214   -0.3137994  0.00   -0.0022097    0.0011502    0.0028100
h    -4.2396192    1.6645128    1.3436586  0.00    0.0008186    0.0002412   -0.0026967
h    -4.4194558    0.3931616   -1.2163429  0.00   -0.0021776    0.0003025   -0.0007982
h    -2.9182916    0.0695167   -0.5573073  0.00    0.0037781   -0.0006418   -0.0013705
o    -1.5214063    2.2258212   -0.5711089  0.00   -0.0002190    0.0001887    0.0002296
o    -2.0747682    2.9545872    1.6398766  0.00   -0.0025265   -0.0013624   -0.0010860
h    -2.5060005    3.8659823    1.6608867  0.00    0.0014382   -0.0001136   -0.0006113
    13
 Energy =       0.0753651986
c    -3.8651787    1.7579184    0.3001332  0.00   -0.0017974    0.0024989    0.0001378
c    -2.4450001    2.2787902    0.4932541  0.00   -0.0025930    0.0028271    0.0038030
c    -4.7191607    2.7439219   -0.5094451  0.00    0.0033181   -0.0021505   -0.0004905
h    -4.2896670    2.8794517   -1.5238026  0.00   -0.0012956   -0.0006587    0.0039047
h    -4.7592367    3.7350316   -0.0105042  0.00    0.0007151   -0.0011839   -0.0005076
h    -5.7562056    2.3593695   -0.6102653  0.00    0.0016541   -0.0001224   -0.0001736
n    -3.9231520    0.4116030   -0.3156447  0.00   -0.0073012    0.0028556    0.0113794
h    -4.2794487    1.6820893    1.3300442  0.00    0.0011534    0.0002051   -0.0039803
h    -4.3815886    0.4267866   -1.2639523  0.00   -0.0067823    0.0014078   -0.0073759
h    -2.9520888    0.0232991   -0.4785622  0.00    0.0130156   -0.0035583   -0.0026538
o    -1.4984759    2.1449864   -0.5156561  0.00    0.0018180    0.0000965   -0.0017794
o    -2.1006320    2.9458983    1.6586419  0.00   -0.0040285   -0.0023592   -0.0012833
h    -2.5289816    3.8588512    1.6584080  0.00    0.0021237    0.0001421   -0.0009805
    13
 Energy =       0.0753449787
c    -3.8760479    1.7577369    0.2945379  0.00   -0.0014879    0.0017924    0.0001220
c    -2.4616473    2.2774156    0.5351824  0.00   -0.0022559    0.0021445    0.0031662
c    -4.7015744    2.7438206   -0.5470078  0.00    0.0024462   -0.0015164   -0.0002623
h    -4.2344297    2.8795078   -1.5462651  0.00   -0.0007023   -0.0004656    0.0023993
h    -4.7606675    3.7351542   -0.0495420  0.00    0.0005443   -0.0008233   -0.0002441
h    -5.7352017    2.3591767   -0.6856659  0.00    0.0006411   -0.0002336   -0.0002796
n    -3.9137728    0.4105911   -0.3214639  0.00   -0.0062398    0.0024128    0.0100036
h    -4.3263051    1.6840864    1.3109789  0.00    0.0006163    0.0001620   -0.0025325
h    -4.3379803    0.4246914   -1.2849896  0.00   -0.0059321    0.0010916   -0.0068947
h    -2.9393228    0.0210533   -0.4505883  0.00    0.0112716   -0.0031609   -0.0023069
o    -1.4827044    2.1449851   -0.4430939  0.00    0.0023551   -0.0000176   -0.0022933
o    -2.1559623    2.9457341    1.7116956  0.00   -0.0026599   -0.0019719    0.0001002
h    -2.5732004    3.8640439    1.6888705  0.00    0.0014032    0.0005858   -0.0009780
    13
 Energy =       0.0753597795
c    -3.8850361    1.7585797    0.2881551  0.00   -0.0014028    0.0014406    0.0001611
c    -2.4659625    2.2546614    0.5524443  0.00   -0.0019375    0.0019485    0.0027015
c    -4.6844236    2.7653713   -0.5553784  0.00    0.0021997   -0.0011202   -0.0003509
h    -4.2021640    2.9026521   -1.5476233  0.00   -0.0005896   -0.0003509    0.0020301
h    -4.7342099    3.7533106   -0.0498363  0.00    0.0005015   -0.0006511   -0.0002075
h    -5.7224821    2.3985096   -0.7105554  0.00    0.0003035   -0.0003077   -0.0003001
n    -3.9342783    0.4178179   -0.3411495  0.00   -0.0057148    0.0019642    0.0091082
h    -4.3501298    1.6819765    1.2980764  0.00    0.0004948    0.0000492   -0.0021618
h    -4.3510116    0.4453913   -1.3071865  0.00   -0.0054377    0.0009640   -0.0063840
h    -2.9641761    0.0181533   -0.4667270  0.00    0.0102486   -0.0028937   -0.0020802
o    -1.4787616    2.1245818   -0.4176196  0.00    0.0022162    0.0000025   -0.0021078
o    -2.1634989    2.9001376    1.7428567  0.00   -0.0019748   -0.0019078    0.0005276
h    -2.5626819    3.8268541    1.7271924  0.00    0.0010929    0.0008625   -0.0009361
    13
 Energy =       0.0753791078
c    -3.8920780    1.7626684    0.2870736  0.00   -0.0012724    0.0011924    0.0001550
c    -2.4705876    2.2442600    0.5655060  0.00   -0.0017071    0.0017585    0.0024680
c    -4.6700811    2.7741954   -0.5716208  0.00    0.0018953   -0.0008502   -0.0003155
h    -4.1753029    2.8991429   -1.5597183  0.00   -0.0004489   -0.0002827    0.0016929
h    -4.7130620    3.7660809   -0.0729557  0.00    0.0004245   -0.0005238   -0.0001846
h    -5.7111078    2.4194231   -0.7355019  0.00    0.0001584   -0.0002942   -0.0002688
n    -3.9483224    0.4190930   -0.3357814  0.00   -0.0051649    0.0017137    0.0082465
h    -4.3701899    1.6966381    1.2920270  0.00    0.0003583    0.0000070   -0.0018232
h    -4.3598778    0.4445087   -1.3035733  0.00   -0.0049041    0.0008502   -0.0057779