    24
 Energy =       0.1830645086
c     1.6703672    2.6182922    0.2614132  0.00    0.0452340    0.0677295    0.0349495
c     0.3248649    2.9356558    0.1418766  0.00   -0.0081417    0.1015509    0.0374883
c    -0.5827484    1.9945952   -0.3219261  0.00   -0.0873953    0.0434874   -0.0021951
c     2.1038063    1.3347474   -0.0833024  0.00    0.0666667   -0.0111361    0.0077856
c     1.2047783    0.3610782   -0.5608861  0.00    0.0176457   -0.0974543   -0.0243644
c    -0.1441045    0.7159142   -0.6796715  0.00   -0.0301910   -0.0503435   -0.0236674
o    -0.1504797    4.1703171    0.4675790  0.00   -0.0617556   -0.0486284    0.0202558
h    -0.7850651    4.0755150    1.1967033  0.00    0.0570011   -0.0064020   -0.0490017
h    -0.8895274    0.0262790   -1.0546636  0.00   -0.0059856    0.0032300    0.0000426
h     3.1621727    1.0964802    0.0165124  0.00    0.0029132   -0.0000856   -0.0005972
h     2.3926004    3.3457758    0.6178375  0.00    0.0097527   -0.0074051   -0.0008002
h    -1.6336796    2.2563998   -0.4108671  0.00   -0.0024546   -0.0008734    0.0017206
c     1.7669373   -1.0073413   -0.8964724  0.00   -0.0077867   -0.0233955    0.0361844
c     0.8861134   -2.0194266   -1.6556448  0.00    0.0994593    0.0103732   -0.0451109
h     2.1212937   -1.4658931    0.0371405  0.00   -0.0042646    0.0073519   -0.0129201
h     2.6645729   -0.8285312   -1.5058794  0.00   -0.0088622    0.0051738    0.0114336
c    -0.2550706   -2.4993401   -0.7313897  0.00   -0.0672575   -0.0324270    0.3468933
o    -0.1765299   -2.6781136    0.4736491  0.00   -0.0161844    0.0375572   -0.2889630
o    -1.3862936   -2.7453732   -1.4466837  0.00    0.1623273    0.1648691   -0.2658790
h    -2.0980363   -2.2244565   -0.9952926  0.00    0.0410103    0.0049125   -0.0205793
n     0.2410616   -1.4915667   -2.9017470  0.00   -0.1145020   -0.0673171   -0.0394810
h     1.4642165   -2.9122299   -1.9206526  0.00   -0.0165444    0.0178872   -0.0115711
h     0.7142380   -1.9162587   -3.7076332  0.00   -0.0158515    0.0070915    0.0299128
h    -0.7141630   -1.8528277   -2.9524509  0.00   -0.0548331   -0.1257461    0.2584639
    24
 Energy =       0.1641633084
c     1.6925948    2.5803546    0.2776147  0.00    0.0382281    0.0572629    0.0295137
c     0.3542596    2.9074635    0.1739726  0.00   -0.0068255    0.0854517    0.0312726
c    -0.5583327    1.9816686   -0.2933839  0.00   -0.0739158    0.0367301   -0.0020064
c     2.1151616    1.3035009   -0.0804417  0.00    0.0564063   -0.0093654    0.0066761
c     1.2099496    0.3460835   -0.5591264  0.00    0.0148637   -0.0822380   -0.0203638
c    -0.1323540    0.7098927   -0.6647416  0.00   -0.0254771   -0.0426343   -0.0199927
o    -0.1034960    4.1448330    0.5319858  0.00   -0.0523874   -0.0405077    0.0170859
h    -0.7284483    4.0482279    1.2783379  0.00    0.0481517   -0.0053920   -0.0409910
h    -0.8832842    0.0299797   -1.0425320  0.00   -0.0053284    0.0023146   -0.0000773
h     3.1722732    1.0573007    0.0099375  0.00    0.0025453   -0.0000830   -0.0004881
h     2.4175159    3.3021917    0.6400523  0.00    0.0082357   -0.0061982   -0.0006430
h    -1.6076416    2.2522983   -0.3721264  0.00   -0.0021688   -0.0007121    0.0014403
c     1.7576547   -1.0239861   -0.9228761  0.00   -0.0065689   -0.0196971    0.0305682
c     0.8522296   -2.0189729   -1.6799133  0.00    0.0841552    0.0081378   -0.0373175
h     2.1262075   -1.5004266   -0.0008858  0.00   -0.0034328    0.0060900   -0.0106789
h     2.6448909   -0.8458087   -1.5510239  0.00   -0.0073529    0.0043217    0.0094708
c    -0.2793073   -2.5107690   -0.7586145  0.00   -0.0561120   -0.0271769    0.2938220
o    -0.1780320   -2.6842669    0.4712828  0.00   -0.0135507    0.0321777   -0.2440234
o    -1.4397039   -2.7253714   -1.4468696  0.00    0.1515202    0.1256307   -0.2384415
h    -2.0970976   -2.0657034   -1.0579049  0.00    0.0214392    0.0196320   -0.0084320
n     0.2101495   -1.4487277   -2.9029462  0.00   -0.0979394   -0.0560765   -0.0324697
h     1.4213161   -2.9141294   -1.9701088  0.00   -0.0137925    0.0147090   -0.0098429
h     0.6872539   -1.8319249   -3.7321697  0.00   -0.0126837    0.0055692    0.0236524
h    -0.7524338   -1.8040166   -2.9599702  0.00   -0.0480095   -0.1079461    0.2222661
    24
 Energy =       0.1491512922
c     1.6893564    2.5797964    0.2621908  0.00    0.0347488    0.0520529    0.0268638
c     0.3530376    2.9037740    0.1628693  0.00   -0.0062067    0.0775927    0.0284728
c    -0.5583835    1.9747690   -0.2923123  0.00   -0.0672324    0.0333665   -0.0018397
c     2.1131466    1.3059441   -0.0913699  0.00    0.0512909   -0.0085255    0.0060901
c     1.2102456    0.3476002   -0.5618813  0.00    0.0135317   -0.0747753   -0.0185472
c    -0.1327444    0.7046945   -0.6589095  0.00   -0.0232050   -0.0387654   -0.0182326
o    -0.1000717    4.1484111    0.5097077  0.00   -0.0473638   -0.0366956    0.0151230
h    -0.7152684    4.0676751    1.2704664  0.00    0.0435552   -0.0049096   -0.0368848
h    -0.8851298    0.0184798   -1.0270397  0.00   -0.0052418    0.0014420   -0.0002171
h     3.1713147    1.0633721   -0.0055553  0.00    0.0023335   -0.0000756   -0.0004396
h     2.4126171    3.3074221    0.6161092  0.00    0.0075236   -0.0056006   -0.0005678
h    -1.6082277    2.2434431   -0.3680894  0.00   -0.0019791   -0.0006476    0.0013039
c     1.7614041   -1.0218263   -0.9262241  0.00   -0.0059761   -0.0178729    0.0277967
c     0.8541421   -2.0108699   -1.6880476  0.00    0.0765786    0.0067484   -0.0337604
h     2.1267533   -1.5013921   -0.0033603  0.00   -0.0031170    0.0055349   -0.0097014
h     2.6505134   -0.8446242   -1.5535995  0.00   -0.0066846    0.0039357    0.0086093
c    -0.2755488   -2.5062197   -0.7728435  0.00   -0.0514595   -0.0245264    0.2679611
o    -0.1678248   -2.6875168    0.4693197  0.00   -0.0126935    0.0299355   -0.2218201
o    -1.4447300   -2.7112280   -1.4533447  0.00    0.1713518    0.0917164   -0.2459580
h    -2.1645925   -2.2163376   -0.8991517  0.00   -0.0114950    0.0411905    0.0184190
n     0.2175208   -1.4195836   -2.9006455  0.00   -0.0896224   -0.0501631   -0.0281862
h     1.4212396   -2.9056691   -1.9881764  0.00   -0.0125225    0.0132868   -0.0089513
h     0.7151218   -1.7620480   -3.7382983  0.00   -0.0107125    0.0046475    0.0200711
h    -0.7425660   -1.7883749   -2.9742655  0.00   -0.0454023   -0.0988925    0.2043955
    24
 Energy =       0.1227824024
c     1.6832163    2.5597432    0.2857498  0.00    0.0253604    0.0379233    0.0193575
c     0.3517140    2.8778752    0.2120714  0.00   -0.0035616    0.0548490    0.0190954
c    -0.5520231    1.9631275   -0.2649307  0.00   -0.0489905    0.0242618   -0.0018151
c     2.1095038    1.3043942   -0.0980307  0.00    0.0376061   -0.0066579    0.0045035
c     1.2118394    0.3593580   -0.5782505  0.00    0.0097160   -0.0547767   -0.0131705
c    -0.1267274    0.7112249   -0.6617272  0.00   -0.0168339   -0.0287857   -0.0132248
o    -0.1021937    4.1068360    0.6370867  0.00   -0.0345305   -0.0229278    0.0099412
h    -0.6877450    3.9819246    1.4292195  0.00    0.0304089   -0.0042724   -0.0238898
h    -0.8771854    0.0296183   -1.0419730  0.00   -0.0039484    0.0007316   -0.0002146
h     3.1685531    1.0639541   -0.0227507  0.00    0.0017626   -0.0001239   -0.0003207
h     2.3989880    3.2839323    0.6615003  0.00    0.0055301   -0.0037967   -0.0002507
h    -1.6034349    2.2291446   -0.3233386  0.00   -0.0015967   -0.0003057    0.0009741
c     1.7653042   -1.0029815   -0.9751489  0.00   -0.0045662   -0.0131866    0.0201171
c     0.8425548   -1.9874578   -1.7245711  0.00    0.0558987    0.0045943   -0.0242978
h     2.1546004   -1.4955545   -0.0651062  0.00   -0.0020711    0.0038199   -0.0067830
h     2.6381412   -0.8154082   -1.6270476  0.00   -0.0046101    0.0029008    0.0059027
c    -0.2829863   -2.4872094   -0.8188753  0.00   -0.0378248   -0.0174858    0.1955166
o    -0.1560384   -2.6743879    0.4560803  0.00   -0.0085909    0.0219755   -0.1619634
o    -1.4696230   -2.6991660   -1.4797289  0.00    0.1378594    0.0653675   -0.1955705
h    -2.2080406   -2.3181412   -0.8624699  0.00   -0.0178339    0.0361310    0.0209578
n     0.2282769   -1.3751236   -2.9308963  0.00   -0.0659858   -0.0366688   -0.0197188
h     1.4092648   -2.8869064   -2.0251171  0.00   -0.0091885    0.0096592   -0.0065352
h     0.7429364   -1.6939014   -3.7725574  0.00   -0.0074630    0.0033982    0.0140738
h    -0.7375700   -1.7452037   -3.0216393  0.00   -0.0365463   -0.0766241    0.1573151
    24
 Energy =       0.1026869381
c     1.7085651    2.5629027    0.2220813  0.00    0.0169898    0.0257198    0.0134152
c     0.3859086    2.8908950    0.1618409  0.00   -0.0022559    0.0352063    0.0130574
c    -0.5296409    1.9744593   -0.2699179  0.00   -0.0335229    0.0157349   -0.0013742
c     2.1187968    1.3042624   -0.1401964  0.00    0.0256553   -0.0043180    0.0032572
c     1.2107412    0.3634163   -0.5855252  0.00    0.0066172   -0.0367756   -0.0091911
c    -0.1228520    0.7174863   -0.6453590  0.00   -0.0114408   -0.0198001   -0.0094106
o    -0.0368077    4.1524216    0.5389562  0.00   -0.0190209   -0.0124213   -0.0008554
h    -0.5686784    4.0934452    1.3898000  0.00    0.0164079   -0.0032564   -0.0083265
h    -0.8838325    0.0287772   -0.9919552  0.00   -0.0032051   -0.0001100   -0.0003857
h     3.1770680    1.0583694   -0.0776095  0.00    0.0013273   -0.0000023   -0.0001539
h     2.4326879    3.2964533    0.5633808  0.00    0.0041285   -0.0020151    0.0000642
h    -1.5787961    2.2496264   -0.3192796  0.00   -0.0011905   -0.0002145    0.0006432
c     1.7443587   -1.0153741   -0.9588943  0.00   -0.0034227   -0.0091757    0.0135417
c     0.8040587   -1.9910063   -1.6997728  0.00    0.0377636    0.0027442   -0.0161419
h     2.1168203   -1.5028178   -0.0359211  0.00   -0.0014071    0.0023961   -0.0043973
h     2.6268063   -0.8592190   -1.6103924  0.00   -0.0027183    0.0019593    0.0036949
c    -0.3146066   -2.4957914   -0.7981229  0.00   -0.0255705   -0.0111017    0.1316015
o    -0.1660018   -2.6906267    0.5048075  0.00   -0.0051093    0.0147599   -0.1091796
o    -1.5145128   -2.7300063   -1.4367903  0.00    0.1076445    0.0438393   -0.1497614
h    -2.2622517   -2.4768943   -0.7669911  0.00   -0.0229200    0.0293315    0.0231459
n     0.2067733   -1.3593290   -2.8995075  0.00   -0.0451047   -0.0246032   -0.0122284
h     1.3681870   -2.8954040   -2.0024080  0.00   -0.0062231    0.0064673   -0.0044022
h     0.7404781   -1.6509325   -3.7435973  0.00   -0.0045524    0.0022507    0.0087579
h    -0.7619441   -1.7354223   -3.0110776  0.00   -0.0288698   -0.0566153    0.1146290
    24
 Energy =       0.0882545851
c     1.7238894    2.5561471    0.1984462  0.00    0.0100501    0.0151800    0.0079267
c     0.4076374    2.8898939    0.1576604  0.00   -0.0016666    0.0205294    0.0078437
c    -0.5139737    1.9812918   -0.2581453  0.00   -0.0199079    0.0092982   -0.0008075
c     2.1229297    1.3019121   -0.1672145  0.00    0.0152278   -0.0024541    0.0021003
c     1.2077287    0.3703788   -0.5960979  0.00    0.0040410   -0.0216386   -0.0054084
c    -0.1208086    0.7274597   -0.6348689  0.00   -0.0067900   -0.0116685   -0.0056516
o     0.0008114    4.1581772    0.5410033  0.00   -0.0055371   -0.0061905   -0.0136891
h    -0.4265881    4.1203937    1.4637008  0.00    0.0042655   -0.0029201    0.0080102
h    -0.8884974    0.0396016   -0.9669658  0.00   -0.0020521   -0.0002018   -0.0002818
h     3.1804948    1.0512159   -0.1185988  0.00    0.0009027    0.0000014   -0.0000602
h     2.4524383    3.2899144    0.5285676  0.00    0.0024916   -0.0011374    0.0000844
h    -1.5618347    2.2627007   -0.2930021  0.00   -0.0008352   -0.0000896    0.0003761
c     1.7267877   -1.0149523   -0.9707491  0.00   -0.0019953   -0.0053639    0.0080136
c     0.7692860   -1.9791940   -1.7064054  0.00    0.0223092    0.0012338   -0.0092085
h     2.0964164   -1.5068984   -0.0466337  0.00   -0.0008244    0.0013932   -0.0025883
h     2.6093082   -0.8729590   -1.6283183  0.00   -0.0015279    0.0011498    0.0021152
c    -0.3437835   -2.4917197   -0.8074466  0.00   -0.0150911   -0.0056894    0.0770097
o    -0.1735062   -2.6962551    0.5183139  0.00   -0.0024134    0.0085176   -0.0640926
o    -1.5561468   -2.7495880   -1.4216422  0.00    0.0794053    0.0271639   -0.1081411
h    -2.2971466   -2.6356474   -0.7087002  0.00   -0.0255621    0.0208091    0.0243117
n     0.1920367   -1.3264825   -2.9009919  0.00   -0.0268956   -0.0144594   -0.0064337
h     1.3309589   -2.8874259   -2.0124567  0.00   -0.0036735    0.0037572   -0.0025846
h     0.7423265   -1.5973242   -3.7448112  0.00   -0.0023809    0.0013237    0.0046593
h    -0.7794392   -1.7009492   -3.0370949  0.00   -0.0215400   -0.0385437    0.0764966
    24
 Energy =       0.0814059657
c     1.7407248    2.5326083    0.2216715  0.00    0.0066604    0.0101427    0.0050428
c     0.4314478    2.8824579    0.1748671  0.00   -0.0012698    0.0131947    0.0053986
c    -0.4953149    1.9922592   -0.2582929  0.00   -0.0131754    0.0059298   -0.0003750
c     2.1275173    1.2818245   -0.1575874  0.00    0.0100115   -0.0014803    0.0013881
c     1.2059331    0.3688540   -0.6020910  0.00    0.0025736   -0.0140837   -0.0034512
c    -0.1159076    0.7407246   -0.6444960  0.00   -0.0044734   -0.0077061   -0.0036480
o     0.0365462    4.1524428    0.5703218  0.00    0.0017790   -0.0027326   -0.0240843
h    -0.2678350    4.1330927    1.5499204  0.00   -0.0023293   -0.0030194    0.0200029
h    -0.8890359    0.0653275   -0.9886471  0.00   -0.0014675   -0.0002740   -0.0002466
h     3.1816931    1.0183634   -0.1062758  0.00    0.0006937    0.0000217   -0.0000207
h     2.4739276    3.2553921    0.5651098  0.00    0.0017229   -0.0005987    0.0001133
h    -1.5390992    2.2876669   -0.2972177  0.00   -0.0006651   -0.0000288    0.0002505
c     1.7111436   -1.0175519   -0.9947456  0.00   -0.0012188   -0.0034835    0.0051244
c     0.7358165   -1.9680989   -1.7260260  0.00    0.0145419    0.0004508   -0.0058563
h     2.0872091   -1.5208987   -0.0780431  0.00   -0.0004644    0.0008634   -0.0015890
h     2.5873665   -0.8778100   -1.6626216  0.00   -0.0009452    0.0007125    0.0012974
c    -0.3760694   -2.4768185   -0.8229487  0.00   -0.0099198   -0.0033767    0.0495742
o    -0.1869439   -2.6884609    0.5128897  0.00   -0.0012586    0.0054297   -0.0412658
o    -1.6008022   -2.7412880   -1.4136695  0.00    0.0584668    0.0185209   -0.0791590
h    -2.3213814   -2.7200217   -0.6772453  0.00   -0.0218448    0.0145960    0.0207664
n     0.1783633   -1.2997467   -2.9206519  0.00   -0.0167254   -0.0087235   -0.0036333
h     1.2895647   -2.8829126   -2.0322876  0.00   -0.0023581    0.0023700   -0.0016637
h     0.7162822   -1.5935667   -3.7666207  0.00   -0.0011649    0.0006229    0.0026517
h    -0.8098207   -1.6341481   -3.0577639  0.00   -0.0171693   -0.0273480    0.0533825
    24
 Energy =       0.0806994596
c     1.6952627    2.5398221    0.2601541  0.00    0.0064662    0.0099532    0.0049213
c     0.3808284    2.8701818    0.2161852  0.00   -0.0012425    0.0126755    0.0052332
c    -0.5318976    1.9706672   -0.2272158  0.00   -0.0128328    0.0058225   -0.0003401
c     2.1015185    1.2999405   -0.1340501  0.00    0.0097841   -0.0015325    0.0013191
c     1.1944234    0.3784779   -0.5901984  0.00    0.0025361   -0.0135658   -0.0033110
c    -0.1332741    0.7292962   -0.6269134  0.00   -0.0044198   -0.0074973   -0.0035525
o    -0.0341027    4.1299904    0.6247614  0.00    0.0016996   -0.0021349   -0.0234134
h    -0.3201526    4.1008287    1.6094094  0.00   -0.0023470   -0.0029820    0.0195734
h    -0.8954867    0.0446909   -0.9785901  0.00   -0.0015300   -0.0003467   -0.0003172
h     3.1598525    1.0525009   -0.0862196  0.00    0.0008156   -0.0000350   -0.0000202
h     2.4170506    3.2700122    0.6122163  0.00    0.0017322   -0.0004680    0.0001567
h    -1.5802040    2.2504310   -0.2631090  0.00   -0.0007753    0.0000341    0.0002447
c     1.7222021   -0.9933520   -1.0043899  0.00   -0.0011475   -0.0033973    0.0048424
c     0.7638051   -1.9454866   -1.7565211  0.00    0.0140846   -0.0002518   -0.0057754
h     2.1026783   -1.5068957   -0.0949882  0.00   -0.0004304    0.0007630   -0.0014486
h     2.5990743   -0.8289356   -1.6663087  0.00   -0.0006718    0.0007330    0.0010297
c    -0.3344235   -2.4997879   -0.8642136  0.00   -0.0090098   -0.0030361    0.0475454
o    -0.1382754   -2.7405470    0.4670490  0.00   -0.0015469    0.0049033   -0.0390186
o    -1.5484113   -2.7969079   -1.4625952  0.00    0.0556910    0.0174684   -0.0761505
h    -2.2710322   -2.8020618   -0.7288218  0.00   -0.0214552    0.0140213    0.0202691
n     0.1845371   -1.2597223   -2.9297939  0.00   -0.0141830    0.0014786    0.0088798
h     1.3339883   -2.8412094   -2.0903606  0.00   -0.0020086    0.0015750   -0.0017361
h     0.7941129   -1.4348136   -3.7714543  0.00    0.0086678   -0.0018432   -0.0091714
h    -0.7607488   -1.6974286   -3.1264831  0.00   -0.0278764   -0.0323373    0.0502403
    24
 Energy =       0.0740626027
c     1.6801716    2.4963152    0.3668259  0.00    0.0032401    0.0061493    0.0025895
c     0.3712986    2.8364425    0.3086655  0.00   -0.0000318    0.0060805    0.0027520
c    -0.5344450    1.9634799   -0.1926553  0.00   -0.0066008    0.0020373   -0.0004119
c     2.0876324    1.2754413   -0.0747890  0.00    0.0050580   -0.0002066    0.0008535
c     1.1865290    0.3815502   -0.5876243  0.00    0.0001678   -0.0063991   -0.0014582
c    -0.1362492    0.7395146   -0.6345540  0.00   -0.0022373   -0.0045522   -0.0018380
o    -0.0455365    4.0836328    0.7598481  0.00    0.0039698    0.0012469   -0.0193801
h    -0.2271860    4.0535859    1.7681625  0.00   -0.0038307   -0.0022767    0.0178648
h    -0.8946579    0.0736212   -1.0298492  0.00   -0.0013768   -0.0011401   -0.0006399
h     3.1436302    1.0209284   -0.0193132  0.00    0.0005230    0.0001659    0.0000900
h     2.3972356    3.2086673    0.7642703  0.00    0.0014609    0.0007663    0.0005461
h    -1.5798525    2.2515908   -0.2390072  0.00   -0.0005035   -0.0000870    0.0000514
c     1.7174276   -0.9704880   -1.0644171  0.00   -0.0011392   -0.0024125    0.0014584
c     0.7486340   -1.9031173   -1.8284531  0.00    0.0065167   -0.0004451   -0.0024757
h     2.1215673   -1.5154122   -0.1814396  0.00    0.0001725   -0.0002818    0.0001908
h     2.5788563   -0.7746040   -1.7399817  0.00    0.0001336    0.0002374   -0.0002251
c    -0.3349334   -2.4883702   -0.9350060  0.00   -0.0046725    0.0007767    0.0188858
o    -0.0956591   -2.7806000    0.3938751  0.00    0.0001117    0.0006765   -0.0147613
o    -1.5634285   -2.7988454   -1.5007351  0.00    0.0401417    0.0108184   -0.0534577
h    -2.2427864   -2.9523854   -0.7407509  0.00   -0.0225570    0.0054816    0.0229191
n     0.1781345   -1.1831342   -2.9853201  0.00   -0.0062443    0.0013958    0.0039686
h     1.3206224   -2.7905807   -2.1848236  0.00   -0.0007401    0.0004410   -0.0008995
h     0.7890958   -1.3345206   -3.8257787  0.00    0.0039399   -0.0009800   -0.0045342
h    -0.7647752   -1.6030206   -3.2096010  0.00   -0.0155017   -0.0174925    0.0279118
    24
 Energy =       0.0733963696
c     1.6870074    2.5134493    0.3344663  0.00    0.0030167    0.0059980    0.0025183
c     0.3819621    2.8636695    0.2541430  0.00   -0.0001699    0.0056673    0.0025855
c    -0.5251328    1.9888654   -0.2410241  0.00   -0.0063610    0.0022651   -0.0002678
c     2.0890097    1.2798339   -0.0761693  0.00    0.0048706   -0.0005003    0.0007035
c     1.1863328    0.3833381   -0.5809384  0.00    0.0001580   -0.0058097   -0.0013043
c    -0.1321918    0.7527867   -0.6534850  0.00   -0.0022206   -0.0043545   -0.0017478
o    -0.0291150    4.1229437    0.6774899  0.00    0.0035910    0.0017769   -0.0188383
h    -0.2400754    4.1069243    1.6802106  0.00   -0.0037195   -0.0021930    0.0175610
h    -0.8911558    0.0854878   -1.0448547  0.00   -0.0013062   -0.0010933   -0.0006131
h     3.1417086    1.0162895   -0.0003079  0.00    0.0007337   -0.0000072    0.0000637
h     2.4051717    3.2273729    0.7268353  0.00    0.0013578    0.0007493    0.0005218
h    -1.5674429    2.2850597   -0.3058804  0.00   -0.0006622    0.0000610    0.0000689
c     1.7091090   -0.9875345   -1.0127790  0.00   -0.0012196   -0.0025037    0.0009736
c     0.7449856   -1.9243176   -1.7781751  0.00    0.0067454   -0.0007061   -0.0023336
h     2.0826879   -1.5171486   -0.1064902  0.00    0.0004834   -0.0006804    0.0008023
h     2.5904186   -0.8209598   -1.6714185  0.00    0.0006794    0.0002096   -0.0007234
c    -0.3730761   -2.4744402   -0.9037373  0.00   -0.0029643    0.0034509    0.0078172
o    -0.2193060   -2.6218469    0.4730791  0.00    0.0045763   -0.0005879    0.0052084
o    -1.5539545   -2.8778347   -1.5235100  0.00    0.0322265    0.0083679   -0.0587424
h    -2.2653981   -3.0173263   -0.7907361  0.00   -0.0221661    0.0050651    0.0227723
n     0.2135452   -1.2247459   -2.9657448  0.00   -0.0061680    0.0030033    0.0044004
h     1.3131486   -2.8282631   -2.0995314  0.00   -0.0002451   -0.0001634   -0.0009576
h     0.8632763   -1.3742505   -3.7780945  0.00    0.0047978   -0.0011867   -0.0057007
h    -0.7101898   -1.6676613   -3.2257989  0.00   -0.0160342   -0.0168282    0.0252320
    24
 Energy =       0.0707809772
c     1.6858865    2.5061009    0.3523965  0.00    0.0017295    0.0034101    0.0014119
c     0.3783368    2.8496002    0.3020651  0.00   -0.0003463    0.0031188    0.0013479
c    -0.5310183    1.9790923   -0.1921661  0.00   -0.0036853    0.0016170   -0.0000945
c     2.0886511    1.2848822   -0.0890067  0.00    0.0028648   -0.0006515    0.0003148
c     1.1836207    0.3938002   -0.5940146  0.00    0.0002433   -0.0031820   -0.0006265
c    -0.1378366    0.7548102   -0.6341365  0.00   -0.0013964   -0.0024269   -0.0009709
o    -0.0321913    4.0998774    0.7534099  0.00    0.0018997    0.0013464   -0.0104154
h    -0.2233114    4.0716321    1.7550584  0.00   -0.0022482   -0.0011049    0.0098656
h    -0.8990459    0.0888777   -1.0219913  0.00   -0.0007598   -0.0005829   -0.0003170
h     3.1443041    1.0270775   -0.0378737  0.00    0.0007124   -0.0001770    0.0000210
h     2.4056953    3.2174149    0.7447634  0.00    0.0007401    0.0004133    0.0002869
h    -1.5761765    2.2696642   -0.2327191  0.00   -0.0006574    0.0002022    0.0000514
c     1.7080432   -0.9630264   -1.0648613  0.00   -0.0008105   -0.0016134    0.0004346
c     0.7297067   -1.8972397   -1.8160806  0.00    0.0045420   -0.0001366   -0.0006865
h     2.1137833   -1.5034942   -0.1787166  0.00    0.0005562   -0.0007022    0.0010368
h     2.5681580   -0.7761282   -1.7460059  0.00    0.0008740    0.0000962   -0.0008422
c    -0.3530136   -2.4800501   -0.9161623  0.00    0.0012733    0.0032143    0.0044043
o    -0.1749904   -2.5850377    0.4613680  0.00    0.0032654   -0.0004118    0.0044141
o    -1.5204305   -2.9671909   -1.5011111  0.00    0.0181239    0.0038966   -0.0374443
h    -2.1946299   -3.1760794   -0.7578420  0.00   -0.0163206    0.0022876    0.0149746
n     0.1630183   -1.1839431   -2.9794333  0.00   -0.0043434    0.0031908    0.0029584
h     1.3002991   -2.7889295   -2.1673469  0.00    0.0002493   -0.0004659   -0.0006311
h     0.8161008   -1.2797879   -3.7963823  0.00    0.0041370   -0.0009871   -0.0048072
h    -0.7416341   -1.6522312   -3.2556623  0.00   -0.0106431   -0.0103514    0.0153132
    24
 Energy =       0.0698167173
c     1.7364543    2.4743118    0.3714930  0.00    0.0014733    0.0027427    0.0011717
c     0.4360671    2.8444255    0.3280047  0.00   -0.0002810    0.0023251    0.0010029
c    -0.4941150    1.9902472   -0.1552225  0.00   -0.0030291    0.0012881   -0.0000769
c     2.1111238    1.2427895   -0.0652705  0.00    0.0024557   -0.0005756    0.0002573
c     1.1847676    0.3687190   -0.5606528  0.00   -0.0001539   -0.0020937   -0.0009380
c    -0.1291752    0.7559636   -0.5924202  0.00   -0.0012662   -0.0019569   -0.0007877
o     0.0545352    4.1054248    0.7760298  0.00    0.0012243    0.0015470   -0.0074293
h    -0.1332635    4.0858769    1.7768581  0.00   -0.0016541   -0.0008115    0.0072401
h    -0.9061594    0.1029733   -0.9708833  0.00   -0.0007985   -0.0004923   -0.0003887
h     3.1612522    0.9626714   -0.0169430  0.00    0.0007990   -0.0002289    0.0000147
h     2.4730364    3.1726916    0.7559952  0.00    0.0007167    0.0004842    0.0003078
h    -1.5335123    2.3017317   -0.1902263  0.00   -0.0007363    0.0002212    0.0000301
c     1.6729360   -1.0074142   -1.0150988  0.00   -0.0007786    0.0003268    0.0006934
c     0.6911705   -1.8845468   -1.8344070  0.00    0.0036327   -0.0023416    0.0007124
h     2.0059558   -1.5748519   -0.1127133  0.00    0.0015019   -0.0021186    0.0030942
h     2.5789663   -0.8546362   -1.6472520  0.00    0.0030401    0.0009583   -0.0018108
c    -0.4407967   -2.4689872   -0.9930555  0.00    0.0009622    0.0017995    0.0031277
o    -0.3221915   -2.6008899    0.3895142  0.00    0.0025481   -0.0006304    0.0059482
o    -1.5917369   -2.9307735   -1.6306775  0.00    0.0121384    0.0022823   -0.0299809
h    -2.2817251   -3.1752629   -0.9165951  0.00   -0.0130566    0.0013656    0.0123630
n     0.1904904   -1.1107895   -2.9915310  0.00   -0.0021362    0.0069575    0.0029634
h     1.2465523   -2.7810365   -2.1976593  0.00    0.0001631   -0.0008733   -0.0002280
h     0.8878356   -1.1656683   -3.7765577  0.00    0.0049916   -0.0005601   -0.0068649
h    -0.6971425   -1.5632779   -3.3431808  0.00   -0.0117565   -0.0096156    0.0095783
    24
 Energy =       0.0688733078
c     1.7724586    2.4569698    0.3738309  0.00    0.0019428    0.0014958    0.0007662
c     0.4708706    2.8273379    0.3870045  0.00   -0.0005885    0.0016081    0.0005839
c    -0.4793134    1.9758902   -0.0604731  0.00   -0.0027018    0.0007638   -0.0001935
c     2.1286733    1.2288405   -0.0855704  0.00    0.0023620   -0.0004519    0.0002727
c     1.1818404    0.3589341   -0.5478754  0.00    0.0009869   -0.0014917   -0.0007805
c    -0.1330563    0.7444852   -0.5184137  0.00   -0.0020478   -0.0008121   -0.0003848
o     0.1085781    4.0862324    0.8568617  0.00    0.0007487    0.0012540   -0.0058209
h    -0.0309566    4.0652031    1.8646705  0.00   -0.0013795   -0.0003896    0.0059208
h    -0.9251736    0.0912109   -0.8642682  0.00   -0.0012314   -0.0001523   -0.0002845
h     3.1803398    0.9482396   -0.0815978  0.00    0.0014549   -0.0003590    0.0000486
h     2.5247892    3.1530115    0.7314153  0.00    0.0009209    0.0004553    0.0003098
h    -1.5200985    2.2869070   -0.0490865  0.00   -0.0015204    0.0003616   -0.0000256
c     1.6453721   -1.0175963   -1.0244174  0.00   -0.0000645    0.0007004    0.0008088
c     0.6553393   -1.8498547   -1.8813335  0.00    0.0019336   -0.0024299    0.0019293
h     1.9526351   -1.6107995   -0.1309650  0.00    0.0010634   -0.0015068    0.0022477
h     2.5629444   -0.8739313   -1.6396738  0.00    0.0019194    0.0007974   -0.0010636
c    -0.4727345   -2.4759437   -1.0641255  0.00    0.0021539    0.0011259    0.0025320
o    -0.3834318   -2.5913974    0.3212629  0.00    0.0020474   -0.0002995    0.0040276
o    -1.5878231   -2.9937677   -1.7209192  0.00    0.0066399    0.0007961   -0.0198191
h    -2.2659498   -3.2979440   -1.0226435  0.00   -0.0097636    0.0000610    0.0086075
n     0.1547958   -1.0178847   -2.9975821  0.00   -0.0018065    0.0068755    0.0026081
h     1.2062011   -2.7298601   -2.2914073  0.00    0.0004416   -0.0016728   -0.0005146
h     0.8673280   -1.0069152   -3.7707448  0.00    0.0048867   -0.0002448   -0.0070137
h    -0.7123028   -1.4676764   -3.3963998  0.00   -0.0083982   -0.0064846    0.0052379
    24
 Energy =       0.0678859637
c     1.8561307    2.4307012    0.3292884  0.00    0.0011292    0.0008930    0.0005022
c     0.5664010    2.8349836    0.3769761  0.00   -0.0001095    0.0004443    0.0001370
c    -0.4176399    2.0056181   -0.0367182  0.00   -0.0014440    0.0001936   -0.0000962
c     2.1663699    1.1900769   -0.1285635  0.00    0.0014080   -0.0000167    0.0001986
c     1.1844076    0.3418830   -0.5558193  0.00    0.0001566   -0.0005843   -0.0004531
c    -0.1172988    0.7625194   -0.4941911  0.00   -0.0011211   -0.0007739   -0.0003552
o     0.2516566    4.1065136    0.8483078  0.00   -0.0001373    0.0015000   -0.0003370
h     0.1277965    4.0935589    1.8552782  0.00   -0.0002832   -0.0000109    0.0010008
h    -0.9350452    0.1269884   -0.8123289  0.00   -0.0008843   -0.0005655   -0.0003391
h     3.2094255    0.8813942   -0.1494156  0.00    0.0009904   -0.0001400    0.0000553
h     2.6358366    3.1096645    0.6602223  0.00    0.0007828    0.0006418    0.0003425
h    -1.4488465    2.3435471    0.0016344  0.00   -0.0010037    0.0001948    0.0000025
c     1.5934974   -1.0552846   -1.0215074  0.00    0.0000366   -0.0003613   -0.0000974
c     0.5711745   -1.8526348   -1.8723850  0.00    0.0000406   -0.0007045   -0.0001354
h     1.8736621   -1.6522713   -0.1242080  0.00    0.0003323   -0.0005495    0.0004401
h     2.5174221   -0.9565218   -1.6343952  0.00    0.0010953    0.0003029   -0.0006116
c    -0.5746143   -2.4390598   -1.0502911  0.00   -0.0000989    0.0000991   -0.0006112
o    -0.5063151   -2.5043398    0.3389508  0.00    0.0002879   -0.0003462    0.0023868
o    -1.6793004   -2.9815925   -1.6967346  0.00    0.0019020    0.0008962   -0.0042674
h    -2.3329833   -3.3224553   -1.0003820  0.00   -0.0024763   -0.0001847    0.0018287
n     0.0991923   -1.0086667   -2.9873039  0.00    0.0005297    0.0060991    0.0121180
h     1.0911053   -2.7500443   -2.2829942  0.00    0.0002968   -0.0008453   -0.0002126
h     0.8695086   -0.9148400   -3.7000474  0.00    0.0085970    0.0005459   -0.0083679
h    -0.7002179   -1.5000465   -3.4758240  0.00   -0.0100268   -0.0067278   -0.0031285
    24
 Energy =       0.0676540096
c     1.8895115    2.4498213    0.2470828  0.00    0.0002853    0.0008870    0.0004220
c     0.6059708    2.8708471    0.2951365  0.00    0.0002173    0.0001403    0.0000488