    27
 Energy =       0.3274527467
c    -1.4235396    2.6054793   -0.0667700  0.00   -0.0462308    0.0383026    0.0029651
c    -1.3072796    1.2134697   -0.1072300  0.00   -0.0852223   -0.0326350    0.0022187
c    -0.0178900    0.6711998   -0.1697000  0.00   -0.0889101   -0.1875722   -0.0019261
c    -0.2940599    3.4190890   -0.0891300  0.00   -0.0230996    0.0690632    0.0031566
c     0.9872197    2.8590292   -0.1560400  0.00    0.0104670    0.0643256    0.0013555
c     1.1340797    1.4562096   -0.1970299  0.00    0.0531071    0.0518765    0.0015630
n     0.3879399   -0.6395298   -0.2140799  0.00    0.1442989    0.1082840   -0.0000420
c     2.2666594    0.5727398   -0.2659299  0.00    0.1479741   -0.0619114   -0.0108194
c     1.7555995   -0.7123598   -0.2706899  0.00   -0.0874876   -0.0986457    0.0109592
h    -0.2400399   -1.4313496   -0.2047299  0.00    0.0360089    0.0480510   -0.0018351
c     3.7030089    1.0223397   -0.3320099  0.00   -0.0261234   -0.0177522    0.0151807
c     4.7465686   -0.0024900    0.1378100  0.00   -0.0650476   -0.1034782   -0.1192870
h     3.7978489    1.9290294    0.2803699  0.00   -0.0075819   -0.0093407   -0.0125688
h     3.9233889    1.3348996   -1.3618196  0.00   -0.0065593    0.0007019    0.0121374
c     4.2682788   -0.6309508    1.4598596  0.00   -0.0288320    0.1683581    0.3401744
n     6.1061283    0.5956748    0.3870399  0.00    0.0992013   -0.0223750    0.0643519
h     4.8578986   -0.8184518   -0.5859768  0.00   -0.0499661   -0.1327774    0.1256140
h     6.3010282    0.4926839    1.3882896  0.00   -0.0443737   -0.0246713   -0.0365505
h     6.7998681   -0.0124192   -0.0622002  0.00   -0.0295377    0.0143204    0.0173128
h    -2.4108593    3.0588691   -0.0157800  0.00   -0.0008300    0.0002622   -0.0001129
h    -2.1896094    0.5822398   -0.0890100  0.00   -0.0036391    0.0037980   -0.0001543
h    -0.4052699    4.5000487   -0.0535400  0.00    0.0008251    0.0002446    0.0001019
h     1.8590495    3.5066790   -0.1715100  0.00   -0.0005775    0.0026115    0.0003917
h     2.2327294   -1.6813195   -0.3062999  0.00   -0.0255582   -0.0125010    0.0082284
o     4.1136388   -0.0362250    2.5135593  0.00    0.0404913   -0.1419208   -0.2557062
o     4.0295989   -1.9621694    1.3133496  0.00    0.0212994    0.0364979   -0.0777059
h     4.2620088   -2.1617694    0.3695529  0.00    0.0659036    0.2388832   -0.0890029
    27
 Energy =       0.3084806004
c    -1.4350063    2.5511846   -0.0479430  0.00   -0.0419417    0.0348100    0.0026837
c    -1.3093387    1.1630858   -0.0920301  0.00   -0.0773929   -0.0296352    0.0020167
c    -0.0208997    0.6304387   -0.1540463  0.00   -0.0808477   -0.1700174   -0.0015722
c    -0.3126630    3.3706198   -0.0694493  0.00   -0.0209408    0.0627217    0.0028530
c     0.9683039    2.8196061   -0.1385502  0.00    0.0096111    0.0583829    0.0012075
c     1.1196747    1.4225220   -0.1805885  0.00    0.0480140    0.0472712    0.0013646
n     0.3900038   -0.6836167   -0.2196335  0.00    0.1308107    0.0980935   -0.0001915
c     2.2550122    0.5587462   -0.2594986  0.00    0.1340091   -0.0563834   -0.0097771
c     1.7644119   -0.7296593   -0.2771329  0.00   -0.0794912   -0.0891497    0.0100396
h    -0.2281343   -1.4874251   -0.2203576  0.00    0.0325810    0.0433770   -0.0017289
c     3.6845875    1.0280868   -0.3582529  0.00   -0.0241346   -0.0161579    0.0138051
c     4.7548177    0.0424306    0.1401874  0.00   -0.0607616   -0.0951437   -0.1076186
h     3.7748282    1.9627585    0.2158656  0.00   -0.0066079   -0.0075166   -0.0108560
h     3.8887975    1.3003012   -1.4048651  0.00   -0.0059928    0.0009654    0.0100015
c     4.2933297   -0.5948623    1.4608679  0.00   -0.0263799    0.1525554    0.3088281
n     6.0845420    0.7007059    0.3826293  0.00    0.0892974   -0.0172867    0.0597507
h     4.9062195   -0.7823432   -0.5699090  0.00   -0.0456656   -0.1219909    0.1140898
h     6.2965980    0.6102745    1.3837534  0.00   -0.0399402   -0.0223832   -0.0329153
h     6.8127543    0.1463339   -0.0897295  0.00   -0.0237861    0.0112906    0.0143187
h    -2.4253106    2.9979324    0.0033292  0.00   -0.0007773    0.0002542   -0.0001014
h    -2.1868075    0.5250394   -0.0792071  0.00   -0.0033452    0.0034226   -0.0001437
h    -0.4306909    4.4508500   -0.0326242  0.00    0.0007512    0.0002476    0.0000924
h     1.8363931    3.4720606   -0.1561949  0.00   -0.0004498    0.0023407    0.0003491
h     2.2674748   -1.6843808   -0.3387764  0.00   -0.0227934   -0.0119732    0.0074763
o     4.1403038    0.0090820    2.5276946  0.00    0.0367875   -0.1288155   -0.2321605
o     4.0655791   -1.9314665    1.3257192  0.00    0.0192822    0.0330094   -0.0703771
h     4.2892124   -2.1376589    0.3790971  0.00    0.0601044    0.2177115   -0.0814345
    27
 Energy =       0.2682979208
c    -1.4162771    2.5149986   -0.0363855  0.00   -0.0306443    0.0255007    0.0019120
c    -1.2900275    1.1357461   -0.0817568  0.00   -0.0568711   -0.0217610    0.0014018
c    -0.0143887    0.6059895   -0.1490552  0.00   -0.0591817   -0.1250404   -0.0015349
c    -0.2978309    3.3289893   -0.0616495  0.00   -0.0154445    0.0459862    0.0020627
c     0.9733102    2.7781379   -0.1358257  0.00    0.0071849    0.0428995    0.0008591
c     1.1120973    1.3928656   -0.1793406  0.00    0.0348492    0.0351552    0.0008660
n     0.3786062   -0.7238659   -0.2187762  0.00    0.0947043    0.0720530    0.0009830
c     2.2366843    0.5531076   -0.2712813  0.00    0.0988038   -0.0411053   -0.0069607
c     1.7665287   -0.7331585   -0.3143653  0.00   -0.0584942   -0.0643942    0.0069795
h    -0.2373711   -1.5398458   -0.2107088  0.00    0.0240010    0.0317758   -0.0011300
c     3.6672171    1.0299972   -0.3791128  0.00   -0.0184170   -0.0117504    0.0103398
c     4.7478511    0.0734317    0.1626608  0.00   -0.0471085   -0.0734414   -0.0779488
h     3.7527824    1.9860160    0.1670717  0.00   -0.0048781   -0.0049049   -0.0077070
h     3.8794696    1.2640206   -1.4367364  0.00   -0.0043772    0.0008199    0.0066121
c     4.2916962   -0.5827024    1.4680112  0.00   -0.0189865    0.1121641    0.2269259
n     6.0393205    0.7919636    0.3958203  0.00    0.0630613   -0.0092139    0.0456724
h     4.9376583   -0.7589630   -0.5353583  0.00   -0.0351051   -0.0949996    0.0875470
h     6.2800678    0.7162869    1.3979691  0.00   -0.0295537   -0.0167654   -0.0235264
h     6.8007149    0.3050870   -0.1139957  0.00   -0.0128216    0.0062851    0.0080722
h    -2.4061344    2.9619102    0.0194611  0.00   -0.0005813    0.0001896   -0.0000788
h    -2.1653466    0.4949774   -0.0655922  0.00   -0.0024601    0.0025121   -0.0001118
h    -0.4141318    4.4094194   -0.0241236  0.00    0.0005478    0.0001822    0.0000663
h     1.8436364    3.4270272   -0.1594315  0.00   -0.0001688    0.0016074    0.0002685
h     2.3074145   -1.6633925   -0.4258950  0.00   -0.0156665   -0.0102743    0.0052419
o     4.1377952    0.0416321    2.5701404  0.00    0.0272894   -0.0947333   -0.1709790
o     4.0559196   -1.9257788    1.3484611  0.00    0.0139443    0.0244709   -0.0513580
h     4.2767308   -2.1532509    0.4001497  0.00    0.0463742    0.1667823   -0.0644749
    27
 Energy =       0.2437917231
c    -1.3844928    2.5229962    0.0243509  0.00   -0.0218453    0.0175801    0.0012572
c    -1.2706895    1.1493948    0.0001579  0.00   -0.0401817   -0.0156661    0.0006178
c    -0.0117767    0.6096848   -0.0880971  0.00   -0.0405854   -0.0866550   -0.0030109
c    -0.2621703    3.3216698   -0.0392618  0.00   -0.0107481    0.0325035    0.0015552
c     0.9947138    2.7580262   -0.1352860  0.00    0.0053061    0.0303110    0.0007978
c     1.1103890    1.3801239   -0.1604892  0.00    0.0242021    0.0251664    0.0006861
n     0.3513056   -0.7383401   -0.1187863  0.00    0.0612109    0.0502867    0.0042610
c     2.2151204    0.5456508   -0.2799006  0.00    0.0691581   -0.0294317   -0.0040624
c     1.7441012   -0.7338918   -0.3148047  0.00   -0.0366951   -0.0433289    0.0026329
h    -0.2730808   -1.5560757   -0.0519557  0.00    0.0150425    0.0201928    0.0000581
c     3.6512311    1.0071503   -0.4446133  0.00   -0.0127756   -0.0089540    0.0077554
c     4.7445801    0.0779315    0.1329506  0.00   -0.0346672   -0.0543630   -0.0535884
h     3.7581559    1.9942961    0.0483120  0.00   -0.0028617   -0.0016195   -0.0044766
h     3.8460574    1.1778921   -1.5217388  0.00   -0.0027640    0.0009147    0.0024620
c     4.2970316   -0.6014373    1.4249669  0.00   -0.0125820    0.0787770    0.1590916
n     6.0025027    0.8454888    0.3575497  0.00    0.0421868   -0.0040583    0.0330889
h     4.9667196   -0.7575385   -0.5575996  0.00   -0.0256989   -0.0714134    0.0649357
h     6.2748822    0.7730657    1.3572309  0.00   -0.0208925   -0.0120873   -0.0157657
h     6.7805829    0.4172141   -0.1890578  0.00   -0.0055895    0.0031722    0.0036938
h    -2.3687557    2.9798532    0.0976862  0.00   -0.0006796    0.0001063   -0.0000513
h    -2.1493333    0.5141897    0.0543147  0.00   -0.0023371    0.0012799   -0.0000380
h    -0.3663594    4.4039500   -0.0165310  0.00    0.0004438    0.0003377    0.0000549
h     1.8715326    3.3964304   -0.1939620  0.00    0.0005571    0.0014750    0.0001623
h     2.2961031   -1.6499602   -0.4828911  0.00   -0.0095793   -0.0082498    0.0032352
o     4.1340139    0.0352591    2.5578562  0.00    0.0189560   -0.0665272   -0.1200163
o     4.0536332   -1.9503541    1.3139160  0.00    0.0096642    0.0175278   -0.0348183
h     4.2379956   -2.1920238    0.3560378  0.00    0.0337555    0.1227231   -0.0505179
    27
 Energy =       0.2428311917
c    -1.3806524    2.5163230    0.0760703  0.00   -0.0211404    0.0165438    0.0012221
c    -1.2691954    1.1430235    0.0811521  0.00   -0.0383075   -0.0153287    0.0005625
c    -0.0143873    0.5997800   -0.0232455  0.00   -0.0383656   -0.0816014   -0.0031464
c    -0.2589771    3.3111788   -0.0307712  0.00   -0.0097674    0.0312160    0.0014598
c     0.9937872    2.7435065   -0.1452183  0.00    0.0053535    0.0291162    0.0007521
c     1.1059449    1.3658404   -0.1425965  0.00    0.0230658    0.0241518    0.0006547
n     0.3449276   -0.7508919   -0.0131442  0.00    0.0558579    0.0472519    0.0047230
c     2.2043911    0.5282070   -0.2792016  0.00    0.0651447   -0.0284192   -0.0035367
c     1.7295896   -0.7504068   -0.2768780  0.00   -0.0330693   -0.0407078    0.0018787
h    -0.2778426   -1.5665589    0.1067974  0.00    0.0128176    0.0173585    0.0003993
c     3.6363260    0.9816076   -0.5140090  0.00   -0.0118572   -0.0092313    0.0078497
c     4.7538191    0.0936842    0.0909599  0.00   -0.0336313   -0.0523828   -0.0499563
h     3.7552085    2.0009196   -0.0880121  0.00   -0.0019464    0.0008768   -0.0031315
h     3.7992071    1.0857255   -1.6075543  0.00   -0.0023940    0.0013206   -0.0003834
c     4.3203220   -0.5908739    1.3849048  0.00   -0.0119092    0.0745498    0.1508148
n     5.9849387    0.9039222    0.3136545  0.00    0.0400187   -0.0025646    0.0319741
h     5.0115907   -0.7457722   -0.5849254  0.00   -0.0242791   -0.0683575    0.0612208
h     6.2687995    0.8348818    1.3109512  0.00   -0.0196772   -0.0114521   -0.0148278
h     6.7750686    0.5133896   -0.2458293  0.00   -0.0040377    0.0026184    0.0028650
h    -2.3624270    2.9763135    0.1628794  0.00   -0.0007957    0.0000441   -0.0000356
h    -2.1469583    0.5100140    0.1744810  0.00   -0.0028318    0.0006938    0.0000294
h    -0.3608223    4.3941309   -0.0295453  0.00    0.0005457    0.0005862    0.0000407
h     1.8694692    3.3797477   -0.2408090  0.00    0.0010881    0.0018517    0.0000824
h     2.2735925   -1.6682565   -0.4616129  0.00   -0.0089170   -0.0078660    0.0029366
o     4.1529907    0.0472379    2.5212189  0.00    0.0179200   -0.0630045   -0.1137006
o     4.0863259   -1.9428680    1.2769343  0.00    0.0091093    0.0165663   -0.0325050
h     4.2489568   -2.1831594    0.3137037  0.00    0.0320058    0.1161701   -0.0482424
    27
 Energy =       0.2439435680
c    -1.3795389    2.5063886    0.1206008  0.00   -0.0211590    0.0161787    0.0012413
c    -1.2677215    1.1336475    0.1565987  0.00   -0.0377923   -0.0155685    0.0005780
c    -0.0155752    0.5881240    0.0383743  0.00   -0.0375863   -0.0794944   -0.0032982
c    -0.2603271    3.2984482   -0.0286832  0.00   -0.0091573    0.0310597    0.0013829
c     0.9894517    2.7280855   -0.1593134  0.00    0.0055539    0.0290255    0.0006940
c     1.1015478    1.3506958   -0.1273894  0.00    0.0228211    0.0240157    0.0006103
n     0.3450327   -0.7620268    0.0923637  0.00    0.0531328    0.0458329    0.0051813
c     2.1952412    0.5093421   -0.2773650  0.00    0.0636392   -0.0282278   -0.0031904
c     1.7184471   -0.7684925   -0.2331977  0.00   -0.0311687   -0.0397997    0.0013148
h    -0.2728500   -1.5739985    0.2655505  0.00    0.0111552    0.0152319    0.0008166
c     3.6197433    0.9539911   -0.5800364  0.00   -0.0114919   -0.0097087    0.0081506
c     4.7625390    0.1114027    0.0502555  0.00   -0.0336930   -0.0522763   -0.0481817
h     3.7451328    2.0013722   -0.2233329  0.00   -0.0011662    0.0033340   -0.0021761
h     3.7514074    0.9913684   -1.6845306  0.00   -0.0022486    0.0016014   -0.0030390
c     4.3458088   -0.5739385    1.3493448  0.00   -0.0116614    0.0730701    0.1481269
n     5.9662716    0.9637032    0.2679405  0.00    0.0394848   -0.0013155    0.0319160
h     5.0551718   -0.7323091   -0.6086232  0.00   -0.0237654   -0.0677769    0.0597517
h     6.2611560    0.9009734    1.2625968  0.00   -0.0191547   -0.0112340   -0.0144330
h     6.7659973    0.6078900   -0.3023636  0.00   -0.0028948    0.0023166    0.0023062
h    -2.3593166    2.9684154    0.2190371  0.00   -0.0009013   -0.0000128   -0.0000197
h    -2.1428766    0.5027811    0.2886175  0.00   -0.0033716    0.0001603    0.0001214
h    -0.3620559    4.3814300   -0.0499871  0.00    0.0006594    0.0008607    0.0000179
h     1.8622275    3.3626959   -0.2905144  0.00    0.0015698    0.0022606   -0.0000084
h     2.2532302   -1.6903083   -0.4263195  0.00   -0.0087593   -0.0077389    0.0027776
o     4.1752928    0.0670670    2.4852041  0.00    0.0175624   -0.0618040   -0.1115784
o     4.1240307   -1.9288830    1.2465982  0.00    0.0088974    0.0161458   -0.0314575
h     4.2665250   -2.1672194    0.2789290  0.00    0.0314958    0.1138635   -0.0476054
    27
 Energy =       0.2414866448
c    -1.3786459    2.5178412    0.0830002  0.00   -0.0213547    0.0160563    0.0012633
c    -1.2693020    1.1441021    0.0874278  0.00   -0.0376513   -0.0159871    0.0005980
c    -0.0156465    0.5999134   -0.0194352  0.00   -0.0371817   -0.0780828   -0.0033607
c    -0.2556590    3.3121588   -0.0258942  0.00   -0.0086793    0.0312244    0.0013292
c     0.9961926    2.7435497   -0.1427504  0.00    0.0057773    0.0292732    0.0006485
c     1.1057977    1.3656016   -0.1404806  0.00    0.0228543    0.0241571    0.0005705
n     0.3393560   -0.7538132   -0.0127154  0.00    0.0513178    0.0447357    0.0054442
c     2.2029782    0.5282974   -0.2806214  0.00    0.0629338   -0.0281577   -0.0029990
c     1.7264244   -0.7506735   -0.2808257  0.00   -0.0298390   -0.0394018    0.0009573
h    -0.2862469   -1.5713156    0.1067974  0.00    0.0095979    0.0132272    0.0010970
c     3.6373169    0.9825084   -0.5194964  0.00   -0.0113078   -0.0101470    0.0083882
c     4.7549698    0.0936983    0.0900816  0.00   -0.0340299   -0.0526880   -0.0470844
h     3.7605481    2.0073474   -0.0955702  0.00   -0.0004996    0.0054664   -0.0012323
h     3.7985390    1.0830922   -1.6183647  0.00   -0.0021076    0.0020020   -0.0053501
c     4.3190692   -0.5944184    1.3815558  0.00   -0.0115448    0.0723992    0.1471085
n     5.9852233    0.9067378    0.3163334  0.00    0.0395034   -0.0002420    0.0320553
h     5.0157916   -0.7460172   -0.5864462  0.00   -0.0235968   -0.0678772    0.0590007
h     6.2687963    0.8358028    1.3140828  0.00   -0.0188356   -0.0111524   -0.0141713
h     6.7784351    0.5200674   -0.2438696  0.00   -0.0020183    0.0020873    0.0019278
h    -2.3599859    2.9786228    0.1717222  0.00   -0.0009864   -0.0000638   -0.0000101
h    -2.1484122    0.5108797    0.1818984  0.00   -0.0039009   -0.0003497    0.0001817
h    -0.3558202    4.3957327   -0.0244927  0.00    0.0007693    0.0011433    0.0000044
h     1.8730073    3.3796846   -0.2404983  0.00    0.0019943    0.0026513   -0.0000685
h     2.2707861   -1.6670516   -0.4718978  0.00   -0.0087899   -0.0077064    0.0026657
o     4.1517585    0.0421265    2.5210601  0.00    0.0174129   -0.0612916   -0.1106950
o     4.0830807   -1.9466101    1.2717659  0.00    0.0087577    0.0158532   -0.0307742
h     4.2456407   -2.1872192    0.3079880  0.00    0.0314047    0.1128709   -0.0474947
    27
 Energy =       0.2375298263
c    -1.3721172    2.5304253    0.0515477  0.00   -0.0206758    0.0153801    0.0012300
c    -1.2660350    1.1570087    0.0245734  0.00   -0.0360390   -0.0157802    0.0006043
c    -0.0128278    0.6125550   -0.0734923  0.00   -0.0353011   -0.0735286   -0.0031030
c    -0.2457985    3.3242219   -0.0198603  0.00   -0.0079244    0.0301631    0.0012231
c     1.0062085    2.7554233   -0.1254342  0.00    0.0057307    0.0283944    0.0005726
c     1.1116095    1.3782695   -0.1524369  0.00    0.0220256    0.0233715    0.0005066
n     0.3350989   -0.7441172   -0.1168950  0.00    0.0477851    0.0418266    0.0052298
c     2.2095026    0.5443604   -0.2854499  0.00    0.0599563   -0.0267884   -0.0028217
c     1.7336810   -0.7337306   -0.3292099  0.00   -0.0274545   -0.0374735    0.0007613
h    -0.2975442   -1.5646408   -0.0519557  0.00    0.0076562    0.0106872    0.0011799
c     3.6515076    1.0025492   -0.4666375  0.00   -0.0105120   -0.0097815    0.0081759
c     4.7453378    0.0777756    0.1301002  0.00   -0.0328029   -0.0507871   -0.0445227
h     3.7706287    2.0069996    0.0073850  0.00   -0.0000229    0.0064384   -0.0005714
h     3.8415343    1.1496188   -1.5568520  0.00   -0.0019031    0.0022319   -0.0065544
c     4.2900283   -0.6145844    1.4125631  0.00   -0.0110062    0.0690229    0.1404902
n     5.9940300    0.8595435    0.3654444  0.00    0.0379668    0.0004218    0.0307872
h     4.9821092   -0.7570233   -0.5609076  0.00   -0.0226288   -0.0652185    0.0561901
h     6.2693097    0.7811544    1.3656546  0.00   -0.0178566   -0.0106573   -0.0134243
h     6.7813998    0.4512814   -0.1882692  0.00   -0.0014902    0.0018820    0.0016764
h    -2.3540163    2.9914393    0.1325664  0.00   -0.0010061   -0.0001030   -0.0000039
h    -2.1485704    0.5234219    0.0833362  0.00   -0.0042155   -0.0008044    0.0002079
h    -0.3434683    4.4079644    0.0039652  0.00    0.0008348    0.0013727   -0.0000022
h     1.8867884    3.3910856   -0.1919607  0.00    0.0022811    0.0028905   -0.0001014
h     2.2876827   -1.6442711   -0.5198986  0.00   -0.0085040   -0.0073813    0.0024623
o     4.1268069    0.0180617    2.5587060  0.00    0.0166337   -0.0584652   -0.1056103
o     4.0389240   -1.9642952    1.2963781  0.00    0.0082411    0.0149579   -0.0289035
h     4.2221828   -2.2098508    0.3373941  0.00    0.0302317    0.1077278   -0.0456788
    27
 Energy =       0.2325121470
c    -1.3600207    2.5477991    0.0229773  0.00   -0.0192701    0.0141970    0.0011512
c    -1.2585796    1.1759306   -0.0362858  0.00   -0.0331740   -0.0150274    0.0005974
c    -0.0076335    0.6293325   -0.1269898  0.00   -0.0322394   -0.0665501   -0.0025651
c    -0.2301457    3.3380874   -0.0113269  0.00   -0.0069181    0.0280565    0.0010701
c     1.0202471    2.7668561   -0.1068610  0.00    0.0054640    0.0265520    0.0004703
c     1.1192028    1.3917494   -0.1640805  0.00    0.0204442    0.0217585    0.0004191
n     0.3317675   -0.7292335   -0.2209624  0.00    0.0428822    0.0375413    0.0046125
c     2.2152857    0.5602433   -0.2912542  0.00    0.0549422   -0.0244030   -0.0025917
c     1.7397978   -0.7147251   -0.3795777  0.00   -0.0243514   -0.0343485    0.0007005
h    -0.3074172   -1.5497579   -0.2107088  0.00    0.0055207    0.0078784    0.0010720
c     3.6640976    1.0174708   -0.4156135  0.00   -0.0093253   -0.0089373    0.0076525
c     4.7331252    0.0589317    0.1704645  0.00   -0.0303428   -0.0470972   -0.0405255
h     3.7786526    2.0010319    0.1028704  0.00    0.0003859    0.0068928    0.0000129
h     3.8837229    1.2051438   -1.4947316  0.00   -0.0016360    0.0023692   -0.0072559
c     4.2571359   -0.6397401    1.4418301  0.00   -0.0100822    0.0633290    0.1290446
n     5.9971461    0.8112233    0.4157559  0.00    0.0351584    0.0009405    0.0284028
h     4.9482473   -0.7696407   -0.5350725  0.00   -0.0209905   -0.0604221    0.0516073
h     6.2666704    0.7236170    1.4177904  0.00   -0.0162722   -0.0098072   -0.0122246
h     6.7780863    0.3862741   -0.1350230  0.00   -0.0010904    0.0016589    0.0014510
h    -2.3414984    3.0107472    0.0974451  0.00   -0.0009789   -0.0001319    0.0000005
h    -2.1444720    0.5442129   -0.0126400  0.00   -0.0043425   -0.0012038    0.0002058
h    -0.3239472    4.4215921    0.0356681  0.00    0.0008655    0.0015634   -0.0000022
h     1.9049298    3.3997563   -0.1424162  0.00    0.0024664    0.0030165   -0.0001166
h     2.3027997   -1.6193699   -0.5715539  0.00   -0.0079435   -0.0067936    0.0021804
o     4.0975052   -0.0111151    2.5973169  0.00    0.0153014   -0.0536481   -0.0968867
o     3.9885664   -1.9867868    1.3185887  0.00    0.0074060    0.0134938   -0.0261114
h     4.1907210   -2.2389843    0.3647451  0.00    0.0281205    0.0991223   -0.0423713
    27
 Energy =       0.2267066538
c    -1.3418477    2.5718367   -0.0027379  0.00   -0.0171809    0.0125110    0.0010281
c    -1.2469131    1.2028512   -0.0966634  0.00   -0.0291078   -0.0137559    0.0005766
c    -0.0001178    0.6519037   -0.1811863  0.00   -0.0280986   -0.0574389   -0.0018032
c    -0.2078164    3.3551674    0.0015761  0.00   -0.0056575    0.0249557    0.0008725
c     1.0390802    2.7789060   -0.0850015  0.00    0.0049864    0.0237943    0.0003459
c     1.1288819    1.4072282   -0.1750576  0.00    0.0181418    0.0193206    0.0003059
n     0.3289900   -0.7074884   -0.3254400  0.00    0.0367490    0.0320284    0.0036641
c     2.2205106    0.5768960   -0.2978477  0.00    0.0479459   -0.0210407   -0.0022876
c     1.7445464   -0.6923008   -0.4333510  0.00   -0.0207026   -0.0301658    0.0007280
h    -0.3163963   -1.5247112   -0.3694619  0.00    0.0033338    0.0049907    0.0007981
c     3.6755605    1.0280145   -0.3645080  0.00   -0.0078094   -0.0076927    0.0068390
c     4.7179754    0.0353083    0.2106358  0.00   -0.0267068   -0.0417285   -0.0351032
h     3.7854609    1.9888189    0.1966523  0.00    0.0007452    0.0069582    0.0005602
h     3.9261805    1.2540878   -1.4298117  0.00   -0.0013062    0.0024278   -0.0075611
c     4.2195910   -0.6726999    1.4680958  0.00   -0.0087663    0.0554096    0.1129287
n     5.9954741    0.7579872    0.4673520  0.00    0.0311059    0.0013733    0.0249397
h     4.9126171   -0.7848396   -0.5110290  0.00   -0.0187145   -0.0536715    0.0453560
h     6.2621409    0.6571514    1.4702734  0.00   -0.0140822   -0.0086206   -0.0105395
h     6.7689648    0.3212795   -0.0852145  0.00   -0.0007784    0.0014035    0.0012213
h    -2.3218229    3.0386855    0.0662257  0.00   -0.0009112   -0.0001483    0.0000040
h    -2.1363858    0.5755889   -0.1085768  0.00   -0.0042838   -0.0015453    0.0001776
h    -0.2959805    4.4379233    0.0738320  0.00    0.0008646    0.0017330    0.0000067
h     1.9285148    3.4063660   -0.0883632  0.00    0.0025652    0.0030453   -0.0001142
h     2.3156034   -1.5909797   -0.6292717  0.00   -0.0071145   -0.0059551    0.0018222
o     4.0628064   -0.0490952    2.6359627  0.00    0.0134261   -0.0469089   -0.0846262
o     3.9304575   -2.0165806    1.3360737  0.00    0.0062770    0.0114530   -0.0225167
h     4.1479170   -2.2766590    0.3871975  0.00    0.0250798    0.0872681   -0.0376229
    27
 Energy =       0.2206597459
c    -1.3172769    2.6041277   -0.0244764  0.00   -0.0145946    0.0104371    0.0008693
c    -1.2311373    1.2395654   -0.1572782  0.00   -0.0241409   -0.0121141    0.0005347
c     0.0096434    0.6816755   -0.2366420  0.00   -0.0232055   -0.0469322   -0.0009435
c    -0.1782063    3.3764300    0.0220238  0.00   -0.0041843    0.0211265    0.0006506
c     1.0632465    2.7921816   -0.0567969  0.00    0.0043467    0.0203683    0.0002189
c     1.1409538    1.4255213   -0.1843124  0.00    0.0153074    0.0162147    0.0001741
n     0.3264852   -0.6773700   -0.4307289  0.00    0.0297937    0.0256640    0.0025331
c     2.2254646    0.5947190   -0.3048586  0.00    0.0394575   -0.0168934   -0.0019073
c     1.7477843   -0.6654793   -0.4917086  0.00   -0.0168045   -0.0252858    0.0007623
h    -0.3249577   -1.4876966   -0.5282150  0.00    0.0012768    0.0022638    0.0004120
c     3.6861322    1.0341327   -0.3124469  0.00   -0.0060887   -0.0061603    0.0057875
c     4.6998481    0.0056144    0.2493970  0.00   -0.0221559   -0.0350672   -0.0286093
h     3.7914180    1.9692180    0.2915996  0.00    0.0010491    0.0067129    0.0010761
h     3.9691735    1.2984738   -1.3607573  0.00   -0.0009292    0.0024230   -0.0075197
c     4.1769769   -0.7158044    1.4893688  0.00   -0.0071324    0.0458116    0.0932487
n     5.9894317    0.6975354    0.5202315  0.00    0.0260358    0.0017851    0.0205960
h     4.8752799   -0.8026142   -0.4912494  0.00   -0.0159389   -0.0454755    0.0378588
h     6.2562577    0.5765573    1.5225818  0.00   -0.0113941   -0.0071922   -0.0083669
h     6.7544466    0.2554234   -0.0402719  0.00   -0.0005200    0.0010935    0.0009485
h    -2.2945358    3.0771161    0.0400572  0.00   -0.0008166   -0.0001493    0.0000067
h    -2.1246590    0.6198803   -0.2064167  0.00   -0.0040761   -0.0018367    0.0001225
h    -0.2586558    4.4576533    0.1232562  0.00    0.0008420    0.0019175    0.0000312
h     1.9582341    3.4110272   -0.0251987  0.00    0.0026105    0.0030142   -0.0000887
h     2.3254519   -1.5582107   -0.6953852  0.00   -0.0060703   -0.0049395    0.0014049
o     4.0222918   -0.0997053    2.6727704  0.00    0.0111260   -0.0387024   -0.0696328
o     3.8636653   -2.0555302    1.3452918  0.00    0.0049346    0.0089339   -0.0184045
h     4.0912362   -2.3237955    0.4005202  0.00    0.0212720    0.0729826   -0.0317631
    27
 Energy =       0.2151698778
c    -1.2866806    2.6455050   -0.0401704  0.00   -0.0119164    0.0082646    0.0006975
c    -1.2117561    1.2872044   -0.2177703  0.00   -0.0189594   -0.0104297    0.0004496
c     0.0214301    0.7195081   -0.2929366  0.00   -0.0182268   -0.0364106   -0.0001754
c    -0.1416287    3.4021207    0.0537780  0.00   -0.0026091    0.0171620    0.0004571
c     1.0925859    2.8067916   -0.0188384  0.00    0.0036616    0.0168227    0.0001339
c     1.1555748    1.4469964   -0.1902389  0.00    0.0123641    0.0128516    0.0000484
n     0.3242239   -0.6375966   -0.5369393  0.00    0.0228298    0.0191836    0.0014319
c     2.2306351    0.6135518   -0.3117322  0.00    0.0306184   -0.0124293   -0.0014669
c     1.7495416   -0.6337671   -0.5551680  0.00   -0.0131225   -0.0203937    0.0007069
h    -0.3333040   -1.4371393   -0.6869682  0.00   -0.0004715   -0.0000613   -0.0000169
c     3.6960589    1.0353302   -0.2596459  0.00   -0.0043837   -0.0045371    0.0046256
c     4.6793121   -0.0307238    0.2849661  0.00   -0.0173039   -0.0279613   -0.0218973
h     3.7968096    1.9412395    0.3879318  0.00    0.0012819    0.0062620    0.0015451
h     4.0123270    1.3385492   -1.2875601  0.00   -0.0005438    0.0023846   -0.0072118
c     4.1293869   -0.7705135    1.5030092  0.00   -0.0053868    0.0357855    0.0725921
n     5.9794868    0.6290174    0.5747077  0.00    0.0205395    0.0022975    0.0158487
h     4.8382348   -0.8220994   -0.4782662  0.00   -0.0129544   -0.0368139    0.0299747
h     6.2485514    0.4778236    1.5743186  0.00   -0.0084906   -0.0057383   -0.0057675
h     6.7357448    0.1901033   -0.0006044  0.00   -0.0002564    0.0006961    0.0005681
h    -2.2599283    3.1269821    0.0211282  0.00   -0.0007191   -0.0001326    0.0000088
h    -2.1098990    0.6788265   -0.3069294  0.00   -0.0038159   -0.0021044    0.0000351
h    -0.2122752    4.4805435    0.1891632  0.00    0.0008200    0.0021717    0.0000853
h     1.9938047    3.4133895    0.0516769  0.00    0.0026610    0.0029917   -0.0000286
h     2.3315704   -1.5208246   -0.7714747  0.00   -0.0049469   -0.0039142    0.0009658
o     3.9763546   -0.1668015    2.7048184  0.00    0.0086925   -0.0300736   -0.0538020
o     3.7880275   -2.1042901    1.3412167  0.00    0.0035300    0.0061752   -0.0142990
h     4.0198040   -2.3790805    0.3988831  0.00    0.0171084    0.0579510   -0.0255092
    27
 Energy =       0.2109388014
c    -1.2510576    2.6956251   -0.0466918  0.00   -0.0096342    0.0063857    0.0005456
c    -1.1895028    1.3458442   -0.2758159  0.00   -0.0144215   -0.0091025    0.0002835
c     0.0349578    0.7654915   -0.3482047  0.00   -0.0139501   -0.0274191    0.0003380
c    -0.0993277    3.4314995    0.1001346  0.00   -0.0010908    0.0137932    0.0003670
c     1.1262137    2.8222278    0.0314018  0.00    0.0030800    0.0138416    0.0001516
c     1.1726983    1.4714857   -0.1910882  0.00    0.0098301    0.0097940   -0.0000316
n     0.3224044   -0.5872817   -0.6437395  0.00    0.0168475    0.0134344    0.0005362
c     2.2366097    0.6328618   -0.3181180  0.00    0.0228649   -0.0082582   -0.0009900
c     1.7499953   -0.5970144   -0.6237098  0.00   -0.0101597   -0.0162872    0.0004956
h    -0.3413791   -1.3718586   -0.8457213  0.00   -0.0018397   -0.0018788   -0.0004454
c     3.7057653    1.0309857   -0.2075786  0.00   -0.0029203   -0.0030402    0.0035339
c     4.6575107   -0.0734253    0.3155392  0.00   -0.0129599   -0.0214835   -0.0160680
h     3.8022144    1.9047747    0.4830822  0.00    0.0014386    0.0057369    0.0019407
h     4.0550585    1.3729475   -1.2120649  0.00   -0.0002009    0.0023533   -0.0067695
c     4.0771817   -0.8373155    1.5058900  0.00   -0.0038030    0.0269395    0.0542469