    24
 Energy =       0.1643583335
c     1.6703672    2.6182922    0.2614132  0.00    0.0452481    0.0677659    0.0348057
c     0.3248649    2.9356558    0.1418766  0.00   -0.0081597    0.1018668    0.0387472
c    -0.5827484    1.9945952   -0.3219261  0.00   -0.0874489    0.0436029   -0.0028080
c     2.1038063    1.3347474   -0.0833024  0.00    0.0667974   -0.0106788    0.0074024
c     1.2047783    0.3610782   -0.5608861  0.00    0.0118254   -0.1010267   -0.0389702
c    -0.1441045    0.7159142   -0.6796715  0.00   -0.0276212   -0.0725540   -0.0869820
o    -0.1504797    4.1703171    0.4675790  0.00   -0.0616031   -0.0488005    0.0185195
h    -0.7850651    4.0755150    1.1967033  0.00    0.0569397   -0.0068844   -0.0484702
h    -0.8895274    0.0262790   -1.0546636  0.00    0.0193198    0.0000933   -0.0551176
h     3.1621727    1.0964802    0.0165124  0.00    0.0030171   -0.0000868   -0.0002343
h     2.3926004    3.3457758    0.6178375  0.00    0.0096572   -0.0073292   -0.0004652
h    -1.6336796    2.2563998   -0.4108671  0.00   -0.0027573   -0.0008494    0.0027002
c     1.7669373   -1.0073413   -0.8964724  0.00   -0.0323957    0.0191334   -0.0103126
c     0.8861134   -2.0194266   -1.6556448  0.00    0.0507418   -0.0472416    0.0745749
h     2.1212937   -1.4658931    0.0371405  0.00   -0.0005488    0.0094123   -0.0107131
h     2.6645729   -0.8285312   -1.5058794  0.00   -0.0116220    0.0007658    0.0099725
c     0.2877588   -1.3395944   -2.9073099  0.00   -0.1181651    0.3809985   -0.0869349
o    -0.0664180   -0.1744118   -2.9918994  0.00    0.0654449   -0.2520235    0.1401117
o     0.1608327   -2.2305444   -3.9280651  0.00    0.0418725   -0.0328668    0.0656637
h     0.6173059   -1.8088839   -4.6997648  0.00    0.0028910   -0.0087461    0.0360324
n     1.5974427   -3.2508470   -2.1301054  0.00   -0.0176170   -0.0635699   -0.0612385
h     0.0358579   -2.3311629   -1.0380560  0.00    0.0171912   -0.0067769   -0.0131266
h     2.6066344   -3.0920603   -2.0299520  0.00   -0.0341443    0.0036823    0.0092267
h     1.3975604   -4.0138454   -1.4794020  0.00    0.0111370    0.0321135   -0.0223836
    24
 Energy =       0.1475744258
c     1.5938086    2.6292635    0.2408275  0.00    0.0384177    0.0573169    0.0296213
c     0.2523382    2.9264158    0.0928440  0.00   -0.0057787    0.0817491    0.0330857
c    -0.6369105    1.9590232   -0.3377593  0.00   -0.0741908    0.0363884   -0.0020672
c     2.0475971    1.3498572   -0.0602251  0.00    0.0571628   -0.0098175    0.0061069
c     1.1727891    0.3591233   -0.5259353  0.00    0.0092983   -0.0855869   -0.0331026
c    -0.1784261    0.6818132   -0.6585695  0.00   -0.0239371   -0.0618938   -0.0735853
o    -0.2254524    4.1909976    0.3187487  0.00   -0.0497344   -0.0344508    0.0114953
h    -0.8461715    4.1760088    1.0779365  0.00    0.0442813   -0.0060484   -0.0365873
h    -0.8982389   -0.0335817   -1.0447608  0.00    0.0160252   -0.0008724   -0.0478034
h     3.1085998    1.1317036    0.0566252  0.00    0.0029211   -0.0003047   -0.0002164
h     2.3005343    3.3850692    0.5696648  0.00    0.0086125   -0.0054260   -0.0001364
h    -1.6874977    2.2095689   -0.4577238  0.00   -0.0028514   -0.0003588    0.0023489
c     1.7654313   -1.0064290   -0.8202029  0.00   -0.0295039    0.0184341   -0.0083934
c     0.9511419   -2.0163492   -1.6602675  0.00    0.0406734   -0.0387653    0.0614534
h     2.0293448   -1.4717750    0.1463145  0.00    0.0005880    0.0069546   -0.0048046
h     2.7216162   -0.8280640   -1.3471262  0.00   -0.0055831    0.0011199    0.0060056
c     0.3673349   -1.3486006   -2.9163894  0.00   -0.0968546    0.3258078   -0.0707356
o    -0.0170868   -0.1660730   -3.0019734  0.00    0.0545367   -0.2136009    0.1181623
o     0.1613643   -2.2567689   -3.9159851  0.00    0.0288473   -0.0352640    0.0596520
h     0.6853050   -1.9114793   -4.6930811  0.00    0.0070633   -0.0031137    0.0245530
n     1.7290010   -3.2085810   -2.1214068  0.00   -0.0144255   -0.0559117   -0.0542114
h     0.0809699   -2.3742403   -1.0873708  0.00    0.0124349   -0.0062071   -0.0102554
h     2.7334026   -3.0123819   -1.9983442  0.00   -0.0272391    0.0033921    0.0079476
h     1.5380823   -3.9960127   -1.4906453  0.00    0.0092361    0.0264590   -0.0185330
    24
 Energy =       0.1410770607
c     1.5692271    2.6275325    0.2714365  0.00    0.0361556    0.0539839    0.0277565
c     0.2236184    2.9071183    0.1417781  0.00   -0.0035257    0.0726865    0.0298060
c    -0.6484615    1.9434309   -0.3276139  0.00   -0.0699199    0.0334035   -0.0023434
c     2.0402197    1.3645178   -0.0650164  0.00    0.0542506   -0.0098432    0.0056948
c     1.1788635    0.3741617   -0.5500283  0.00    0.0082249   -0.0807183   -0.0313951
c    -0.1741925    0.6826403   -0.6812523  0.00   -0.0225592   -0.0594083   -0.0698829
o    -0.2845550    4.1436223    0.4677379  0.00   -0.0451802   -0.0249007    0.0079585
h    -0.8952212    4.0417882    1.2366896  0.00    0.0376984   -0.0064549   -0.0294699
h    -0.8866530   -0.0332368   -1.0789389  0.00    0.0151145   -0.0009970   -0.0451361
h     3.1039900    1.1570240    0.0461721  0.00    0.0028453   -0.0003676   -0.0002034
h     2.2619155    3.3814585    0.6343001  0.00    0.0083542   -0.0044325    0.0001418
h    -1.7041639    2.1804658   -0.4310821  0.00   -0.0029362   -0.0001022    0.0022494
c     1.7931103   -0.9737598   -0.8802258  0.00   -0.0290305    0.0174624   -0.0080566
c     0.9600045   -1.9970924   -1.6830898  0.00    0.0377873   -0.0363944    0.0578706
h     2.1179489   -1.4388552    0.0704666  0.00    0.0011937    0.0057054   -0.0029597
h     2.7172097   -0.7679596   -1.4575923  0.00   -0.0035830    0.0014468    0.0044594
c     0.3749571   -1.3497401   -2.9476243  0.00   -0.0912414    0.3075193   -0.0665863
o    -0.0148014   -0.1607606   -3.0458924  0.00    0.0514017   -0.2012854    0.1116367
o     0.1871616   -2.2604888   -3.9504558  0.00    0.0267583   -0.0336353    0.0567507
h     0.7382065   -1.9265219   -4.7153131  0.00    0.0071361   -0.0026887    0.0224692
n     1.7301295   -3.2016674   -2.1209960  0.00   -0.0134266   -0.0528583   -0.0515846
h     0.0930693   -2.3346931   -1.0917727  0.00    0.0114597   -0.0059621   -0.0094620
h     2.7375959   -3.0138833   -2.0008798  0.00   -0.0255992    0.0031535    0.0075255
h     1.5296983   -3.9765935   -1.4756128  0.00    0.0086218    0.0246878   -0.0172390
    24
 Energy =       0.1393416948
c     1.4673257    2.6386025    0.3009425  0.00    0.0354098    0.0527910    0.0270678
c     0.1164025    2.8806976    0.1567934  0.00   -0.0029206    0.0697259    0.0286560
c    -0.7202071    1.9007437   -0.3438691  0.00   -0.0684698    0.0320727   -0.0024923
c     1.9771575    1.3937420   -0.0405624  0.00    0.0532695   -0.0095410    0.0056436
c     1.1518142    0.3849879   -0.5476768  0.00    0.0080160   -0.0782790   -0.0302241
c    -0.2074580    0.6567127   -0.7048682  0.00   -0.0226021   -0.0577814   -0.0674028
o    -0.4381879    4.0902566    0.5161101  0.00   -0.0432849   -0.0214254    0.0067309
h    -1.0405270    3.9376422    1.2866146  0.00    0.0352136   -0.0065859   -0.0267539
h    -0.8913673   -0.0746322   -1.1302586  0.00    0.0138076   -0.0015962   -0.0437859
h     3.0446763    1.2146799    0.0882600  0.00    0.0033674   -0.0004098   -0.0001032
h     2.1317810    3.4059442    0.6889849  0.00    0.0085836   -0.0036743    0.0004354
h    -1.7807086    2.1105296   -0.4601017  0.00   -0.0033445   -0.0000218    0.0021064
c     1.8200497   -0.9388589   -0.8740730  0.00   -0.0277043    0.0168807   -0.0068994
c     1.0442040   -1.9849735   -1.7043251  0.00    0.0354197   -0.0342981    0.0557849
h     2.1393224   -1.4009825    0.0802047  0.00    0.0011972    0.0055734   -0.0027947
h     2.7507712   -0.6962586   -1.4284985  0.00   -0.0026037    0.0015658    0.0039050
c     0.4613241   -1.3520870   -2.9732848  0.00   -0.0879419    0.2977919   -0.0643049
o     0.0486885   -0.1666815   -3.0782397  0.00    0.0498009   -0.1948885    0.1071384
o     0.2598452   -2.2787614   -3.9605451  0.00    0.0253983   -0.0329056    0.0548543
h     0.8104659   -1.9646464   -4.7345582  0.00    0.0071139   -0.0024852    0.0214694
n     1.8701839   -3.1539911   -2.1368686  0.00   -0.0130354   -0.0531987   -0.0512916
h     0.1765169   -2.3623481   -1.1353445  0.00    0.0101146   -0.0059967   -0.0087857
h     2.8683528   -2.9260467   -1.9947197  0.00   -0.0230140    0.0033340    0.0073743
h     1.6884514   -3.9457635   -1.5049215  0.00    0.0082091    0.0233523   -0.0163277
    24
 Energy =       0.1343617637
c     1.5543943    2.6284861    0.2828859  0.00    0.0339472    0.0505080    0.0259190
c     0.2076178    2.8984850    0.1598344  0.00   -0.0027104    0.0660443    0.0272020
c    -0.6568046    1.9333210   -0.3179474  0.00   -0.0656572    0.0303040   -0.0025285
c     2.0343196    1.3736104   -0.0642081  0.00    0.0511312   -0.0089580    0.0055397
c     1.1800521    0.3820948   -0.5544000  0.00    0.0076900   -0.0744097   -0.0285300
c    -0.1746340    0.6801948   -0.6812567  0.00   -0.0218649   -0.0548674   -0.0637404
o    -0.3091382    4.1282421    0.5106056  0.00   -0.0409199   -0.0192573    0.0058999
h    -0.9093815    4.0092776    1.2905935  0.00    0.0329009   -0.0062470   -0.0245880
h    -0.8824724   -0.0400929   -1.0823499  0.00    0.0125260   -0.0019106   -0.0413827
h     3.1006305    1.1732826    0.0431942  0.00    0.0036888   -0.0004416   -0.0000290
h     2.2404930    3.3858895    0.6537315  0.00    0.0084575   -0.0031687    0.0005711
h    -1.7151059    2.1632526   -0.4169370  0.00   -0.0035609    0.0000112    0.0019394
c     1.8047922   -0.9585662   -0.9017063  0.00   -0.0260410    0.0166174   -0.0055981
c     0.9654443   -1.9883740   -1.6958364  0.00    0.0324202   -0.0314625    0.0524180
h     2.1488856   -1.4247532    0.0425980  0.00    0.0013285    0.0053910   -0.0022331
h     2.7193025   -0.7417178   -1.4946651  0.00   -0.0014537    0.0015960    0.0030819
c     0.3797156   -1.3546365   -2.9653336  0.00   -0.0833951    0.2828593   -0.0610104
o    -0.0171122   -0.1567460   -3.0690175  0.00    0.0474666   -0.1852067    0.1008086
o     0.1889600   -2.2658753   -3.9695632  0.00    0.0230403   -0.0318558    0.0527634
h     0.7738244   -1.9572462   -4.7223894  0.00    0.0076068   -0.0018586    0.0194038
n     1.7390789   -3.1978283   -2.1184153  0.00   -0.0124915   -0.0523746   -0.0504649
h     0.0959657   -2.3186752   -1.0984293  0.00    0.0083148   -0.0059679   -0.0076674
h     2.7503515   -3.0127316   -1.9968403  0.00   -0.0198994    0.0033733    0.0070392
h     1.5296983   -3.9703856   -1.4689531  0.00    0.0074753    0.0212819   -0.0148133
    24
 Energy =       0.1248400287
c     1.6322275    2.6134499    0.2673221  0.00    0.0296775    0.0440531    0.0226732
c     0.2915941    2.9065235    0.1706938  0.00   -0.0024468    0.0570898    0.0234741
c    -0.5955132    1.9578612   -0.2867858  0.00   -0.0574574    0.0261301   -0.0024014
c     2.0855052    1.3552145   -0.0907958  0.00    0.0447653   -0.0076213    0.0050530
c     1.2069778    0.3828536   -0.5649911  0.00    0.0067255   -0.0644738   -0.0245373
c    -0.1413442    0.7017285   -0.6571311  0.00   -0.0190893   -0.0475632   -0.0552564
o    -0.1894079    4.1511932    0.5266781  0.00   -0.0351142   -0.0160214    0.0042638
h    -0.7717540    4.0594754    1.3283482  0.00    0.0279005   -0.0052731   -0.0201759
h    -0.8695650   -0.0082362   -1.0351071  0.00    0.0105790   -0.0020132   -0.0356861
h     3.1505303    1.1374234   -0.0079366  0.00    0.0036814   -0.0004427    0.0000440
h     2.3355532    3.3618799    0.6240698  0.00    0.0075453   -0.0025265    0.0006087
h    -1.6516848    2.2048269   -0.3653036  0.00   -0.0034715    0.0000405    0.0016160
c     1.7916741   -0.9689530   -0.9423553  0.00   -0.0223601    0.0151506   -0.0039396
c     0.8890137   -1.9816769   -1.6949785  0.00    0.0267972   -0.0260237    0.0447522
h     2.1682671   -1.4430128   -0.0130843  0.00    0.0015017    0.0046904   -0.0012645
h     2.6824682   -0.7714082   -1.5793744  0.00   -0.0001040    0.0014429    0.0018277
c     0.2982975   -1.3582292   -2.9677953  0.00   -0.0722684    0.2449607   -0.0529589
o    -0.0858776   -0.1389473   -3.0741764  0.00    0.0412544   -0.1603070    0.0867739
o     0.1145346   -2.2538303   -3.9896229  0.00    0.0158716   -0.0297068    0.0496423
h     0.7661652   -1.9800005   -4.7067367  0.00    0.0104960    0.0003814    0.0128336
n     1.6131247   -3.2286452   -2.0934961  0.00   -0.0110392   -0.0469200   -0.0458093
h     0.0209380   -2.2612578   -1.0662850  0.00    0.0057745   -0.0054057   -0.0057310
h     2.6362078   -3.0890275   -1.9892375  0.00   -0.0152240    0.0029888    0.0061232
h     1.3709451   -3.9806973   -1.4267238  0.00    0.0060051    0.0173699   -0.0119253
    24
 Energy =       0.1075215326
c     1.6755436    2.5897739    0.2645344  0.00    0.0169385    0.0249929    0.0128892
c     0.3448543    2.8900378    0.2115029  0.00   -0.0016687    0.0317337    0.0121543
c    -0.5506606    1.9607779   -0.2353676  0.00   -0.0329059    0.0150942   -0.0019350
c     2.1133325    1.3475358   -0.1231549  0.00    0.0256260   -0.0044826    0.0033992
c     1.2242482    0.3978511   -0.5857829  0.00    0.0036618   -0.0365593   -0.0135122
c    -0.1157558    0.7192271   -0.6309319  0.00   -0.0105071   -0.0280926   -0.0337511
o    -0.1080055    4.1363775    0.6150451  0.00   -0.0169524   -0.0075531   -0.0052990
h    -0.6130009    4.0524025    1.4846032  0.00    0.0122709   -0.0033605   -0.0028774
h    -0.8545014    0.0169357   -0.9973364  0.00    0.0075402   -0.0020330   -0.0223252
h     3.1786158    1.1245995   -0.0742993  0.00    0.0026897   -0.0004279    0.0001162
h     2.3839006    3.3340212    0.6169600  0.00    0.0042605   -0.0013745    0.0004267
h    -1.6060766    2.2154933   -0.2841365  0.00   -0.0024551    0.0001932    0.0008467
c     1.7842562   -0.9504225   -1.0175038  0.00   -0.0128825    0.0092105   -0.0015946
c     0.8256634   -1.9466612   -1.7277809  0.00    0.0132044   -0.0120466    0.0253099
h     2.2035501   -1.4431157   -0.1134067  0.00    0.0015471    0.0021799    0.0003569
h     2.6405047   -0.7539058   -1.7039196  0.00    0.0012848    0.0008279   -0.0002128
c     0.2358585   -1.3635451   -3.0159435  0.00   -0.0399531    0.1400093   -0.0311831
o    -0.1463789   -0.0962803   -3.1343392  0.00    0.0231281   -0.0893685    0.0527520
o     0.0376702   -2.2435665   -4.0564584  0.00   -0.0362438   -0.0277810    0.0612118
h     0.8648440   -2.1284608   -4.6773134  0.00    0.0499437    0.0099604   -0.0233569
n     1.5139459   -3.2273590   -2.0558634  0.00   -0.0058292   -0.0269694   -0.0308674
h    -0.0439539   -2.1649328   -1.0700144  0.00    0.0015532   -0.0030885   -0.0018031
h     2.5479397   -3.1407528   -1.9471726  0.00   -0.0062651    0.0013113    0.0038251
h     1.2124834   -3.9575233   -1.3767256  0.00    0.0020143    0.0076244   -0.0045703
    24
 Energy =       0.1016189409
c     1.7139262    2.5744072    0.2657811  0.00    0.0119952    0.0174505    0.0089719
c     0.3866231    2.8763540    0.2549083  0.00   -0.0015951    0.0218732    0.0081757
c    -0.5189897    1.9571641   -0.1780424  0.00   -0.0231911    0.0107210   -0.0015017
c     2.1394592    1.3428141   -0.1525172  0.00    0.0181620   -0.0034424    0.0025261
c     1.2392487    0.4043702   -0.6016966  0.00    0.0029398   -0.0254735   -0.0092095
c    -0.0984198    0.7244019   -0.5991350  0.00   -0.0075896   -0.0195752   -0.0239764
o    -0.0498910    4.1195998    0.6907216  0.00   -0.0074729   -0.0035970   -0.0142619
h    -0.4542478    4.0394817    1.6214831  0.00    0.0039214   -0.0033391    0.0088093
h    -0.8483345    0.0261233   -0.9483250  0.00    0.0053803   -0.0015452   -0.0158827
h     3.2055592    1.1193153   -0.1388225  0.00    0.0024853   -0.0004930    0.0001048
h     2.4300822    3.3150405    0.6088507  0.00    0.0030554   -0.0009189    0.0003484
h    -1.5748463    2.2141715   -0.1930116  0.00   -0.0022845    0.0003283    0.0005674
c     1.7852372   -0.9374001   -1.0739321  0.00   -0.0089293    0.0064442   -0.0009726
c     0.8001735   -1.9340981   -1.7501611  0.00    0.0090895   -0.0083442    0.0173984
h     2.2423630   -1.4375706   -0.1911361  0.00    0.0015146    0.0011284    0.0009893
h     2.6116854   -0.7333549   -1.7948673  0.00    0.0016747    0.0005992   -0.0008579
c     0.1816688   -1.3723545   -3.0336197  0.00   -0.0272823    0.0971033   -0.0212838
o    -0.2140367   -0.0895659   -3.1496253  0.00    0.0151807   -0.0615601    0.0374868
o    -0.0509999   -2.2494277   -4.0736917  0.00   -0.0276149   -0.0194562    0.0427682
h     0.7350724   -2.1232543   -4.7297941  0.00    0.0367959    0.0068167   -0.0170373
n     1.4806570   -3.2192415   -2.0628858  0.00   -0.0042206   -0.0177385   -0.0227383
h    -0.0541694   -2.1360113   -1.0662313  0.00    0.0006380   -0.0022463   -0.0008678
h     2.5157984   -3.1555928   -1.9348314  0.00   -0.0035797    0.0009036    0.0027850
h     1.1452584   -3.9568639   -1.4042241  0.00    0.0009271    0.0043612   -0.0023412
    24
 Energy =       0.0995961856
c     1.7397028    2.5602980    0.2794966  0.00    0.0093222    0.0135700    0.0068877
c     0.4131442    2.8558643    0.3112724  0.00   -0.0017604    0.0165382    0.0063791
c    -0.4983015    1.9415130   -0.1109624  0.00   -0.0180737    0.0085707   -0.0011091
c     2.1592059    1.3424669   -0.1765415  0.00    0.0143002   -0.0031985    0.0018935
c     1.2523208    0.4098302   -0.6163098  0.00    0.0026144   -0.0194096   -0.0068713
c    -0.0851608    0.7197785   -0.5626345  0.00   -0.0063095   -0.0147562   -0.0183009
o    -0.0165439    4.0902837    0.7807106  0.00   -0.0014856   -0.0003053   -0.0257703
h    -0.2954947    4.0126375    1.7656308  0.00   -0.0015351   -0.0042577    0.0215183
h    -0.8424289    0.0212830   -0.8939570  0.00    0.0039376   -0.0011707   -0.0119545
h     3.2266987    1.1255717   -0.2010549  0.00    0.0026404   -0.0006675    0.0000382
h     2.4606521    3.2993126    0.6152048  0.00    0.0024179   -0.0007060    0.0002912
h    -1.5554769    2.1935823   -0.0892362  0.00   -0.0024235    0.0005143    0.0004673
c     1.7930891   -0.9162825   -1.1395853  0.00   -0.0069160    0.0046905   -0.0008476
c     0.7899653   -1.9215005   -1.7784005  0.00    0.0071538   -0.0064968    0.0134529
h     2.3011163   -1.4222833   -0.2864450  0.00    0.0019681    0.0001057    0.0020293
h     2.5801538   -0.6903002   -1.8988039  0.00    0.0025061    0.0005960   -0.0018264
c     0.1181100   -1.3744540   -3.0425326  0.00   -0.0201403    0.0742028   -0.0158005
o    -0.3035076   -0.0879199   -3.1440268  0.00    0.0106072   -0.0464390    0.0282405
o    -0.1597643   -2.2525218   -4.0736474  0.00   -0.0238383   -0.0152735    0.0326027
h     0.5857523   -2.1205769   -4.7678006  0.00    0.0300485    0.0053145   -0.0143229
n     1.4751467   -3.1993136   -2.1043461  0.00   -0.0027574   -0.0132776   -0.0175363
h    -0.0368080   -2.1274405   -1.0610582  0.00   -0.0002135   -0.0018724   -0.0000770
h     2.5112383   -3.1400617   -1.9773473  0.00   -0.0026918    0.0007489    0.0021622
h     1.1360677   -3.9512594   -1.4624309  0.00    0.0006286    0.0029792   -0.0015461
    24
 Energy =       0.0995083359
c     1.7177853    2.5532984    0.3133565  0.00    0.0083325    0.0125408    0.0062981
c     0.3890241    2.8347015    0.3531000  0.00   -0.0016583    0.0147499    0.0060345
c    -0.5134212    1.9185090   -0.0813739  0.00   -0.0163987    0.0078637   -0.0009329
c     2.1483727    1.3495896   -0.1672030  0.00    0.0129890   -0.0030843    0.0016444
c     1.2504040    0.4155580   -0.6197481  0.00    0.0022159   -0.0173896   -0.0061878
c    -0.0897313    0.7086366   -0.5528849  0.00   -0.0057755   -0.0134144   -0.0165259
o    -0.0532935    4.0572276    0.8426142  0.00   -0.0001837    0.0011988   -0.0290216
h    -0.2513860    3.9809560    1.8493860  0.00   -0.0025904   -0.0048149    0.0249891
h    -0.8412813    0.0062112   -0.8888068  0.00    0.0035147   -0.0010876   -0.0107461
h     3.2180427    1.1455485   -0.2016992  0.00    0.0025131   -0.0006850    0.0000101
h     2.4317753    3.2945125    0.6587779  0.00    0.0022023   -0.0005582    0.0002997
h    -1.5729361    2.1592854   -0.0510650  0.00   -0.0022776    0.0005429    0.0004469
c     1.8059557   -0.8909666   -1.1773146  0.00   -0.0063961    0.0039120   -0.0009131
c     0.8100576   -1.9098991   -1.8057262  0.00    0.0064226   -0.0056380    0.0123124
h     2.3446131   -1.3985113   -0.3434726  0.00    0.0020600   -0.0003160    0.0022425
h     2.5701391   -0.6371876   -1.9515255  0.00    0.0027822    0.0006840   -0.0021392
c     0.1056540   -1.3714454   -3.0561781  0.00   -0.0179072    0.0671043   -0.0140475
o    -0.3300640   -0.0856714   -3.1499389  0.00    0.0093544   -0.0416834    0.0252694
o    -0.1983024   -2.2540918   -4.0770654  0.00   -0.0228366   -0.0142332    0.0297754
h     0.5560805   -2.1618203   -4.7664608  0.00    0.0280507    0.0051122   -0.0137845
n     1.5142198   -3.1729905   -2.1476448  0.00   -0.0021243   -0.0121097   -0.0159315
h    -0.0006882   -2.1336066   -1.0749317  0.00   -0.0004839   -0.0017808    0.0001432
h     2.5502189   -3.1006819   -2.0242175  0.00   -0.0022687    0.0006781    0.0019607
h     1.1876384   -3.9386544   -1.5147831  0.00    0.0004636    0.0024084   -0.0011966
    24
 Energy =       0.0985086285
c     1.6407874    2.5416310    0.3943040  0.00    0.0058071    0.0106020    0.0051720
c     0.3057980    2.7822788    0.4443937  0.00   -0.0011589    0.0101058    0.0054977
c    -0.5678885    1.8578183   -0.0252684  0.00   -0.0125422    0.0063787   -0.0004329
c     2.1061064    1.3741115   -0.1379103  0.00    0.0101022   -0.0031650    0.0008380
c     1.2371643    0.4326011   -0.6255211  0.00    0.0010128   -0.0124166   -0.0045099
c    -0.1105278    0.6796788   -0.5412970  0.00   -0.0046716   -0.0106153   -0.0122370
o    -0.1741464    3.9742735    0.9777492  0.00    0.0004107    0.0069270   -0.0375205
h    -0.2312835    3.9014416    2.0081391  0.00   -0.0031175   -0.0067193    0.0342849
h    -0.8422848   -0.0337016   -0.8990162  0.00    0.0022026   -0.0012359   -0.0078658
h     3.1815616    1.2057707   -0.1859389  0.00    0.0025620   -0.0008479   -0.0001192
h     2.3321600    3.2914584    0.7669604  0.00    0.0018528    0.0002113    0.0005190
h    -1.6338299    2.0666100    0.0158094  0.00   -0.0021931    0.0007520    0.0004426
c     1.8368928   -0.8270778   -1.2488775  0.00   -0.0049190    0.0012713   -0.0011600
c     0.8717887   -1.8800161   -1.8697449  0.00    0.0039714   -0.0031558    0.0093114
h     2.4307823   -1.3326940   -0.4502489  0.00    0.0024760   -0.0018716    0.0027504
h     2.5593718   -0.5107473   -2.0423359  0.00    0.0039992    0.0013138   -0.0034567
c     0.1170010   -1.3652860   -3.1010331  0.00   -0.0115872    0.0486058   -0.0098134
o    -0.3476372   -0.0802491   -3.1860229  0.00    0.0059142   -0.0291192    0.0177555
o    -0.2236411   -2.2592327   -4.1030824  0.00   -0.0294724   -0.0117257    0.0300811
h     0.5779335   -2.2877249   -4.7494954  0.00    0.0318314    0.0047291   -0.0193691
n     1.6249427   -3.1088212   -2.2318233  0.00   -0.0002505   -0.0095469   -0.0122976
h     0.0856256   -2.1425853   -1.1236451  0.00   -0.0012858   -0.0017041    0.0007024
h     2.6578947   -3.0069372   -2.0953924  0.00   -0.0007142    0.0006668    0.0014758
h     1.3143057   -3.9040928   -1.6255076  0.00   -0.0002301    0.0005596   -0.0000488
    24
 Energy =       0.0971826523
c     1.6691640    2.5474408    0.3716191  0.00    0.0062675    0.0079887    0.0040307
c     0.3340295    2.7628263    0.4873432  0.00   -0.0018044    0.0078870    0.0046416
c    -0.5447712    1.8248016    0.0565804  0.00   -0.0113818    0.0051548   -0.0003596
c     2.1301115    1.3914417   -0.1846360  0.00    0.0088704   -0.0024945    0.0007328
c     1.2562205    0.4383201   -0.6364736  0.00    0.0017076   -0.0099195   -0.0036221
c    -0.0908962    0.6604302   -0.4894675  0.00   -0.0051547   -0.0081616   -0.0093026
o    -0.1374714    3.9470612    1.0452064  0.00   -0.0005385    0.0062873   -0.0336772
h    -0.2576638    3.8352357    2.0645472  0.00   -0.0021288   -0.0058263    0.0308839
h    -0.8252861   -0.0606759   -0.8269363  0.00    0.0013545   -0.0009859   -0.0063488
h     3.2058525    1.2426591   -0.2823767  0.00    0.0034437   -0.0008030   -0.0001594
h     2.3633399    3.3091124    0.7144964  0.00    0.0020375    0.0003601    0.0004903
h    -1.6119434    2.0152930    0.1452316  0.00   -0.0030313    0.0007883    0.0003994
c     1.8485947   -0.8084956   -1.2916336  0.00   -0.0036562    0.0008522   -0.0009402
c     0.8740110   -1.8669118   -1.8886213  0.00    0.0034265   -0.0011670    0.0081768
h     2.4748410   -1.3133650   -0.5178797  0.00    0.0023461   -0.0017530    0.0026868
h     2.5388472   -0.4774292   -2.1069825  0.00    0.0036280    0.0011632   -0.0032383
c     0.0615037   -1.3497221   -3.0825695  0.00   -0.0082995    0.0381272   -0.0064422
o    -0.3539152   -0.0418322   -3.1647625  0.00    0.0046100   -0.0201498    0.0146705
o    -0.3658542   -2.2443440   -4.0552629  0.00   -0.0288198   -0.0123969    0.0224509
h     0.4191804   -2.3510849   -4.7104373  0.00    0.0285650    0.0038153   -0.0179750
n     1.6314244   -3.0794864   -2.2927807  0.00    0.0008338   -0.0075667   -0.0099462
h     0.1221097   -2.1486365   -1.1137439  0.00   -0.0018131   -0.0014319    0.0013442
h     2.6667199   -2.9721954   -2.1767545  0.00   -0.0001696    0.0004000    0.0011677
h     1.3407292   -3.8919353   -1.6985112  0.00   -0.0002930   -0.0001681    0.0003362
    24
 Energy =       0.0960153495
c     1.6196602    2.5610285    0.3882133  0.00    0.0049902    0.0065405    0.0032673
c     0.2818494    2.7564701    0.4944806  0.00   -0.0013274    0.0060752    0.0038772
c    -0.5792030    1.8146266    0.0397344  0.00   -0.0091129    0.0040066   -0.0002712
c     2.1008213    1.4216353   -0.1821016  0.00    0.0071601   -0.0020495    0.0005191
c     1.2451439    0.4630725   -0.6540970  0.00    0.0011595   -0.0077965   -0.0029881
c    -0.1055861    0.6654503   -0.5190184  0.00   -0.0042552   -0.0066376   -0.0074394
o    -0.2116458    3.9254465    1.0660961  0.00   -0.0001363    0.0062075   -0.0284228
h    -0.2792189    3.8205741    2.0881934  0.00   -0.0020322   -0.0052409    0.0262081
h    -0.8279243   -0.0602618   -0.8722547  0.00    0.0008663   -0.0008802   -0.0049772
h     3.1788931    1.2897313   -0.2728385  0.00    0.0028562   -0.0006601   -0.0001447
h     2.2998164    3.3271749    0.7484776  0.00    0.0017359    0.0004845    0.0004748
h    -1.6491387    1.9896925    0.1213252  0.00   -0.0025079    0.0006522    0.0003308
c     1.8634118   -0.7657702   -1.3194804  0.00   -0.0028937    0.0011160   -0.0006264
c     0.9119539   -1.8599322   -1.8897484  0.00    0.0022202   -0.0009313    0.0069269
h     2.5210873   -1.2461991   -0.5562144  0.00    0.0023014   -0.0018445    0.0025955
h     2.5259971   -0.4156546   -2.1490805  0.00    0.0032926    0.0012476   -0.0028680
c     0.0847575   -1.3891639   -3.0923391  0.00   -0.0065498    0.0298346   -0.0046725
o    -0.3364010   -0.0826650   -3.2156259  0.00    0.0033070   -0.0146639    0.0113897
o    -0.3481990   -2.3161910   -4.0328925  0.00   -0.0284475   -0.0093913    0.0216175
h     0.4545512   -2.5098380   -4.6456901  0.00    0.0280641    0.0017293   -0.0190955
n     1.6959839   -3.0634891   -2.2676329  0.00    0.0005801   -0.0066229   -0.0080053
h     0.1695022   -2.1401722   -1.1057987  0.00   -0.0014342   -0.0012793    0.0010875
h     2.7277352   -2.9411246   -2.1331318  0.00    0.0004018    0.0002368    0.0009455
h     1.4050299   -3.8759331   -1.6733812  0.00   -0.0002384   -0.0001328    0.0002710
    24
 Energy =       0.0940593808
c     1.5829170    2.5758632    0.3862853  0.00    0.0033555    0.0032435    0.0016948
c     0.2446689    2.7312045    0.5217443  0.00   -0.0010587    0.0030376    0.0022597
c    -0.5973993    1.7726403    0.0701436  0.00   -0.0053844    0.0027134    0.0000966
c     2.0851072    1.4565501   -0.1994710  0.00    0.0041565   -0.0012702    0.0002256
c     1.2496550    0.4806141   -0.6655045  0.00    0.0008460   -0.0042319   -0.0016531
c    -0.1032046    0.6480733   -0.5161745  0.00   -0.0024786   -0.0038413   -0.0038981
o    -0.2654243    3.8810183    1.1176150  0.00   -0.0002465    0.0052468   -0.0262084
h    -0.4379720    3.7212791    2.1191838  0.00   -0.0014113   -0.0041654    0.0249704
h    -0.8109954   -0.0849881   -0.8846327  0.00    0.0003449   -0.0007171   -0.0038079
h     3.1642125    1.3542426   -0.3059043  0.00    0.0020001   -0.0004410   -0.0001138
h     2.2464153    3.3575553    0.7430390  0.00    0.0010984    0.0003999    0.0003192
h    -1.6695714    1.9194122    0.1672908  0.00   -0.0017800    0.0005136    0.0002254
c     1.8913148   -0.7321329   -1.3369502  0.00   -0.0013263    0.0005379   -0.0004763
c     0.9583782   -1.8424560   -1.9042240  0.00    0.0010401    0.0003853    0.0038136
h     2.5630327   -1.1986636   -0.5798056  0.00    0.0012566   -0.0010959    0.0013960
h     2.5383480   -0.3661636   -2.1697582  0.00    0.0017805    0.0007193   -0.0015661
c     0.1196534   -1.3819257   -3.0987773  0.00   -0.0007099    0.0088792    0.0019781
o    -0.1818622   -0.0381792   -3.2939946  0.00    0.0012990    0.0061953    0.0072859
o    -0.4158951   -2.3245731   -3.9751141  0.00   -0.0255359   -0.0108656    0.0130279
h     0.3505650   -2.6329447   -4.5822831  0.00    0.0229235   -0.0009799   -0.0166427
n     1.7616655   -3.0292042   -2.2873613  0.00    0.0002508   -0.0031658   -0.0047933
h     0.2263974   -2.1364064   -1.1166333  0.00   -0.0008581   -0.0006566    0.0005985
h     2.7889809   -2.9036416   -2.1218905  0.00    0.0010054    0.0003462    0.0005817
h     1.4598900   -3.8586661   -1.7216279  0.00   -0.0005676   -0.0007872    0.0006861
    24
 Energy =       0.0936197047
c     1.5218833    2.5696948    0.4241627  0.00    0.0030025    0.0027535    0.0014053
c     0.1792920    2.7100905    0.5253916  0.00   -0.0008212    0.0025514    0.0017540