    13
 Energy =       0.0910654200
c    -3.7133889    1.6950595    0.3173519  0.00   -0.0533564   -0.0192145    0.0165488
c    -2.4962693    2.6345192    0.2419999  0.00    0.0860749    0.3491190    0.0999860
c    -4.9565486    2.3924193   -0.2155699  0.00    0.0157263    0.0101812    0.0040409
h    -5.2099685    3.2528291    0.4143399  0.00    0.0019565   -0.0135027   -0.0108018
h    -5.8205883    1.7190695   -0.2147749  0.00    0.0085540    0.0152371   -0.0006063
h    -4.8083986    2.7651692   -1.2348596  0.00   -0.0060148   -0.0024482    0.0167039
n    -3.4097890    0.4519539   -0.4549189  0.00    0.1088048   -0.0187824   -0.0369211
h    -3.8575589    1.4177196    1.3669296  0.00    0.0004750   -0.0038261   -0.0222455
h    -3.4845290    0.6754588   -1.4528996  0.00   -0.0003098   -0.0023072    0.0376958
h    -2.4188593    0.2248379   -0.3273229  0.00   -0.0014802    0.0936206   -0.0074621
o    -2.4571893    3.7760389    0.6681628  0.00   -0.0071441   -0.2781438   -0.1092223
o    -1.4389296    2.0221094   -0.3549299  0.00   -0.1106596   -0.1164893    0.0022598
h    -0.6872378    2.6609292   -0.2711979  0.00   -0.0426266   -0.0134438    0.0100240
    13
 Energy =       0.0770139492
c    -3.7162357    1.7252907    0.3181295  0.00   -0.0423051   -0.0109137    0.0151328
c    -2.4906670    2.6448064    0.2193109  0.00    0.0691205    0.2884110    0.0813032
c    -4.9455104    2.4027689   -0.2810152  0.00    0.0146546    0.0091626    0.0044468
h    -5.2749676    3.2329870    0.3642770  0.00    0.0008930   -0.0090447   -0.0063267
h    -5.7867829    1.6956805   -0.3735281  0.00    0.0032312    0.0095014   -0.0013221
h    -4.7262927    2.8189136   -1.2775772  0.00   -0.0034592   -0.0010014    0.0106212
n    -3.4258978    0.4268820   -0.3641860  0.00    0.0906488   -0.0228253   -0.0138500
h    -3.8860302    1.5217158    1.3865541  0.00   -0.0000620   -0.0036859   -0.0154414
h    -3.6076156    0.5298174   -1.3843437  0.00   -0.0037118    0.0001894    0.0104996
h    -2.4170733    0.2262129   -0.2972455  0.00    0.0031169    0.0783496   -0.0049161
o    -2.4464673    3.8143745    0.6543599  0.00   -0.0061061   -0.2291854   -0.0898380
o    -1.4099460    2.0285254   -0.3421437  0.00   -0.1027701   -0.1053330   -0.0017648
h    -0.6257687    2.6201386   -0.1402815  0.00   -0.0232506   -0.0036247    0.0114555
    13
 Energy =       0.0633941719
c    -3.7017462    1.7000401    0.3102481  0.00   -0.0316561   -0.0055825    0.0129088
c    -2.4837167    2.6194781    0.2004146  0.00    0.0555683    0.2306156    0.0647707
c    -4.9676720    2.3931119   -0.1974218  0.00    0.0107567    0.0081671    0.0038597
h    -5.2306927    3.2363670    0.4684247  0.00    0.0003064   -0.0057536   -0.0031780
h    -5.8246456    1.6924595   -0.2147749  0.00   -0.0000929    0.0063144   -0.0011793
h    -4.8214365    2.7947373   -1.2178604  0.00   -0.0022608   -0.0001924    0.0056517
n    -3.4460568    0.4416593   -0.4468243  0.00    0.0715764   -0.0248423   -0.0034284
h    -3.8164755    1.4469743    1.3811006  0.00   -0.0000296   -0.0034293   -0.0097278
h    -3.5500505    0.6410277   -1.4724990  0.00   -0.0040353    0.0032083   -0.0035343
h    -2.4435000    0.2006401   -0.3312867  0.00    0.0069643    0.0650987   -0.0018356
o    -2.4537239    3.8137684    0.6499708  0.00   -0.0054996   -0.1836190   -0.0716265
o    -1.3915821    2.0269189   -0.3765952  0.00   -0.0913483   -0.0941895   -0.0023317
h    -0.6279568    2.6809309   -0.2705861  0.00   -0.0102495    0.0042045    0.0096507
    13
 Energy =       0.0463128543
c    -3.6903621    1.6935727    0.3038199  0.00   -0.0166284   -0.0016529    0.0071425
c    -2.4716271    2.5991297    0.1780503  0.00    0.0297532    0.1215302    0.0340450
c    -4.9720249    2.3876668   -0.1683768  0.00    0.0103699    0.0022193    0.0040618
h    -5.1562066    3.3038313    0.4412501  0.00    0.0001830    0.0025165    0.0025467
h    -5.8490835    1.7055579   -0.0560218  0.00   -0.0065207   -0.0018191    0.0005116
h    -4.8865808    2.6888182   -1.2392157  0.00    0.0002432    0.0009976   -0.0045480
n    -3.4838712    0.4407032   -0.4591367  0.00    0.0384255   -0.0125010   -0.0022680
h    -3.7792168    1.4467021    1.3830379  0.00    0.0000298   -0.0017328   -0.0047560
h    -3.5713303    0.6472149   -1.4839806  0.00   -0.0023708    0.0019282   -0.0020872
h    -2.4830047    0.1633677   -0.3429890  0.00    0.0080712    0.0408916   -0.0008791
o    -2.4577106    3.8402292    0.6543487  0.00   -0.0038552   -0.0972616   -0.0373357
o    -1.3486760    2.0400756   -0.3941548  0.00   -0.0544159   -0.0598619   -0.0017824
h    -0.6095608    2.7312442   -0.3343210  0.00   -0.0032848    0.0047459    0.0053490
    13
 Energy =       0.0409255156
c    -3.6610486    1.6740777    0.3005029  0.00   -0.0088275    0.0005445    0.0054848
c    -2.4529911    2.5876340    0.1363621  0.00    0.0193255    0.0763061    0.0221902
c    -4.9786456    2.3792623   -0.0610438  0.00    0.0030523    0.0015948    0.0033998
h    -5.1367772    3.2650100    0.6000032  0.00   -0.0007736    0.0031843    0.0028580
h    -5.8389251    1.6821054    0.0697423  0.00   -0.0046311   -0.0012204    0.0005074
h    -4.9590099    2.7299628   -1.1215057  0.00    0.0001249    0.0016416   -0.0060740
n    -3.5148158    0.4509438   -0.5201889  0.00    0.0234213   -0.0102487   -0.0012090
h    -3.6792652    1.3887937    1.3783790  0.00    0.0001064   -0.0014935    0.0001858
h    -3.6420208    0.6993185   -1.5328315  0.00   -0.0017679    0.0014448   -0.0043205
h    -2.5134381    0.1432098   -0.4621319  0.00    0.0093837    0.0267730   -0.0008486
o    -2.4485732    3.8514841    0.6148007  0.00   -0.0025218   -0.0614676   -0.0238255
o    -1.3270647    2.0611099   -0.4694808  0.00   -0.0364607   -0.0413725   -0.0016079
h    -0.6066799    2.7752015   -0.4502974  0.00   -0.0004315    0.0043134    0.0032595
    13
 Energy =       0.0358660483
c    -3.6797815    1.6770618    0.2772417  0.00    0.0002836    0.0005322   -0.0010145
c    -2.4575918    2.5761498    0.1469664  0.00   -0.0014961   -0.0001995   -0.0016583
c    -4.9785881    2.3875733   -0.1241187  0.00   -0.0004869   -0.0001540    0.0000513
h    -5.1487208    3.2777481    0.5212962  0.00   -0.0000579    0.0001141    0.0001871
h    -5.8394773    1.6942795   -0.0100636  0.00   -0.0000715   -0.0000948    0.0001024
h    -4.9307928    2.7250965   -1.1821528  0.00   -0.0001727    0.0001710   -0.0004376
n    -3.5555561    0.4502543   -0.5243455  0.00   -0.0288813    0.0038982    0.0185209
h    -3.7352653    1.4064530    1.3583407  0.00    0.0000574   -0.0004529    0.0007245
h    -3.4971371    0.7225964   -1.5521339  0.00    0.0002134    0.0095314   -0.0264447
h    -2.5988155    0.0230784   -0.3060473  0.00    0.0344357   -0.0032262    0.0093460
o    -2.4725186    3.8666506    0.6617355  0.00   -0.0003933    0.0001577    0.0012497
o    -1.2846117    2.0768924   -0.4084094  0.00   -0.0038541   -0.0106309   -0.0007698
h    -0.5803986    2.8042797   -0.3759988  0.00    0.0004236    0.0003538    0.0001432
    13
 Energy =       0.0348326127
c    -3.6838148    1.6521527    0.2454488  0.00   -0.0010559    0.0024068    0.0008046
c    -2.4553455    2.5597387    0.1952148  0.00   -0.0016217    0.0012294    0.0006633
c    -4.9727063    2.3970943   -0.1262143  0.00    0.0006695   -0.0004473    0.0003135
h    -5.1455533    3.2475316    0.5731474  0.00   -0.0000306    0.0017792    0.0013799
h    -5.8403926    1.7031653   -0.0687344  0.00   -0.0009939   -0.0012156    0.0000889
h    -4.9074430    2.8021662   -1.1615645  0.00   -0.0000605    0.0010851   -0.0024542
n    -3.5656049    0.4731924   -0.6333509  0.00   -0.0080526   -0.0040464    0.0025690
h    -3.7568301    1.3136686    1.3080129  0.00   -0.0000311   -0.0009736    0.0025150
h    -3.4790318    0.7946150   -1.6323395  0.00   -0.0007528    0.0018719   -0.0082279
h    -2.6469339   -0.0010650   -0.4236800  0.00    0.0092073    0.0001286    0.0024544
o    -2.5095592    3.8451136    0.7218416  0.00   -0.0001736    0.0010223    0.0007330
o    -1.2449140    2.0829433   -0.2982259  0.00    0.0010212   -0.0040916   -0.0008566
h    -0.5511259    2.8177969   -0.2172457  0.00    0.0018747    0.0012512    0.0000172
    13
 Energy =       0.0345684666
c    -3.6709845    1.6550825    0.2636218  0.00   -0.0010113    0.0011620    0.0008835
c    -2.4606864    2.5825279    0.1684706  0.00   -0.0061281    0.0017922    0.0022273
c    -4.9768673    2.3701383   -0.1042565  0.00    0.0002474   -0.0000458    0.0001216
h    -5.1522289    3.2334362    0.5765486  0.00    0.0000567    0.0007365    0.0006077
h    -5.8325342    1.6652319   -0.0168150  0.00   -0.0007208   -0.0007546    0.0000010
h    -4.9342110    2.7494095   -1.1493168  0.00   -0.0000588    0.0006178   -0.0012925
n    -3.5511702    0.4601745   -0.5899213  0.00   -0.0039540   -0.0018030    0.0014262
h    -3.7214734    1.3419325    1.3341077  0.00    0.0000364   -0.0005544    0.0012801
h    -3.4308656    0.7657951   -1.5877924  0.00   -0.0001868    0.0010554   -0.0034541
h    -2.6513088   -0.0294975   -0.3518216  0.00    0.0039468   -0.0003536    0.0008762
o    -2.5015820    3.8433890    0.7547221  0.00   -0.0019422    0.0026567    0.0020234
o    -1.2798915    2.1530723   -0.4392381  0.00    0.0084067   -0.0049257   -0.0044991
h    -0.5954515    2.8974215   -0.3759988  0.00    0.0013080    0.0004165   -0.0002014
    13
 Energy =       0.0344286909
c    -3.6774035    1.6661854    0.2745106  0.00    0.0009466    0.0004721    0.0002207
c    -2.4693831    2.5934698    0.1786705  0.00    0.0005836   -0.0000883   -0.0006569
c    -4.9733107    2.3647249   -0.1553124  0.00   -0.0009437   -0.0003892    0.0001465
h    -5.1658268    3.2571710    0.4822791  0.00   -0.0003853    0.0009125    0.0006589
h    -5.8303495    1.6647583   -0.0575742  0.00    0.0001935    0.0001198    0.0000354
h    -4.9052851    2.6956144   -1.2150944  0.00   -0.0000703    0.0003804   -0.0010472
n    -3.5327960    0.4422423   -0.5323934  0.00   -0.0029561   -0.0000993    0.0018549
h    -3.7578010    1.3935732    1.3538166  0.00    0.0000336   -0.0000948    0.0008774
h    -3.3440665    0.7133775   -1.5299710  0.00    0.0007291    0.0008607   -0.0034635
h    -2.6635733   -0.0633514   -0.2256591  0.00    0.0029212   -0.0021886    0.0006588
o    -2.4947686    3.8373846    0.7966793  0.00    0.0001463    0.0000649   -0.0001721
o    -1.3132563    2.1886792   -0.4752875  0.00   -0.0008416    0.0001767    0.0008034
h    -0.6314349    2.9342845   -0.4123536  0.00   -0.0003570   -0.0001270    0.0000838
    13
 Energy =       0.0344462063
c    -3.6820419    1.6683760    0.2696205  0.00    0.0008260    0.0004497    0.0002454
c    -2.4707738    2.5925895    0.1822746  0.00   -0.0004499   -0.0000961   -0.0003001
c    -4.9738296    2.3693308   -0.1685914  0.00   -0.0008623   -0.0003341    0.0001414
h    -5.1693141    3.2615101    0.4682764  0.00   -0.0003447    0.0008239    0.0005984
h    -5.8327718    1.6707415   -0.0774654  0.00    0.0001530    0.0000967    0.0000341
h    -4.8978496    2.7011741   -1.2274355  0.00   -0.0000624    0.0003498   -0.0009716
n    -3.5347834    0.4444979   -0.5367308  0.00   -0.0027458   -0.0001040    0.0016964
h    -3.7700948    1.3954955    1.3481708  0.00    0.0000317   -0.0000896    0.0008141
h    -3.3375234    0.7153143   -1.5324955  0.00    0.0006692    0.0007921   -0.0031722
h    -2.6697094   -0.0637376   -0.2230976  0.00    0.0026788   -0.0019903    0.0006105
o    -2.5109194    3.8524759    0.7676706  0.00   -0.0002966    0.0009004    0.0003924
o    -1.2957150    2.1673584   -0.4256932  0.00    0.0006938   -0.0006820   -0.0001502
h    -0.6139291    2.9129873   -0.3621929  0.00   -0.0002907   -0.0001164    0.0000616
    13
 Energy =       0.0344126979
c    -3.6815014    1.6683465    0.2786275  0.00    0.0006641    0.0003447    0.0002677
c    -2.4713656    2.5935003    0.1888127  0.00   -0.0028278   -0.0003547    0.0004975
c    -4.9699551    2.3647684   -0.1748594  0.00   -0.0006486   -0.0002367    0.0000995
h    -5.1677759    3.2644075    0.4503612  0.00   -0.0002561    0.0006544    0.0004729
h    -5.8299532    1.6678602   -0.0800036  0.00    0.0001061    0.0000559    0.0000308
h    -4.8880015    2.6835462   -1.2371096  0.00   -0.0000476    0.0002782   -0.0007728
n    -3.5286991    0.4359461   -0.5133902  0.00   -0.0020597   -0.0002760    0.0011302
h    -3.7764456    1.4070238    1.3593926  0.00    0.0000343   -0.0000700    0.0006487
h    -3.3315684    0.6965416   -1.5114646  0.00    0.0004997    0.0005954   -0.0022917
h    -2.6618611   -0.0642139   -0.1939666  0.00    0.0019443   -0.0014290    0.0004508
o    -2.4883909    3.8251682    0.8357800  0.00   -0.0012935    0.0033582    0.0021808
o    -1.3237091    2.2009063   -0.4948066  0.00    0.0040699   -0.0029315   -0.0027838
h    -0.6400285    2.9443126   -0.4250631  0.00   -0.0001852    0.0000110    0.0000692
    13
 Energy =       0.0343515706
c    -3.6963554    1.6802862    0.2918719  0.00    0.0013577    0.0011011    0.0005671
c    -2.4791566    2.5972714    0.2169803  0.00   -0.0005534   -0.0000305    0.0000965
c    -4.9588372    2.3630121   -0.2521348  0.00   -0.0019901    0.0000835    0.0003071
h    -5.1787809    3.2915500    0.3228500  0.00   -0.0006459    0.0013647    0.0008916
h    -5.8276532    1.6756740   -0.1650542  0.00   -0.0002330   -0.0000006    0.0001159
h    -4.8259977    2.6324216   -1.3243948  0.00    0.0000937    0.0006049   -0.0022333
n    -3.5122315    0.4120528   -0.4369455  0.00   -0.0008586   -0.0022062   -0.0004558
h    -3.8434133    1.4676217    1.3792333  0.00   -0.0002116   -0.0002956    0.0023537
h    -3.2826979    0.6270012   -1.4389198  0.00    0.0004175    0.0002612   -0.0020916
h    -2.6551285   -0.0679872   -0.0658650  0.00    0.0016997   -0.0011114    0.0005908
o    -2.4732179    3.7997619    0.9139019  0.00   -0.0004089    0.0014415    0.0008412
o    -1.3573432    2.2359615   -0.5208134  0.00    0.0012579   -0.0014559   -0.0010695
h    -0.6684419    2.9734866   -0.4383996  0.00    0.0000750    0.0002435    0.0000865
    13
 Energy =       0.0343089121
c    -3.6965241    1.6807172    0.3000084  0.00    0.0006610    0.0004903    0.0002505
c    -2.4800646    2.5978694    0.2246344  0.00   -0.0027271   -0.0004012    0.0011096
c    -4.9526526    2.3560171   -0.2628375  0.00   -0.0008815    0.0000435    0.0001288
h    -5.1767802    3.2906981    0.2987413  0.00   -0.0002735    0.0006354    0.0004315
h    -5.8221706    1.6696822   -0.1757391  0.00   -0.0000947   -0.0000018    0.0000525
h    -4.8098991    2.6122544   -1.3359175  0.00    0.0000267    0.0002833   -0.0010122
n    -3.5058488    0.4044879   -0.4108317  0.00   -0.0004868   -0.0011391   -0.0002222
h    -3.8535205    1.4811352    1.3873592  0.00   -0.0000700   -0.0001286    0.0010657
h    -3.2728505    0.6072979   -1.4139882  0.00    0.0001999    0.0001462   -0.0009604
h    -2.6495506   -0.0678978   -0.0305061  0.00    0.0007851   -0.0004832    0.0002533
o    -2.4465517    3.7657590    0.9796637  0.00   -0.0011596    0.0032593    0.0025701
o    -1.3922035    2.2779873   -0.5838178  0.00    0.0039748   -0.0029158   -0.0037516
h    -0.7006385    3.0121057   -0.4944588  0.00    0.0000455    0.0002117    0.0000845
    13
 Energy =       0.0342531807
c    -3.7107360    1.6944564    0.3108225  0.00    0.0011075    0.0012842    0.0004742
c    -2.4883570    2.6036744    0.2458564  0.00   -0.0002012   -0.0000766    0.0001950
c    -4.9382528    2.3490041   -0.3361138  0.00   -0.0017488    0.0000409    0.0001826
h    -5.1822255    3.3088214    0.1738218  0.00   -0.0006131    0.0013556    0.0007592
h    -5.8142773    1.6700038   -0.2568891  0.00   -0.0001621    0.0000269    0.0000791
h    -4.7471930    2.5565772   -1.4132853  0.00    0.0001648    0.0004298   -0.0020262
n    -3.4944434    0.3861300   -0.3331753  0.00   -0.0014392   -0.0019167    0.0001754
h    -3.9158552    1.5443983    1.3992600  0.00   -0.0002796   -0.0001579    0.0021087
h    -3.2245708    0.5424231   -1.3366333  0.00    0.0006967    0.0001546   -0.0026563
h    -2.6536492   -0.0694882    0.1004824  0.00    0.0020233   -0.0013139    0.0008826
o    -2.4310752    3.7423251    1.0397629  0.00   -0.0002927    0.0008883    0.0005348
o    -1.4277769    2.3160375   -0.6052249  0.00    0.0007235   -0.0008487   -0.0007790
h    -0.7308430    3.0437506   -0.5063740  0.00    0.0000209    0.0001334    0.0000700
    13
 Energy =       0.0342208721
c    -3.7096659    1.6936671    0.3164543  0.00    0.0006914    0.0007982    0.0002536
c    -2.4878686    2.6030865    0.2502736  0.00   -0.0018534   -0.0006278    0.0009638
c    -4.9334835    2.3427492   -0.3404394  0.00   -0.0010694    0.0000399    0.0001031
h    -5.1803861    3.3050355    0.1620004  0.00   -0.0003661    0.0008400    0.0004822
h    -5.8093555    1.6635005   -0.2619790  0.00   -0.0000979    0.0000162    0.0000487
h    -4.7365362    2.5436079   -1.4171477  0.00    0.0000960    0.0002643   -0.0012493
n    -3.4897477    0.3816623   -0.3170828  0.00   -0.0009251   -0.0012613    0.0001141
h    -3.9200782    1.5507807    1.4041927  0.00   -0.0001607   -0.0000894    0.0013021
h    -3.2176872    0.5312162   -1.3204491  0.00    0.0004258    0.0001032   -0.0016350
h    -2.6505587   -0.0699073    0.1222055  0.00    0.0012510   -0.0007886    0.0005243
o    -2.4017786    3.7064772    1.0921542  0.00   -0.0008315    0.0025811    0.0023564
o    -1.4612680    2.3563904   -0.6564693  0.00    0.0028078   -0.0020530   -0.0033644
h    -0.7608411    3.0798474   -0.5514029  0.00    0.0000321    0.0001770    0.0001004
    13
 Energy =       0.0341635174
c    -3.7184141    1.7041272    0.3251025  0.00    0.0003287    0.0005783    0.0001729
c    -2.4942808    2.6098809    0.2617650  0.00   -0.0005510   -0.0003726    0.0003421
c    -4.9198471    2.3289089   -0.3918672  0.00   -0.0005079   -0.0000244   -0.0000111
h    -5.1818438    3.3075332    0.0684717  0.00   -0.0001943    0.0004949    0.0002742
h    -5.7979720    1.6520896   -0.3183255  0.00   -0.0000300    0.0000148    0.0000012
h    -4.6880630    2.4920844   -1.4675362  0.00    0.0000426    0.0001058   -0.0006273
n    -3.4806779    0.3705577   -0.2533460  0.00   -0.0006678   -0.0007084    0.0000800
h    -3.9624199    1.6003471    1.4098059  0.00   -0.0000748   -0.0000243    0.0006597
h    -3.1789865    0.4836859   -1.2527467  0.00    0.0002481    0.0000236   -0.0009887
h    -2.6574476   -0.0662617    0.2278943  0.00    0.0008040   -0.0005161    0.0003597
o    -2.3743371    3.6725219    1.1487334  0.00   -0.0003253    0.0010610    0.0009033
o    -1.5056917    2.4081642   -0.6942938  0.00    0.0009108   -0.0007166   -0.0012210
h    -0.7992738    3.1244744   -0.5813468  0.00    0.0000168    0.0000840    0.0000550
    13
 Energy =       0.0341421347
c    -3.7223175    1.7096997    0.3310689  0.00    0.0002661    0.0005137    0.0001308
c    -2.4976940    2.6143254    0.2672267  0.00   -0.0013238   -0.0008650    0.0006704
c    -4.9113820    2.3175106   -0.4198994  0.00   -0.0004401   -0.0000106   -0.0000253
h    -5.1827528    3.3050629    0.0148147  0.00   -0.0001720    0.0004376    0.0002259
h    -5.7898389    1.6409246   -0.3482063  0.00   -0.0000280    0.0000100    0.0000020
h    -4.6600165    2.4582560   -1.4943810  0.00    0.0000530    0.0000753   -0.0005495
n    -3.4736437    0.3643274   -0.2140757  0.00   -0.0006340   -0.0006094    0.0000878
h    -3.9850005    1.6291261    1.4134285  0.00   -0.0000767   -0.0000041    0.0005729
h    -3.1527258    0.4561600   -1.2097104  0.00    0.0002463   -0.0000050   -0.0008745
h    -2.6617519   -0.0635455    0.2933933  0.00    0.0007175   -0.0004485    0.0003507
o    -2.3454550    3.6384675    1.1949382  0.00   -0.0005237    0.0020460    0.0022392
o    -1.5441917    2.4538806   -0.7327066  0.00    0.0018780   -0.0012726   -0.0029242
h    -0.8324850    3.1639185   -0.6135804  0.00    0.0000374    0.0001325    0.0000938
    13
 Energy =       0.0341207693
c    -3.7307967    1.7208825    0.3356478  0.00    0.0003535    0.0006616    0.0002854
c    -2.5052578    2.6240116    0.2725475  0.00    0.0002932   -0.0000252   -0.0001532
c    -4.9005119    2.3020665   -0.4654800  0.00   -0.0006243   -0.0000614   -0.0000520
h    -5.1850735    3.3023602   -0.0699370  0.00   -0.0002594    0.0006075    0.0002466
h    -5.7794837    1.6259183   -0.3961132  0.00   -0.0000368    0.0000117    0.0000004
h    -4.6202375    2.4091404   -1.5369712  0.00    0.0001041    0.0000745   -0.0007336
n    -3.4665854    0.3590707   -0.1593093  0.00   -0.0008742   -0.0006613    0.0000857
h    -4.0215933    1.6747801    1.4131080  0.00   -0.0001447    0.0000196    0.0007549
h    -3.1153093    0.4195891   -1.1473754  0.00    0.0004126   -0.0000570   -0.0012068
h    -2.6726828   -0.0543249    0.3874350  0.00    0.0009786   -0.0006339    0.0006162
o    -2.3306746    3.6214790    1.2225641  0.00   -0.0000096    0.0000005   -0.0001545
o    -1.5736840    2.4892975   -0.7485972  0.00   -0.0002013    0.0000480    0.0003059
h    -0.8573648    3.1938427   -0.6252088  0.00    0.0000083    0.0000153    0.0000050
    13
 Energy =       0.0341162204
c    -3.7280568    1.7188958    0.3375894  0.00    0.0002696    0.0005469    0.0002387
c    -2.5034504    2.6229275    0.2711225  0.00   -0.0001943   -0.0003358    0.0000080
c    -4.9006122    2.2996012   -0.4593596  0.00   -0.0005054   -0.0000425   -0.0000437
h    -5.1852920    3.2989112   -0.0618954  0.00   -0.0002081    0.0004872    0.0001983
h    -5.7785196    1.6222161   -0.3886248  0.00   -0.0000311    0.0000083    0.0000012
h    -4.6231950    2.4084086   -1.5313268  0.00    0.0000863    0.0000592   -0.0005911
n    -3.4639750    0.3580947   -0.1596415  0.00   -0.0007006   -0.0005421    0.0000743
h    -4.0156417    1.6712644    1.4157497  0.00   -0.0001167    0.0000148    0.0006095
h    -3.1140344    0.4202395   -1.1479623  0.00    0.0003315   -0.0000457   -0.0009683
h    -2.6699912   -0.0562419    0.3859354  0.00    0.0007823   -0.0005045    0.0004917
o    -2.3076199    3.5962742    1.2425720  0.00   -0.0001236    0.0005939    0.0006806
o    -1.5941837    2.5133038   -0.7737012  0.00    0.0003906   -0.0002819   -0.0007263
h    -0.8746832    3.2142184   -0.6481469  0.00    0.0000197    0.0000422    0.0000270
    13
 Energy =       0.0341114714
c    -3.7283749    1.7205835    0.3395586  0.00   -0.0000733   -0.0000993   -0.0000412
c    -2.5044631    2.6252320    0.2707797  0.00   -0.0002745   -0.0002202    0.0000523
c    -4.8976550    2.2928133   -0.4665360  0.00    0.0001224    0.0000126    0.0000039
h    -5.1855293    3.2940739   -0.0783136  0.00    0.0000500   -0.0001066   -0.0000355
h    -5.7746819    1.6143757   -0.3951153  0.00    0.0000077   -0.0000039   -0.0000017
h    -4.6151223    2.3941650   -1.5372481  0.00   -0.0000239   -0.0000113    0.0001376
n    -3.4606204    0.3571216   -0.1458436  0.00    0.0001365    0.0001083   -0.0000160
h    -4.0207184    1.6806716    1.4160898  0.00    0.0000335   -0.0000100   -0.0001393
h    -3.1037946    0.4126164   -1.1313767  0.00   -0.0000810    0.0000155    0.0002080
h    -2.6717222   -0.0531709    0.4086324  0.00   -0.0001604    0.0001035   -0.0001151
o    -2.2876225    3.5743316    1.2613726  0.00   -0.0000650    0.0003900    0.0005258
o    -1.6160245    2.5392868   -0.7938390  0.00    0.0003189   -0.0002011   -0.0005973
h    -0.8929262    3.2360133   -0.6658503  0.00    0.0000091    0.0000224    0.0000184
    13
 Energy =       0.0341108510
c    -3.7284506    1.7204917    0.3399365  0.00    0.0000218    0.0000296    0.0000080
c    -2.5038239    2.6241543    0.2714750  0.00    0.0000350    0.0000076   -0.0000269
c    -4.8968542    2.2931727   -0.4675125  0.00   -0.0000370   -0.0000024   -0.0000006
h    -5.1846705    3.2948449   -0.0799445  0.00   -0.0000151    0.0000320    0.0000125
h    -5.7742965    1.6152150   -0.3966623  0.00   -0.0000027    0.0000011    0.0000015
h    -4.6132080    2.3939335   -1.5381767  0.00    0.0000070    0.0000042   -0.0000410
n    -3.4609656    0.3565573   -0.1447634  0.00   -0.0000457   -0.0000318    0.0000039
h    -4.0217508    1.6812382    1.4164223  0.00   -0.0000099    0.0000013    0.0000425
h    -3.1022532    0.4114775   -1.1298355  0.00    0.0000255   -0.0000035   -0.0000666
h    -2.6736838   -0.0547097    0.4115958  0.00    0.0000518   -0.0000336    0.0000358
o    -2.2781104    3.5626593    1.2696347  0.00    0.0000095   -0.0000131   -0.0000330
o    -1.6231899    2.5474319   -0.7997710  0.00   -0.0000426    0.0000043    0.0000617
h    -0.8979979    3.2416471   -0.6700879  0.00    0.0000025    0.0000043    0.0000021
    13
 Energy =       0.0341108231
c    -3.7285789    1.7205869    0.3400670  0.00    0.0000000    0.0000001   -0.0000005
c    -2.5036817    2.6238752    0.2717273  0.00   -0.0000045   -0.0000057   -0.0000011
c    -4.8964231    2.2931518   -0.4681792  0.00   -0.0000001    0.0000002   -0.0000000
h    -5.1842345    3.2950021   -0.0811839  0.00   -0.0000001    0.0000001    0.0000000
h    -5.7740250    1.6153780   -0.3975612  0.00   -0.0000001   -0.0000000   -0.0000000
h    -4.6121658    2.3934499   -1.5386914  0.00    0.0000001    0.0000000   -0.0000003
n    -3.4611906    0.3564298   -0.1439166  0.00   -0.0000006   -0.0000001    0.0000003
h    -4.0224180    1.6818479    1.4163891  0.00   -0.0000001   -0.0000001    0.0000003
h    -3.1017833    0.4108845   -1.1287221  0.00    0.0000002    0.0000000   -0.0000006
h    -2.6745446   -0.0549186    0.4132011  0.00    0.0000006   -0.0000003    0.0000004
o    -2.2752516    3.5591166    1.2723649  0.00   -0.0000003    0.0000095    0.0000127
o    -1.6254128    2.5499554   -0.8017124  0.00    0.0000042   -0.0000047   -0.0000120
h    -0.8995454    3.2433542   -0.6714721  0.00    0.0000006    0.0000011    0.0000008
    13
 Energy =       0.0341108230
c    -3.7285744    1.7205845    0.3400603  0.00   -0.0000000    0.0000000   -0.0000000
c    -2.5036885    2.6238882    0.2717150  0.00   -0.0000000   -0.0000000   -0.0000000
c    -4.8964401    2.2931508   -0.4681532  0.00   -0.0000000    0.0000000   -0.0000000
h    -5.1842508    3.2949934   -0.0811371  0.00   -0.0000000    0.0000000   -0.0000000
h    -5.7740352    1.6153694   -0.3975247  0.00   -0.0000000   -0.0000000   -0.0000000
h    -4.6122081    2.3934660   -1.5386700  0.00    0.0000000   -0.0000000   -0.0000000
n    -3.4611833    0.3564372   -0.1439493  0.00   -0.0000000   -0.0000000    0.0000000
h    -4.0223915    1.6818262    1.4163872  0.00   -0.0000000    0.0000000    0.0000000
h    -3.1018049    0.4109094   -1.1287639  0.00    0.0000000   -0.0000000   -0.0000000
h    -2.6745122   -0.0549051    0.4131368  0.00    0.0000000   -0.0000000    0.0000000
o    -2.2753737    3.5592647    1.2722407  0.00    0.0000000    0.0000000    0.0000000
o    -1.6253160    2.5498487   -0.8016235  0.00    0.0000000   -0.0000000   -0.0000000
h    -0.8994765    3.2432803   -0.6714079  0.00    0.0000000    0.0000000    0.0000000
