    13
 Energy =       0.0922731002
c    -3.7133889    1.6950595    0.3173519  0.00   -0.0811266    0.0219319    0.0950099
c    -2.4962693    2.6345192    0.2419999  0.00    0.2325758    0.1076993   -0.3212493
c    -4.9565486    2.3924193   -0.2155699  0.00    0.0119008    0.0212242    0.0103941
h    -5.8072983    1.7014095   -0.2223689  0.00    0.0084640    0.0133910   -0.0003928
h    -4.8071186    2.7393792   -1.2437896  0.00   -0.0075206   -0.0030490    0.0168521
h    -5.2375685    3.2516891    0.4029209  0.00   -0.0021061   -0.0136750   -0.0118114
n    -3.4097890    0.4519539   -0.4549189  0.00    0.0781588   -0.0528481   -0.0137707
h    -3.8575589    1.4177196    1.3669296  0.00    0.0110760   -0.0076769   -0.0270217
h    -2.5963493    0.6418898   -1.0496997  0.00   -0.0227410    0.0173311    0.0453428
h    -3.0749291   -0.2623099    0.1989099  0.00   -0.0097079    0.0305380   -0.0224480
o    -1.9513094    3.0041591   -0.7839488  0.00   -0.1414196   -0.0894151    0.2453633
o    -2.1005994    3.0267291    1.4825496  0.00   -0.0373141   -0.0303627   -0.0072031
h    -1.1397697    2.7938992    1.5347396  0.00   -0.0402396   -0.0150887   -0.0090650
    13
 Energy =       0.0712990816
c    -3.6759271    1.6902734    0.3070998  0.00   -0.0447230    0.0137218    0.0515410
c    -2.5012465    2.6698379    0.2633034  0.00    0.1319881    0.0482969   -0.1812456
c    -4.9550496    2.3608218   -0.1837796  0.00    0.0062122    0.0125605    0.0053591
h    -5.7886358    1.6384838   -0.1753929  0.00    0.0042593    0.0068751   -0.0000699
h    -4.8324735    2.7242392   -1.2188336  0.00   -0.0041888   -0.0013795    0.0088141
h    -5.2321463    3.2134484    0.4587327  0.00   -0.0013018   -0.0073977   -0.0063012
n    -3.3940458    0.4879121   -0.5199334  0.00    0.0411187   -0.0236918   -0.0140371
h    -3.7958967    1.3859363    1.3631349  0.00    0.0067144   -0.0042017   -0.0139244
h    -2.5694765    0.6728094   -1.1206764  0.00   -0.0119773    0.0109743    0.0257248
h    -3.1254294   -0.3072161    0.0944626  0.00   -0.0034853    0.0087879   -0.0072500
o    -1.9492368    3.0618716   -0.8397154  0.00   -0.0779856   -0.0486671    0.1359994
o    -2.1167820    3.1854823    1.4773718  0.00   -0.0843364    0.0299937   -0.0029651
h    -1.2121510    2.7046166    1.6693316  0.00    0.0377056   -0.0458723   -0.0016450
    13
 Energy =       0.0678820855
c    -3.6611866    1.6797154    0.3070464  0.00   -0.0379869    0.0106917    0.0431084
c    -2.5146017    2.6911144    0.2538528  0.00    0.1121385    0.0411213   -0.1547109
c    -4.9694050    2.3198726   -0.1516129  0.00    0.0150108    0.0049704    0.0063806
h    -5.7459451    1.5280931   -0.2917637  0.00   -0.0047910   -0.0057148   -0.0010034
h    -4.8260746    2.8475276   -1.1284071  0.00    0.0005521    0.0056212   -0.0048744
h    -5.3447353    3.0546953    0.6068211  0.00   -0.0066232    0.0050034    0.0068012
n    -3.3717640    0.4929345   -0.5382301  0.00    0.0347152   -0.0199585   -0.0123710
h    -3.7535646    1.3618449    1.3643007  0.00    0.0055227   -0.0039586   -0.0113987
h    -2.5390720    0.6808970   -1.1303440  0.00   -0.0100756    0.0093956    0.0218144
h    -3.1186880   -0.3180542    0.0641523  0.00   -0.0028658    0.0070723   -0.0058585
o    -1.9726689    3.0816711   -0.8714216  0.00   -0.0664942   -0.0413858    0.1154397
o    -2.1318216    3.2439619    1.4543676  0.00   -0.0742783    0.0279204   -0.0029251
h    -1.1989697    2.8242431    1.6363440  0.00    0.0351757   -0.0407785   -0.0004025
    13
 Energy =       0.0635240373
c    -3.6654095    1.6827748    0.3195044  0.00   -0.0287569    0.0118393    0.0387929
c    -2.5644620    2.7426212    0.2772837  0.00    0.0911972    0.0335776   -0.1228004
c    -4.9778855    2.2385591   -0.2434943  0.00    0.0091752    0.0035541    0.0025721
h    -5.7181690    1.4098519   -0.3650938  0.00   -0.0047649   -0.0057304   -0.0014996
h    -4.8096491    2.7052245   -1.2480163  0.00   -0.0002398    0.0055149   -0.0064025
h    -5.4113692    3.0101001    0.4480679  0.00   -0.0067936    0.0072304    0.0082092
n    -3.2847856    0.4659274   -0.4502098  0.00    0.0275943   -0.0194427   -0.0172989
h    -3.8067828    1.4194417    1.3904601  0.00    0.0045828   -0.0028122   -0.0061595
h    -2.4328964    0.6583892   -1.0184943  0.00   -0.0068796    0.0063791    0.0169533
h    -3.0167653   -0.2982238    0.2108920  0.00   -0.0005553    0.0018626   -0.0021328
o    -2.0302693    3.1583666   -0.8613330  0.00   -0.0534211   -0.0323973    0.0922810
o    -2.1972543    3.3177428    1.4748782  0.00   -0.0645913    0.0258058   -0.0033816
h    -1.2327992    2.9777411    1.6406608  0.00    0.0334529   -0.0353813    0.0008668
    13
 Energy =       0.0616408007
c    -3.6845089    1.6931357    0.3211034  0.00   -0.0278564    0.0114703    0.0370273
c    -2.5216338    2.6885909    0.2835299  0.00    0.0860019    0.0307587   -0.1197089
c    -4.9716724    2.3275954   -0.2238751  0.00    0.0079048    0.0046277    0.0014442
h    -5.7559192    1.5392848   -0.3495153  0.00   -0.0057590   -0.0065909   -0.0016514
h    -4.7871507    2.7961080   -1.2243058  0.00   -0.0003161    0.0053929   -0.0061873
h    -5.3596134    3.1125169    0.4799286  0.00   -0.0069147    0.0077738    0.0082934
n    -3.3798627    0.4656173   -0.4671257  0.00    0.0234106   -0.0188781   -0.0186107
h    -3.8305415    1.4256173    1.3908494  0.00    0.0042126   -0.0027863   -0.0056536
h    -2.5091833    0.6071426   -1.0250758  0.00   -0.0043056    0.0063024    0.0147199
h    -3.1755184   -0.3315115    0.1818607  0.00    0.0006053   -0.0019431    0.0000388
o    -2.0070635    3.1211915   -0.8624503  0.00   -0.0506970   -0.0306687    0.0864125
o    -2.0714972    3.1904459    1.4903847  0.00   -0.0625535    0.0297328    0.0028299
h    -1.0943322    2.8527819    1.5797968  0.00    0.0362671   -0.0351914    0.0010458
    13
 Energy =       0.0577790557
c    -3.6950441    1.7003341    0.3260725  0.00   -0.0223018    0.0098240    0.0284450
c    -2.5017193    2.6575599    0.2854334  0.00    0.0676417    0.0213856   -0.0959335
c    -4.9659963    2.3716100   -0.2111136  0.00    0.0064054    0.0038259    0.0008492
h    -5.7776787    1.6100733   -0.3171631  0.00   -0.0051436   -0.0058127   -0.0013661
h    -4.7755659    2.8176555   -1.2192345  0.00   -0.0000639    0.0043770   -0.0050753
h    -5.3171826    3.1781589    0.4843960  0.00   -0.0058676    0.0067089    0.0070253
n    -3.4396426    0.4664669   -0.4655154  0.00    0.0123635   -0.0104294   -0.0172739
h    -3.8436174    1.4398888    1.3985366  0.00    0.0031421   -0.0021126   -0.0042662
h    -2.5290592    0.5468410   -0.9792776  0.00    0.0018885    0.0060214    0.0089216
h    -3.3342715   -0.3580864    0.1806595  0.00    0.0014551   -0.0084680    0.0048741
o    -2.0296950    3.1353596   -0.8778149  0.00   -0.0406141   -0.0235309    0.0649044
o    -1.9723535    3.0922026    1.4907212  0.00   -0.0601352    0.0303902    0.0084622
h    -0.9666710    2.8304524    1.4794054  0.00    0.0412302   -0.0321794    0.0004333
    13
 Energy =       0.0548162299
c    -3.6881539    1.7022358    0.3259514  0.00   -0.0150257    0.0069676    0.0202285
c    -2.5068365    2.6707810    0.2785763  0.00    0.0472187    0.0108293   -0.0648022
c    -4.9690699    2.3583263   -0.2014364  0.00    0.0048102    0.0025397    0.0008359
h    -5.7840178    1.5983793   -0.2684960  0.00   -0.0040629   -0.0045527   -0.0010866
h    -4.7964897    2.7717313   -1.2254654  0.00    0.0001189    0.0033184   -0.0042099
h    -5.2999640    3.1858853    0.4747183  0.00   -0.0041598    0.0049728    0.0053300
n    -3.4356937    0.4728703   -0.4676292  0.00   -0.0098887    0.0076719   -0.0188002
h    -3.8249761    1.4454280    1.4024406  0.00    0.0020642   -0.0012011   -0.0026619
h    -2.4490423    0.4810610   -0.8591006  0.00    0.0207903    0.0057015   -0.0016317
h    -3.4930246   -0.3790419    0.1672266  0.00   -0.0004359   -0.0227354    0.0172223
o    -2.1004201    3.2274046   -0.8955073  0.00   -0.0281694   -0.0134461    0.0385767
o    -1.9128628    3.0484633    1.4754582  0.00   -0.0597392    0.0269828    0.0128874
h    -0.8879455    2.9049928    1.3683692  0.00    0.0464792   -0.0270486   -0.0018883
    13
 Energy =       0.0535443808
c    -3.6692981    1.6976812    0.3355053  0.00   -0.0108396    0.0040271    0.0162426
c    -2.5250633    2.7080155    0.2458945  0.00    0.0340009   -0.0011482   -0.0392311
c    -4.9926068    2.3057525   -0.1463921  0.00    0.0026049    0.0030039    0.0013609
h    -5.7905035    1.5250178   -0.1583835  0.00   -0.0044742   -0.0044780   -0.0009031
h    -4.8764861    2.6983886   -1.1870642  0.00    0.0001932    0.0031908   -0.0048760
h    -5.3116712    3.1413133    0.5224539  0.00   -0.0030307    0.0037351    0.0041417
n    -3.4072963    0.4774244   -0.4645120  0.00   -0.0073220    0.0055470   -0.0140323
h    -3.7579288    1.4394769    1.4186472  0.00    0.0014377   -0.0014151   -0.0009155
h    -2.4174454    0.4818711   -0.8391136  0.00    0.0156571    0.0044026   -0.0014327
h    -3.4831251   -0.3770844    0.1579391  0.00   -0.0002687   -0.0171478    0.0131010
o    -2.2591732    3.3778757   -0.9324543  0.00   -0.0193023   -0.0000959    0.0103010
o    -1.8381253    3.0347763    1.4112066  0.00   -0.0556422    0.0227095    0.0199138
h    -0.8197740    2.9780076    1.2113787  0.00    0.0469858   -0.0223309   -0.0036703
    13
 Energy =       0.0534996926
c    -3.6454267    1.7035492    0.3490235  0.00   -0.0108985    0.0021501    0.0152129
c    -2.5341299    2.7432456    0.1654126  0.00    0.0315024   -0.0013303   -0.0366972
c    -5.0086220    2.2581651   -0.0901483  0.00    0.0015094    0.0034626    0.0015969
h    -5.7844526    1.4546168   -0.0475071  0.00   -0.0056782   -0.0055443   -0.0008097
h    -4.9486259    2.6261054   -1.1462407  0.00    0.0000448    0.0037386   -0.0064671
h    -5.3226347    3.1027160    0.5693372  0.00   -0.0028137    0.0036435    0.0040701
n    -3.3880323    0.4633462   -0.4208393  0.00   -0.0109305    0.0074952   -0.0148564
h    -3.6708081    1.4812139    1.4459067  0.00    0.0014377   -0.0020327    0.0017479
h    -2.3772574    0.4253180   -0.7390960  0.00    0.0189622    0.0031209   -0.0030037
h    -3.5288155   -0.3798535    0.2079529  0.00   -0.0007638   -0.0191098    0.0145136
o    -2.3277274    3.3575243   -1.0586681  0.00   -0.0174159    0.0023194    0.0048531
o    -1.8113021    3.1465673    1.2873466  0.00   -0.0508784    0.0232552    0.0233049
h    -0.8006625    3.1060024    1.0526256  0.00    0.0459225   -0.0211685   -0.0034653
    13
 Energy =       0.0504710607
c    -3.6733852    1.7027579    0.3490262  0.00   -0.0102556    0.0000837    0.0161413
c    -2.4927222    2.6743110    0.2066204  0.00    0.0274670   -0.0030546   -0.0271539
c    -4.9900964    2.3442191   -0.1216116  0.00   -0.0002246    0.0052504    0.0010023
h    -5.8141765    1.5867605   -0.0999536  0.00   -0.0069903   -0.0066686   -0.0005593
h    -4.8826759    2.7115175   -1.1745284  0.00    0.0000097    0.0041072   -0.0069296
h    -5.2692371    3.2039152    0.5342232  0.00   -0.0029953    0.0040677    0.0038878
n    -3.4738793    0.4532578   -0.4255228  0.00   -0.0122602    0.0051631   -0.0139107
h    -3.7435401    1.4728979    1.4432017  0.00    0.0013443   -0.0028610    0.0024574
h    -2.4826411    0.3987898   -0.8012581  0.00    0.0203768    0.0022221   -0.0040372
h    -3.5920723   -0.3836745    0.2148318  0.00   -0.0009988   -0.0177698    0.0139001
o    -2.1689743    3.2360891   -1.0235569  0.00   -0.0119652    0.0068542   -0.0038723
o    -1.7878798    3.0403762    1.3529916  0.00   -0.0472657    0.0217029    0.0233763
h    -0.7772171    3.0472993    1.1206419  0.00    0.0437579   -0.0190972   -0.0043023
    13
 Energy =       0.0460443615
c    -3.7044617    1.7017030    0.3499057  0.00   -0.0079591   -0.0022421    0.0139969
c    -2.4541397    2.5902741    0.2574661  0.00    0.0172686   -0.0030819   -0.0125285
c    -4.9601086    2.4350611   -0.1561303  0.00   -0.0018960    0.0061989   -0.0001225
h    -5.8360892    1.7373591   -0.1446267  0.00   -0.0073457   -0.0067711   -0.0000637
h    -4.8029630    2.7821360   -1.2086309  0.00    0.0002102    0.0037715   -0.0061766
h    -5.1918129    3.3190955    0.4851321  0.00   -0.0029492    0.0042822    0.0032267
n    -3.5713548    0.4459996   -0.4288689  0.00   -0.0128124    0.0020805   -0.0103055
h    -3.8286074    1.4694542    1.4393808  0.00    0.0008640   -0.0033897    0.0029622
h    -2.6132547    0.3795687   -0.8810274  0.00    0.0197070    0.0006002   -0.0053334
h    -3.6503094   -0.3835384    0.2222013  0.00   -0.0013096   -0.0134120    0.0112042
o    -2.0102212    3.0873065   -0.9697957  0.00   -0.0026223    0.0094195   -0.0115188
o    -1.7625835    2.9077959    1.4251217  0.00   -0.0398936    0.0154649    0.0212539
h    -0.7625911    3.0163013    1.1849779  0.00    0.0387380   -0.0129209   -0.0065950
    13
 Energy =       0.0420771908
c    -3.7401185    1.7004239    0.3520669  0.00   -0.0041413   -0.0046515    0.0090129
c    -2.4287813    2.4985070    0.3241049  0.00    0.0095706   -0.0002616   -0.0041285
c    -4.9169929    2.5175315   -0.2111586  0.00   -0.0030862    0.0060005   -0.0005911
h    -5.8425257    1.8887372   -0.2120121  0.00   -0.0066467   -0.0057433    0.0005081
h    -4.6997799    2.8262869   -1.2638002  0.00    0.0006302    0.0031628   -0.0053981
h    -5.1010110    3.4308337    0.4024722  0.00   -0.0026392    0.0039940    0.0022509
n    -3.6634388    0.4381028   -0.4196336  0.00   -0.0208288    0.0073957   -0.0070125
h    -3.9382166    1.4797513    1.4340022  0.00   -0.0001674   -0.0034161    0.0040161
h    -2.7720079    0.4003850   -1.0042470  0.00    0.0256970   -0.0006708   -0.0124659
h    -3.6216527   -0.3802183    0.2525354  0.00   -0.0018264   -0.0153619    0.0148568
o    -1.8918795    2.9555538   -0.8823193  0.00    0.0023797    0.0074687   -0.0108506
o    -1.7555623    2.7562869    1.5156306  0.00   -0.0284400    0.0077894    0.0171904
h    -0.7765300    2.9763350    1.2874641  0.00    0.0294986   -0.0057061   -0.0073885
    13
 Energy =       0.0386572433
c    -3.7787541    1.7038187    0.3524023  0.00   -0.0003717   -0.0060870    0.0035259
c    -2.4194255    2.4094644    0.4022923  0.00    0.0051645    0.0003242   -0.0003226
c    -4.8580331    2.5864438   -0.3001824  0.00   -0.0042105    0.0056253   -0.0001421
h    -5.8266651    2.0303757   -0.3287942  0.00   -0.0055978   -0.0040461    0.0008801
h    -4.5639620    2.8412004   -1.3487240  0.00    0.0013020    0.0027244   -0.0057465
h    -5.0033598    3.5310654    0.2731560  0.00   -0.0022344    0.0033110    0.0013287
n    -3.7360505    0.4279219   -0.3914746  0.00   -0.0216645    0.0118786   -0.0058210
h    -4.0687138    1.5151391    1.4210542  0.00   -0.0017750   -0.0029435    0.0056373
h    -2.9307610    0.4292007   -1.0901043  0.00    0.0229707    0.0001618   -0.0147603
h    -3.5506504   -0.3640341    0.2910318  0.00    0.0001934   -0.0173396    0.0174019
o    -1.7960310    2.8382532   -0.7714949  0.00    0.0038037    0.0048851   -0.0084777
o    -1.7862340    2.6131219    1.6247701  0.00   -0.0160696    0.0021166    0.0119761
h    -0.8298569    2.9265456    1.4411732  0.00    0.0184892   -0.0006109   -0.0054798
    13
 Energy =       0.0362472376
c    -3.8087272    1.7073305    0.3481941  0.00    0.0006486   -0.0047588    0.0012901
c    -2.4226014    2.3381595    0.4715169  0.00    0.0017231   -0.0006973    0.0010425
c    -4.7963630    2.6342233   -0.3773185  0.00   -0.0029290    0.0038788   -0.0000787
h    -5.7936205    2.1397306   -0.4424962  0.00   -0.0038154   -0.0022472    0.0005994
h    -4.4373058    2.8448138   -1.4133768  0.00    0.0011028    0.0016755   -0.0040834
h    -4.9092562    3.5983555    0.1670683  0.00   -0.0013005    0.0018618    0.0005246
n    -3.7871682    0.4228649   -0.3735596  0.00   -0.0156872    0.0100465   -0.0035191
h    -4.1718388    1.5471224    1.3971092  0.00   -0.0016860   -0.0018586    0.0041146
h    -3.0693891    0.4579507   -1.1539523  0.00    0.0144173    0.0009265   -0.0112452
h    -3.4773895   -0.3383057    0.2935948  0.00    0.0017732   -0.0127761    0.0134188
o    -1.7192883    2.7337788   -0.6668085  0.00    0.0035431    0.0030532   -0.0065538
o    -1.8482687    2.5179290    1.7252080  0.00   -0.0068041   -0.0001572    0.0068594
h    -0.9072804    2.8845632    1.5999263  0.00    0.0090139    0.0010528   -0.0023691
    13
 Energy =       0.0349933771
c    -3.8351034    1.7110517    0.3413644  0.00    0.0003905   -0.0026515    0.0006641
c    -2.4340574    2.2771556    0.5401272  0.00   -0.0008534   -0.0017735    0.0011103
c    -4.7322324    2.6736914   -0.4470068  0.00   -0.0012070    0.0021249   -0.0000571
h    -5.7479975    2.2326714   -0.5609711  0.00   -0.0022326   -0.0008769    0.0001130
h    -4.3090423    2.8516938   -1.4626104  0.00    0.0006820    0.0006604   -0.0022153
h    -4.8212591    3.6485598    0.0796182  0.00   -0.0003877    0.0004457   -0.0000285
n    -3.8273680    0.4199946   -0.3633384  0.00   -0.0100794    0.0065378   -0.0010709
h    -4.2639487    1.5760039    1.3661965  0.00   -0.0010385   -0.0008812    0.0020683
h    -3.2029854    0.4868242   -1.2124647  0.00    0.0068379    0.0016070   -0.0073749
h    -3.3978369   -0.3071660    0.2687921  0.00    0.0031649   -0.0075016    0.0085049
o    -1.6463871    2.6225293   -0.5576492  0.00    0.0034154    0.0019348   -0.0054952
o    -1.9339357    2.4579192    1.8243683  0.00   -0.0009212   -0.0005902    0.0040133
h    -0.9963433    2.8375878    1.7586794  0.00    0.0022292    0.0009643   -0.0002321
    13
 Energy =       0.0347196868
c    -3.8435800    1.7078875    0.3348964  0.00   -0.0002526    0.0004630    0.0003233
c    -2.4417803    2.2467772    0.5738384  0.00   -0.0008473   -0.0001109   -0.0001777
c    -4.6992077    2.6936210   -0.4638639  0.00    0.0004666   -0.0004156    0.0000789
h    -5.7159910    2.2723727   -0.6154589  0.00    0.0001241   -0.0000314   -0.0000753
h    -4.2438944    2.8792593   -1.4613398  0.00   -0.0001825   -0.0000917    0.0002079
h    -4.7863953    3.6613872    0.0754287  0.00    0.0002034   -0.0000863    0.0000666
n    -3.8424964    0.4209291   -0.3779498  0.00    0.0008001   -0.0004099   -0.0000794
h    -4.2980446    1.5731151    1.3455206  0.00    0.0003113    0.0001357   -0.0004397
h    -3.2719454    0.5056588   -1.2547015  0.00   -0.0003997   -0.0003572    0.0007792
h    -3.3592445   -0.2952083    0.2143591  0.00   -0.0005211    0.0007264   -0.0007237
o    -1.6020530    2.5335702   -0.4982172  0.00    0.0005511    0.0003737   -0.0015760
o    -1.9955487    2.4669190    1.8702247  0.00   -0.0004652   -0.0003114    0.0018890
h    -1.0483159    2.8222279    1.8323689  0.00    0.0002118    0.0001156   -0.0002731
    13
 Energy =       0.0347180336
c    -3.8460604    1.7115787    0.3352202  0.00   -0.0000836    0.0004646    0.0003808
c    -2.4456462    2.2518850    0.5795806  0.00   -0.0008073   -0.0001733   -0.0001992
c    -4.6924385    2.6865462   -0.4870127  0.00    0.0001997   -0.0002946    0.0000082
h    -5.7083050    2.2644087   -0.6424091  0.00    0.0000812   -0.0000127   -0.0000672
h    -4.2267957    2.8565825   -1.4827325  0.00   -0.0000921   -0.0000490    0.0000031
h    -4.7838637    3.6625669    0.0367932  0.00    0.0001275    0.0000700    0.0001248
n    -3.8399834    0.4137390   -0.3579689  0.00    0.0004570   -0.0004010   -0.0001877
h    -4.3106918    1.5929090    1.3435273  0.00    0.0001901    0.0001139   -0.0001767
h    -3.2610026    0.4844528   -1.2307196  0.00   -0.0001961   -0.0003080    0.0004208
h    -3.3632139   -0.2940319    0.2499830  0.00   -0.0002894    0.0003768   -0.0004141
o    -1.5945532    2.5194678   -0.4884700  0.00    0.0005726    0.0003376   -0.0015773
o    -2.0120985    2.4927482    1.8766453  0.00   -0.0003495   -0.0002248    0.0019113
h    -1.0638442    2.8456638    1.8426687  0.00    0.0001900    0.0001006   -0.0002268
    13
 Energy =       0.0347039997
c    -3.8465344    1.6987712    0.3238422  0.00   -0.0000865    0.0005340    0.0001955
c    -2.4524123    2.2399914    0.6036660  0.00   -0.0006418   -0.0000621   -0.0004745
c    -4.6845077    2.6915081   -0.4863517  0.00    0.0001181   -0.0002118    0.0001164
h    -5.6953881    2.2678035   -0.6705132  0.00   -0.0003283   -0.0002417   -0.0000779
h    -4.2024593    2.8915869   -1.4692945  0.00    0.0002344    0.0001434   -0.0005854
h    -4.7910716    3.6525334    0.0626058  0.00    0.0000347    0.0004486    0.0002820
n    -3.8237558    0.4189755   -0.4027799  0.00   -0.0005733   -0.0008458   -0.0001218
h    -4.3265304    1.5515674    1.3219177  0.00   -0.0002175   -0.0001025    0.0004828
h    -3.2354900    0.5170057   -1.2674861  0.00    0.0003597    0.0000418   -0.0005894
h    -3.3482348   -0.3013953    0.1920082  0.00    0.0000491   -0.0001839    0.0001406
o    -1.5665955    2.4864524   -0.4409058  0.00    0.0007212    0.0002294   -0.0014192
o    -2.0625543    2.5111792    1.9089067  0.00   -0.0001641    0.0000544    0.0020670
h    -1.1129629    2.8625374    1.8994900  0.00    0.0004944    0.0001962   -0.0000161
    13
 Energy =       0.0346981782
c    -3.8439008    1.6933711    0.3230322  0.00    0.0000805   -0.0000448    0.0000506
c    -2.4490701    2.2323499    0.6011547  0.00    0.0000794   -0.0000175    0.0000188
c    -4.6878164    2.6950445   -0.4696254  0.00   -0.0001125    0.0000608   -0.0000566
h    -5.6991289    2.2731140   -0.6527648  0.00    0.0000601    0.0000511    0.0000118
h    -4.2120675    2.9075098   -1.4522945  0.00   -0.0000139   -0.0000178    0.0000269
h    -4.7923608    3.6486689    0.0915268  0.00   -0.0000280    0.0000008   -0.0000146
n    -3.8242182    0.4228298   -0.4186063  0.00   -0.0000156    0.0001353   -0.0000404
h    -4.3175280    1.5338287    1.3216793  0.00    0.0000087    0.0000229   -0.0000036
h    -3.2430941    0.5321395   -1.2863198  0.00    0.0000162   -0.0000209   -0.0000141
h    -3.3422603   -0.3034680    0.1635703  0.00    0.0000725   -0.0001004    0.0000767
o    -1.5593751    2.4645506   -0.4420951  0.00   -0.0000955   -0.0000140    0.0001480
o    -2.0639750    2.5200649    1.9029326  0.00    0.0000389   -0.0000203   -0.0001988
h    -1.1137019    2.8685130    1.8929157  0.00   -0.0000908   -0.0000352   -0.0000047
    13
 Energy =       0.0346980529
c    -3.8437475    1.6927126    0.3229691  0.00    0.0000081   -0.0000040    0.0000062
c    -2.4487427    2.2313683    0.6012385  0.00    0.0000011   -0.0000056   -0.0000043
c    -4.6874991    2.6951493   -0.4686978  0.00   -0.0000115    0.0000061   -0.0000058
h    -5.6989447    2.2734775   -0.6521068  0.00    0.0000059    0.0000051    0.0000012
h    -4.2118005    2.9084664   -1.4512369  0.00   -0.0000013   -0.0000016    0.0000024
h    -4.7917534    3.6482665    0.0933900  0.00   -0.0000029    0.0000005   -0.0000010
n    -3.8246050    0.4227446   -0.4197034  0.00   -0.0000021    0.0000132   -0.0000047
h    -4.3172076    1.5324508    1.3215891  0.00    0.0000008    0.0000021   -0.0000001
h    -3.2438743    0.5327126   -1.2875868  0.00    0.0000019   -0.0000020   -0.0000019
h    -3.3424822   -0.3040292    0.1615957  0.00    0.0000076   -0.0000106    0.0000080
o    -1.5572721    2.4590902   -0.4416099  0.00   -0.0000028   -0.0000008    0.0000006
o    -2.0655726    2.5241669    1.9025755  0.00    0.0000036    0.0000011    0.0000005
h    -1.1149954    2.8719402    1.8926892  0.00   -0.0000084   -0.0000035   -0.0000010
    13
 Energy =       0.0346980524
c    -3.8437438    1.6926827    0.3229674  0.00    0.0000000    0.0000000    0.0000000
c    -2.4487286    2.2313294    0.6012459  0.00   -0.0000000   -0.0000000   -0.0000000
c    -4.6874787    2.6951478   -0.4686595  0.00   -0.0000000   -0.0000000   -0.0000000
h    -5.6989321    2.2734830   -0.6520861  0.00   -0.0000000   -0.0000000   -0.0000000
h    -4.2117758    2.9085050   -1.4511911  0.00    0.0000000    0.0000000   -0.0000000
h    -4.7917169    3.6482420    0.0934706  0.00   -0.0000000    0.0000000    0.0000000
n    -3.8246311    0.4227389   -0.4197492  0.00   -0.0000000   -0.0000000   -0.0000000
h    -4.3172002    1.5323901    1.3215850  0.00   -0.0000000   -0.0000000    0.0000000
h    -3.2439183    0.5327371   -1.2876390  0.00    0.0000000    0.0000000   -0.0000000
h    -3.3425056   -0.3040526    0.1615086  0.00    0.0000000   -0.0000000    0.0000000
o    -1.5571817    2.4588595   -0.4415809  0.00    0.0000000    0.0000000   -0.0000000
o    -2.0656376    2.5243507    1.9025573  0.00    0.0000000    0.0000000    0.0000000
h    -1.1150468    2.8721030    1.8926765  0.00    0.0000000    0.0000000   -0.0000000
