    27
 Energy =       0.3480417424
c    -1.4235396    2.6054793   -0.0667700  0.00   -0.0463082    0.0383667    0.0027255
c    -1.3072796    1.2134697   -0.1072300  0.00   -0.0852403   -0.0326071    0.0020315
c    -0.0178900    0.6711998   -0.1697000  0.00   -0.0889570   -0.1881928   -0.0014216
c    -0.2940599    3.4190890   -0.0891300  0.00   -0.0232812    0.0690681    0.0027873
c     0.9872197    2.8590292   -0.1560400  0.00    0.0394182    0.0659852    0.0071466
c     1.1340797    1.4562096   -0.1970299  0.00    0.0572015    0.0540183    0.0031156
n     0.3879399   -0.6395298   -0.2140799  0.00    0.1431917    0.1098501   -0.0022986
c     2.2666594    0.5727398   -0.2659299  0.00    0.1502909   -0.0949040   -0.0306975
c     1.7555995   -0.7123598   -0.2706899  0.00   -0.1008116   -0.0974482    0.0041321
h    -0.2400399   -1.4313496   -0.2047299  0.00    0.0366996    0.0478846   -0.0008029
c     3.7030089    1.0223397   -0.3320099  0.00    0.0010374    0.0386018   -0.0067084
c     4.0547688    2.2615794    0.5049969  0.00   -0.1084817    0.0332184   -0.0906732
h     3.9407589    1.2278196   -1.3843196  0.00    0.0021578   -0.0015128    0.0164910
h     4.3455988    0.1801669   -0.0411573  0.00   -0.0115607    0.0066779   -0.0106022
c     5.4270085    2.7951492    0.0535521  0.00    0.3747279   -0.1523467    0.0718342
n     4.1412688    1.9836494    1.9826994  0.00    0.0481114    0.0435398    0.0943668
h     3.3277791    3.0673291    0.3491609  0.00   -0.4794927    0.1289176   -0.1525412
h     5.1137885    2.1471494    2.2630194  0.00   -0.0301131    0.0145801   -0.0511483
h     3.6182690    2.7208792    2.4683293  0.00    0.0210733   -0.0193096   -0.0227512
h    -2.4108593    3.0588691   -0.0157800  0.00   -0.0007786    0.0002218    0.0000498
h    -2.1896094    0.5822398   -0.0890100  0.00   -0.0035925    0.0037757    0.0000375
h    -0.4052699    4.5000487   -0.0535400  0.00    0.0006045    0.0001841    0.0004089
h     1.8590495    3.5066790   -0.1715100  0.00    0.4765042   -0.1417243    0.1701156
h     2.2327294   -1.6813195   -0.3062999  0.00   -0.0407983   -0.0112034    0.0020085
o     6.4880181    2.2021494    0.1560940  0.00   -0.2596080    0.1369825   -0.0280157
o     5.3169785    4.0375388   -0.4895209  0.00   -0.0421517   -0.0249876    0.0175219
h     5.9036983    4.6130587    0.0664848  0.00   -0.0298428   -0.0276362    0.0028880
    27
 Energy =       0.3428128325
c    -1.4180932    2.6308610   -0.0240391  0.00   -0.0456438    0.0378586    0.0026849
c    -1.3085529    1.2386936   -0.0757226  0.00   -0.0840071   -0.0322222    0.0020021
c    -0.0224569    0.6915165   -0.1419148  0.00   -0.0878540   -0.1844194   -0.0013150
c    -0.2847040    3.4396358   -0.0415130  0.00   -0.0229630    0.0681100    0.0027410
c     0.9934251    2.8739275   -0.1157920  0.00    0.0388605    0.0650759    0.0070256
c     1.1301429    1.4723464   -0.1691878  0.00    0.0560076    0.0534001    0.0029280
n     0.3777474   -0.6205353   -0.2257867  0.00    0.1413376    0.1074448   -0.0023450
c     2.2573762    0.5902861   -0.2671448  0.00    0.1467637   -0.0928448   -0.0295686
c     1.7464658   -0.6940032   -0.2927687  0.00   -0.0996487   -0.0953620    0.0041819
h    -0.2527678   -1.4111354   -0.2293178  0.00    0.0360895    0.0470542   -0.0008010
c     3.6838801    1.0532432   -0.3895916  0.00   -0.0012998    0.0384068   -0.0044242
c     4.0629966    2.2447895    0.5057782  0.00   -0.1068719    0.0338742   -0.0903447
h     3.8506642    1.3419741   -1.4417581  0.00    0.0024921   -0.0003312    0.0106178
h     4.3558892    0.1975204   -0.1999104  0.00   -0.0078958    0.0025097   -0.0096677
c     5.4414865    2.7708557    0.0643665  0.00    0.3694513   -0.1509445    0.0714162
n     4.1556712    1.8934799    1.9674404  0.00    0.0493187    0.0397134    0.0940606
h     3.3450058    3.0734275    0.3953465  0.00   -0.4734143    0.1283194   -0.1507648
h     5.1274605    2.0473780    2.2558611  0.00   -0.0296115    0.0144444   -0.0500477
h     3.6161942    2.5878215    2.5000581  0.00    0.0191583   -0.0167554   -0.0201973
h    -2.4032879    3.0884870    0.0302427  0.00   -0.0007816    0.0002312    0.0000496
h    -2.1938623    0.6113096   -0.0676955  0.00   -0.0035837    0.0036645    0.0000352
h    -0.3906383    4.5208190    0.0030138  0.00    0.0005894    0.0002373    0.0004018
h     1.8737939    3.5121093   -0.1268094  0.00    0.4696909   -0.1396577    0.1676371
h     2.2232137   -1.6613129   -0.3778700  0.00   -0.0396319   -0.0121853    0.0019042
o     6.4951632    2.1607717    0.1733987  0.00   -0.2555724    0.1349666   -0.0275512
o     5.3438099    3.9945296   -0.5229720  0.00   -0.0420878   -0.0235919    0.0160049
h     5.9096504    4.5905071    0.0341479  0.00   -0.0288920   -0.0269968    0.0033363
    27
 Energy =       0.3102012856
c    -1.4062730    2.6542195    0.0145753  0.00   -0.0383960    0.0318870    0.0022234
c    -1.3007303    1.2676855   -0.0477358  0.00   -0.0707734   -0.0272388    0.0016648
c    -0.0245639    0.7185695   -0.1159404  0.00   -0.0739038   -0.1544691   -0.0005527
c    -0.2728976    3.4563424    0.0022593  0.00   -0.0194014    0.0573807    0.0022314
c     0.9972896    2.8875918   -0.0771690  0.00    0.0329498    0.0549446    0.0058779
c     1.1209008    1.4934008   -0.1399714  0.00    0.0468190    0.0452519    0.0023789
n     0.3588019   -0.6033549   -0.2380882  0.00    0.1190794    0.0895790   -0.0024749
c     2.2371798    0.6239551   -0.2592452  0.00    0.1229416   -0.0776309   -0.0242113
c     1.7375486   -0.6573334   -0.3070046  0.00   -0.0844204   -0.0794658    0.0038906
h    -0.2735914   -1.3993136   -0.2584409  0.00    0.0303171    0.0394585   -0.0008378
c     3.6600820    1.0828244   -0.4304879  0.00   -0.0018765    0.0316309   -0.0034340
c     4.0799894    2.2261992    0.5091373  0.00   -0.0894306    0.0293824   -0.0778892
h     3.7759625    1.4274229   -1.4770088  0.00    0.0019146    0.0003319    0.0062142
h     4.3410973    0.2157513   -0.3122020  0.00   -0.0048907    0.0001415   -0.0080649
c     5.4523090    2.7510472    0.0610634  0.00    0.3115413   -0.1289836    0.0634321
n     4.1789472    1.7951539    1.9443405  0.00    0.0444367    0.0292124    0.0791132
h     3.3715744    3.0733909    0.4435279  0.00   -0.4060240    0.1111073   -0.1296942
h     5.1509828    1.9376283    2.2502961  0.00   -0.0246745    0.0122874   -0.0420941
h     3.6081326    2.4290684    2.5288139  0.00    0.0132109   -0.0108729   -0.0130703
h    -2.3899775    3.1146887    0.0707436  0.00   -0.0006659    0.0001963    0.0000402
h    -2.1870207    0.6416225   -0.0506831  0.00   -0.0030572    0.0030300    0.0000106
h    -0.3745747    4.5376692    0.0538555  0.00    0.0004887    0.0002354    0.0003341
h     1.8829632    3.5206856   -0.0840759  0.00    0.4020104   -0.1193432    0.1434997
h     2.2400217   -1.6079507   -0.4353643  0.00   -0.0327780   -0.0113487    0.0014422
o     6.5181979    2.1114039    0.1740156  0.00   -0.2152953    0.1138884   -0.0234477
o     5.3757430    3.9462662   -0.5955462  0.00   -0.0407927   -0.0223871    0.0041818
h     5.8575793    4.5946688   -0.0038054  0.00   -0.0193294   -0.0182055    0.0092360
    27
 Energy =       0.2666379050
c    -1.3871156    2.6922965    0.0432744  0.00   -0.0253833    0.0211702    0.0014410
c    -1.2900663    1.3165279   -0.0416633  0.00   -0.0470360   -0.0185528    0.0012472
c    -0.0318376    0.7617726   -0.1032628  0.00   -0.0477327   -0.0999414    0.0025491
c    -0.2525161    3.4799122    0.0504597  0.00   -0.0129506    0.0381899    0.0012887
c     1.0032518    2.9035720   -0.0255931  0.00    0.0225948    0.0369076    0.0038202
c     1.1048778    1.5220944   -0.0999125  0.00    0.0310053    0.0309001    0.0015073
n     0.3172563   -0.5758246   -0.2943308  0.00    0.0776808    0.0568590   -0.0051576
c     2.2020116    0.6686740   -0.2221215  0.00    0.0819477   -0.0505357   -0.0160442
c     1.7157869   -0.6046478   -0.3083579  0.00   -0.0550099   -0.0510228    0.0047813
h    -0.3240540   -1.3757065   -0.3719002  0.00    0.0185804    0.0242674   -0.0016378
c     3.6328978    1.0968202   -0.4190730  0.00   -0.0015070    0.0198959   -0.0035764
c     4.1125845    2.2007578    0.5392119  0.00   -0.0590721    0.0191737   -0.0531220
h     3.7294011    1.4597295   -1.4640376  0.00    0.0010549    0.0002549    0.0037696
h     4.3000458    0.2122359   -0.3301835  0.00   -0.0028621   -0.0004937   -0.0053468
c     5.4678352    2.7134083    0.0460021  0.00    0.2071627   -0.0937680    0.0575220
n     4.2291190    1.7005524    1.9416848  0.00    0.0327935    0.0164261    0.0519439
h     3.4189321    3.0658079    0.5161601  0.00   -0.2929590    0.0810310   -0.0941072
h     5.2040930    1.8356126    2.2645461  0.00   -0.0159449    0.0085211   -0.0289046
h     3.6261170    2.2703152    2.5713374  0.00    0.0056400   -0.0045679   -0.0046977
h    -2.3678843    3.1594518    0.0940509  0.00   -0.0005055    0.0001019    0.0000307
h    -2.1791718    0.6947356   -0.0752746  0.00   -0.0023907    0.0016482   -0.0000638
h    -0.3452184    4.5616523    0.1118920  0.00    0.0003285    0.0002508    0.0002103
h     1.8939635    3.5296841   -0.0248042  0.00    0.2889867   -0.0853570    0.1030266
h     2.2617967   -1.5287321   -0.4642678  0.00   -0.0212905   -0.0085815    0.0009815
o     6.5589787    2.0263887    0.1607925  0.00   -0.1430410    0.0765377   -0.0173156
o     5.4127662    3.8415910   -0.7483538  0.00   -0.0413302   -0.0355161   -0.0404267
h     5.7018227    4.6106214   -0.1264157  0.00    0.0012401    0.0162010    0.0362814
    27
 Energy =       0.2541867386
c    -1.3975772    2.6603509    0.0547170  0.00   -0.0226923    0.0189840    0.0012650
c    -1.2846978    1.2889413   -0.0495456  0.00   -0.0420157   -0.0166395    0.0011109
c    -0.0231875    0.7500041   -0.1248536  0.00   -0.0426239   -0.0891268    0.0023091
c    -0.2731011    3.4593084    0.0732853  0.00   -0.0115117    0.0341828    0.0010926
c     0.9863523    2.8988235   -0.0143433  0.00    0.0200692    0.0330138    0.0033542
c     1.1013127    1.5226223   -0.1180574  0.00    0.0273627    0.0274463    0.0013289
n     0.3383289   -0.5859882   -0.3297716  0.00    0.0685828    0.0506791   -0.0044426
c     2.2057218    0.6907939   -0.2664303  0.00    0.0731890   -0.0451198   -0.0137198
c     1.7406648   -0.5863183   -0.3692314  0.00   -0.0485557   -0.0454807    0.0042346
h    -0.2909724   -1.3981233   -0.4056871  0.00    0.0164364    0.0213868   -0.0014791
c     3.6303909    1.1428937   -0.4734962  0.00   -0.0021373    0.0166918   -0.0031456
c     4.1044936    2.1994936    0.5388281  0.00   -0.0527229    0.0173876   -0.0482515
h     3.7072338    1.5648272   -1.4998224  0.00    0.0011345    0.0010271    0.0015095
h     4.3103307    0.2621858   -0.4375801  0.00   -0.0018232   -0.0017763   -0.0049047
c     5.4600910    2.7536796    0.0964312  0.00    0.1843712   -0.0875236    0.0548414
n     4.1965748    1.6287873    1.9149903  0.00    0.0295295    0.0111509    0.0461006
h     3.4098941    3.0643132    0.5418921  0.00   -0.2624562    0.0732207   -0.0847464
h     5.1584565    1.7694281    2.2783885  0.00   -0.0128659    0.0077937   -0.0250006
h     3.5519113    2.1404693    2.5582389  0.00    0.0026751   -0.0022902   -0.0009460
h    -2.3834568    3.1155128    0.1164630  0.00   -0.0005699    0.0001994    0.0000363
h    -2.1662250    0.6567188   -0.0870403  0.00   -0.0022020    0.0014098   -0.0000627
h    -0.3774224    4.5388171    0.1569900  0.00    0.0002679    0.0005546    0.0002101
h     1.8686416    3.5363800    0.0103072  0.00    0.2590643   -0.0761303    0.0926067
h     2.3074482   -1.4936986   -0.5503025  0.00   -0.0185499   -0.0081337    0.0007564
o     6.5630898    2.0603723    0.1766764  0.00   -0.1267748    0.0676117   -0.0154482
o     5.4210552    3.9483211   -0.6035239  0.00   -0.0444036   -0.0377299   -0.0539550
h     5.8503221    4.6503872    0.0323374  0.00    0.0092227    0.0272106    0.0453460
    27
 Energy =       0.2328965745
c    -1.4050873    2.6391413    0.1013624  0.00   -0.0166072    0.0139688    0.0007828
c    -1.2774470    1.2742906   -0.0096240  0.00   -0.0311177   -0.0122357    0.0006049
c    -0.0176462    0.7517464   -0.1113481  0.00   -0.0306349   -0.0648219    0.0009861
c    -0.2916970    3.4475390    0.1098270  0.00   -0.0085281    0.0252032    0.0007006
c     0.9674841    2.9028176   -0.0023101  0.00    0.0150893    0.0241113    0.0024574
c     1.0911174    1.5344467   -0.1259204  0.00    0.0198413    0.0203537    0.0010676
n     0.3477202   -0.5928108   -0.2936606  0.00    0.0466875    0.0371157   -0.0017648
c     2.1958891    0.7273514   -0.3084760  0.00    0.0543475   -0.0332531   -0.0091155
c     1.7553628   -0.5532285   -0.4062301  0.00   -0.0325764   -0.0322622    0.0022306
h    -0.2710020   -1.4221376   -0.3289323  0.00    0.0111174    0.0143411   -0.0010333
c     3.6144863    1.1925317   -0.5484442  0.00   -0.0021249    0.0112118   -0.0024788
c     4.1093286    2.1907956    0.5097932  0.00   -0.0380205    0.0135840   -0.0371129
h     3.6583187    1.6701181   -1.5543356  0.00    0.0008147    0.0016146   -0.0009125
h     4.3013451    0.3142650   -0.5733455  0.00   -0.0001976   -0.0028122   -0.0037376
c     5.4565625    2.7797539    0.0977197  0.00    0.1346691   -0.0669421    0.0447515
n     4.1899460    1.5413462    1.8483949  0.00    0.0228552    0.0039808    0.0330888
h     3.4161753    3.0550080    0.5498528  0.00   -0.2010548    0.0565646   -0.0661734
h     5.1373372    1.6908613    2.2544693  0.00   -0.0078667    0.0061029   -0.0178610
h     3.5009418    1.9817162    2.5049440  0.00   -0.0015951    0.0003462    0.0036564
h    -2.3950027    3.0824262    0.1844899  0.00   -0.0007195    0.0002564   -0.0000032
h    -2.1509471    0.6300074   -0.0268056  0.00   -0.0019208    0.0009037   -0.0001479
h    -0.4061536    4.5248521    0.2085735  0.00    0.0001169    0.0005592    0.0001956
h     1.8410288    3.5530075    0.0297927  0.00    0.1982772   -0.0576612    0.0717997
h     2.3493484   -1.4382473   -0.6153053  0.00   -0.0128587   -0.0064787    0.0001583
o     6.5790518    2.0698643    0.1280527  0.00   -0.0918913    0.0479598   -0.0118999
o     5.4323249    4.0294104   -0.5081557  0.00   -0.0406654   -0.0315347   -0.0549183
h     5.9868875    4.6624306    0.1054810  0.00    0.0145632    0.0298237    0.0446789
    27
 Energy =       0.2143129602
c    -1.4094343    2.6460074    0.2056362  0.00   -0.0106843    0.0086807    0.0002886
c    -1.2783376    1.2873877    0.0843987  0.00   -0.0200989   -0.0074776    0.0001447
c    -0.0263422    0.7725543   -0.0598828  0.00   -0.0186518   -0.0405498    0.0000812
c    -0.3014736    3.4558418    0.1864802  0.00   -0.0056886    0.0160492    0.0003338
c     0.9513711    2.9177885    0.0320525  0.00    0.0102904    0.0149305    0.0015944
c     1.0714072    1.5565684   -0.1075150  0.00    0.0123566    0.0129782    0.0009081
n     0.3304183   -0.5802842   -0.2394186  0.00    0.0264163    0.0234043    0.0002682
c     2.1662980    0.7652468   -0.3339828  0.00    0.0345833   -0.0210954   -0.0048409
c     1.7388881   -0.5153387   -0.4213229  0.00   -0.0180991   -0.0195455    0.0005998
h    -0.2855579   -1.4179659   -0.2423799  0.00    0.0064104    0.0082699   -0.0004453
c     3.5789715    1.2289125   -0.6247613  0.00   -0.0015822    0.0063479   -0.0023978
c     4.1275352    2.1690865    0.4581171  0.00   -0.0228084    0.0096021   -0.0251329
h     3.5815594    1.7497222   -1.6112127  0.00    0.0001905    0.0015702   -0.0024330
h     4.2604308    0.3486572   -0.7137837  0.00    0.0013309   -0.0032637   -0.0025239
c     5.4603327    2.7734773    0.0333939  0.00    0.0834702   -0.0420783    0.0339329
n     4.2293131    1.4496368    1.7555503  0.00    0.0164124   -0.0005165    0.0214352
h     3.4433859    3.0363797    0.5524795  0.00   -0.1389660    0.0396264   -0.0469293
h     5.1685901    1.6098822    2.1836752  0.00   -0.0042190    0.0041008   -0.0114201
h     3.5149184    1.8229631    2.4294220  0.00   -0.0038306    0.0016393    0.0054546
h    -2.3984372    3.0843373    0.3233994  0.00   -0.0010605    0.0003587    0.0000403
h    -2.1478943    0.6374611    0.0962935  0.00   -0.0016777    0.0004307   -0.0000860
h    -0.4165814    4.5318312    0.2978546  0.00   -0.0000354    0.0004320    0.0001343
h     1.8216146    3.5733738    0.0480541  0.00    0.1363459   -0.0389242    0.0502267
h     2.3490305   -1.3832704   -0.6589186  0.00   -0.0074941   -0.0043353   -0.0002154
o     6.5947650    2.0364118   -0.0183351  0.00   -0.0543933    0.0262949   -0.0090603
o     5.4457026    4.0630105   -0.4873926  0.00   -0.0428961   -0.0284597   -0.0539620
h     6.1451995    4.6196245    0.0519585  0.00    0.0243791    0.0315304    0.0440039
    27
 Energy =       0.2057974706
c    -1.4049022    2.6848375    0.2907687  0.00   -0.0081299    0.0063740    0.0001601
c    -1.2850572    1.3286569    0.1552538  0.00   -0.0150625   -0.0053432    0.0000519
c    -0.0432654    0.8080290   -0.0247531  0.00   -0.0133902   -0.0295673    0.0000211
c    -0.2932603    3.4864363    0.2502970  0.00   -0.0044991    0.0119351    0.0002354
c     0.9498087    2.9417271    0.0598564  0.00    0.0080087    0.0108157    0.0011650
c     1.0546695    1.5838718   -0.0934083  0.00    0.0090723    0.0094414    0.0007337
n     0.2964447   -0.5495730   -0.2200714  0.00    0.0187744    0.0169530    0.0003961
c     2.1352794    0.7924310   -0.3523301  0.00    0.0254666   -0.0155580   -0.0033548
c     1.7032420   -0.4845818   -0.4374645  0.00   -0.0125626   -0.0142666    0.0002710
h    -0.3255181   -1.3849575   -0.2132466  0.00    0.0045770    0.0059444   -0.0002933
c     3.5454123    1.2457531   -0.6725674  0.00   -0.0017929    0.0041979   -0.0023066
c     4.1412516    2.1429840    0.4217254  0.00   -0.0166500    0.0074084   -0.0188545
h     3.5275955    1.7941643   -1.6435873  0.00   -0.0000788    0.0013108   -0.0024813
h     4.2122674    0.3593494   -0.8053495  0.00    0.0017016   -0.0031645   -0.0019484
c     5.4820329    2.7195815   -0.0141673  0.00    0.0561527   -0.0274773    0.0297436
n     4.2419682    1.3839484    1.6939391  0.00    0.0120218   -0.0009079    0.0161966
h     3.4817515    3.0262353    0.5484423  0.00   -0.1063721    0.0308055   -0.0361756
h     5.1847981    1.5169133    2.1270780  0.00   -0.0024965    0.0029983   -0.0080756
h     3.5329898    1.7430843    2.3798549  0.00   -0.0029398    0.0013253    0.0042485
h    -2.3879005    3.1283694    0.4372912  0.00   -0.0012024    0.0004325    0.0000777
h    -2.1574906    0.6832780    0.1847883  0.00   -0.0014219    0.0002768   -0.0000563
h    -0.3982011    4.5622581    0.3730627  0.00   -0.0001201    0.0004347    0.0001155
h     1.8246543    3.5908190    0.0578861  0.00    0.1040064   -0.0294518    0.0385010
h     2.3115540   -1.3490496   -0.6934160  0.00   -0.0052921   -0.0032503   -0.0002379
o     6.5821850    1.9190422   -0.1770882  0.00   -0.0320699    0.0105997   -0.0085335
o     5.5118090    4.0411393   -0.4520325  0.00   -0.0407714   -0.0205398   -0.0481933
h     6.2915550    4.5245559    0.0390981  0.00    0.0250709    0.0282732    0.0385940
    27
 Energy =       0.2047802678
c    -1.4088446    2.6594928    0.3539825  0.00   -0.0078064    0.0059991    0.0001592
c    -1.2817868    1.3046646    0.2143402  0.00   -0.0143713   -0.0050086    0.0000618
c    -0.0395536    0.7927987    0.0156487  0.00   -0.0126841   -0.0279193    0.0000247
c    -0.3033374    3.4683935    0.2992931  0.00   -0.0043049    0.0113555    0.0002346
c     0.9400765    2.9324277    0.0894873  0.00    0.0077201    0.0101731    0.0010783
c     1.0513965    1.5760910   -0.0685010  0.00    0.0085501    0.0089480    0.0007161
n     0.3062790   -0.5626960   -0.1870720  0.00    0.0173681    0.0160316    0.0004606
c     2.1326585    0.7939565   -0.3483707  0.00    0.0239275   -0.0147591   -0.0030753
c     1.7090517   -0.4857360   -0.4298966  0.00   -0.0115808   -0.0134124    0.0002101
h    -0.3092821   -1.4030876   -0.1707285  0.00    0.0042291    0.0055104   -0.0002686
c     3.5322429    1.2594771   -0.6986264  0.00   -0.0014803    0.0040923   -0.0022831
c     4.1492485    2.1480650    0.3907903  0.00   -0.0165769    0.0074256   -0.0191936
h     3.4865644    1.8180562   -1.6632904  0.00   -0.0001130    0.0014112   -0.0027469
h     4.2021643    0.3795492   -0.8578026  0.00    0.0019147   -0.0032044   -0.0018849
c     5.4602126    2.7633115   -0.0829684  0.00    0.0506246   -0.0248807    0.0290632
n     4.3114709    1.3660950    1.6438343  0.00    0.0119042   -0.0029375    0.0163925
h     3.4761493    3.0148051    0.5588345  0.00   -0.1012780    0.0298188   -0.0341614
h     5.2624746    1.5215711    2.0529035  0.00   -0.0014311    0.0028478   -0.0072206
h     3.6097404    1.6880583    2.3565319  0.00   -0.0040441    0.0017321    0.0051438
h    -2.3926400    3.0961698    0.5154595  0.00   -0.0012709    0.0004468    0.0000920
h    -2.1493226    0.6532755    0.2553021  0.00   -0.0014404    0.0002267   -0.0000461
h    -0.4135372    4.5432481    0.4259587  0.00   -0.0001282    0.0004339    0.0001131
h     1.8105766    3.5873060    0.0768479  0.00    0.0983009   -0.0277703    0.0363833
h     2.3198273   -1.3435809   -0.7023908  0.00   -0.0048466   -0.0031621   -0.0002740
o     6.5652847    1.9855817   -0.3358414  0.00   -0.0258252    0.0069449   -0.0091274
o     5.4484428    4.1002335   -0.4768198  0.00   -0.0393913   -0.0169373   -0.0466653
h     6.2401164    4.5817757   -0.0070463  0.00    0.0240343    0.0265942    0.0368139
    27
 Energy =       0.2034689685
c    -1.4084955    2.6730034    0.3257567  0.00   -0.0078495    0.0059388    0.0001662
c    -1.2849114    1.3195830    0.1709710  0.00   -0.0143121   -0.0050997    0.0000532
c    -0.0428571    0.8057289   -0.0229912  0.00   -0.0126361   -0.0277518    0.0000347
c    -0.2997422    3.4785958    0.2908095  0.00   -0.0041654    0.0113779    0.0002316
c     0.9438360    2.9409393    0.0864021  0.00    0.0077129    0.0102219    0.0010743
c     1.0520221    1.5858929   -0.0872884  0.00    0.0085481    0.0089068    0.0006982
n     0.2988925   -0.5485950   -0.2402039  0.00    0.0171077    0.0158499    0.0004668
c     2.1331352    0.8020310   -0.3643506  0.00    0.0236790   -0.0145811   -0.0030254
c     1.7049485   -0.4749469   -0.4644864  0.00   -0.0114600   -0.0133900    0.0002011
h    -0.3207415   -1.3863960   -0.2420508  0.00    0.0040250    0.0052412   -0.0002670
c     3.5408025    1.2628239   -0.6896895  0.00   -0.0014035    0.0040770   -0.0023516
c     4.1450916    2.1397245    0.4158040  0.00   -0.0171360    0.0078783   -0.0197454
h     3.5137294    1.8288179   -1.6508531  0.00   -0.0001249    0.0014894   -0.0029041
h     4.2081966    0.3800651   -0.8435974  0.00    0.0019517   -0.0031846   -0.0018641
c     5.4792092    2.7342070   -0.0219421  0.00    0.0464274   -0.0224472    0.0295678
n     4.2607472    1.3548241    1.6730107  0.00    0.0115415   -0.0038127    0.0167847
h     3.4822524    3.0173376    0.5654203  0.00   -0.1007635    0.0297740   -0.0339653
h     5.2030522    1.4944548    2.1082469  0.00   -0.0006735    0.0028604   -0.0067811
h     3.5455266    1.6879487    2.3672812  0.00   -0.0043918    0.0018340    0.0054696
h    -2.3922205    3.1111596    0.4836205  0.00   -0.0012772    0.0004338    0.0000920
h    -2.1551331    0.6707716    0.1960640  0.00   -0.0015300    0.0001263   -0.0000455
h    -0.4074429    4.5522731    0.4296540  0.00   -0.0000988    0.0005163    0.0001195
h     1.8156418    3.5942364    0.0911222  0.00    0.0976743   -0.0274509    0.0361121
h     2.3158433   -1.3328770   -0.7364413  0.00   -0.0048098   -0.0031419   -0.0002719
o     6.6007141    1.9486933   -0.1770882  0.00   -0.0205438    0.0034634   -0.0097366
o     5.4926901    4.0603922   -0.4525722  0.00   -0.0394558   -0.0155932   -0.0466186
h     6.2908867    4.5386141    0.0092517  0.00    0.0239639    0.0264637    0.0365047
    27
 Energy =       0.2003126303
c    -1.4067080    2.6895000    0.3273154  0.00   -0.0073642    0.0056770    0.0001787
c    -1.2878098    1.3396161    0.1435470  0.00   -0.0132313   -0.0050382    0.0000166
c    -0.0479911    0.8252494   -0.0582479  0.00   -0.0117164   -0.0256404    0.0000987
c    -0.2950568    3.4911594    0.3134837  0.00   -0.0037416    0.0107533    0.0002162
c     0.9468042    2.9534099    0.1020079  0.00    0.0071268    0.0097976    0.0010287
c     1.0501348    1.6018203   -0.1017295  0.00    0.0079549    0.0081823    0.0006070
n     0.2867646   -0.5263789   -0.3053747  0.00    0.0159515    0.0142874    0.0003212
c     2.1282924    0.8186021   -0.3900712  0.00    0.0218968   -0.0133614   -0.0027714
c     1.6949689   -0.4540515   -0.5181510  0.00   -0.0107040   -0.0126569    0.0001998
h    -0.3374878   -1.3610849   -0.3303261  0.00    0.0034658    0.0044628   -0.0002718
c     3.5428184    1.2745770   -0.6947419  0.00   -0.0014393    0.0036054   -0.0022449
c     4.1442625    2.1231511    0.4333170  0.00   -0.0163995    0.0080485   -0.0189064
h     3.5294293    1.8599086   -1.6445769  0.00   -0.0001453    0.0015478   -0.0029688
h     4.2040257    0.3892541   -0.8587323  0.00    0.0018355   -0.0030385   -0.0017137
c     5.4980458    2.7006795    0.0321020  0.00    0.0380326   -0.0178435    0.0274979
n     4.2170506    1.3194083    1.6819093  0.00    0.0099744   -0.0043974    0.0160985
h     3.4958429    3.0107390    0.5792495  0.00   -0.0933136    0.0276365   -0.0316441
h     5.1516801    1.4349469    2.1417195  0.00    0.0002786    0.0026955   -0.0057992
h     3.4927059    1.6562802    2.3644520  0.00   -0.0041878    0.0017078    0.0052235
h    -2.3891440    3.1279844    0.4917281  0.00   -0.0011907    0.0004466    0.0000915
h    -2.1605032    0.6935693    0.1517020  0.00   -0.0015004   -0.0000362   -0.0000522
h    -0.3991035    4.5621377    0.4758934  0.00   -0.0000804    0.0007780    0.0001519
h     1.8192036    3.6054612    0.1265377  0.00    0.0904606   -0.0251554    0.0335206
h     2.3052116   -1.3091694   -0.8005039  0.00   -0.0044476   -0.0029849   -0.0002612
o     6.6348349    1.9155160   -0.0183351  0.00   -0.0131846   -0.0005387   -0.0091179
o     5.5380789    4.0164126   -0.4278078  0.00   -0.0375512   -0.0141045   -0.0436083
h     6.3593225    4.4806048    0.0034934  0.00    0.0232205    0.0251693    0.0341092
    27
 Energy =       0.1943541384
c    -1.3980694    2.7302595    0.4063695  0.00   -0.0059936    0.0055701    0.0002949
c    -1.2941526    1.3884968    0.1656423  0.00   -0.0103922   -0.0047318   -0.0001025
c    -0.0640713    0.8710728   -0.0745930  0.00   -0.0089346   -0.0196005    0.0003541
c    -0.2798385    3.5209322    0.4112120  0.00   -0.0032939    0.0092002    0.0002649
c     0.9530919    2.9807561    0.1620106  0.00    0.0056238    0.0086186    0.0009469
c     1.0400516    1.6373902   -0.1005825  0.00    0.0060349    0.0059496    0.0003797
n     0.2496502   -0.4756173   -0.3824691  0.00    0.0132308    0.0094938   -0.0002843
c     2.1043690    0.8548365   -0.4335503  0.00    0.0174155   -0.0103933   -0.0021641
c     1.6573900   -0.4074820   -0.6058634  0.00   -0.0084095   -0.0108202    0.0001028
h    -0.3850613   -1.3025975   -0.4361631  0.00    0.0022751    0.0027203   -0.0003095
c     3.5246290    1.2984547   -0.7335740  0.00   -0.0023403    0.0019755   -0.0021408
c     4.1541382    2.0798645    0.4269318  0.00   -0.0126015    0.0080652   -0.0153319
h     3.5132857    1.9278264   -1.6554283  0.00   -0.0003777    0.0018580   -0.0034420
h     4.1669900    0.4085313   -0.9434119  0.00    0.0019709   -0.0034708   -0.0014947
c     5.5246184    2.6365653    0.0539406  0.00    0.0245089   -0.0108019    0.0207753
n     4.1911157    1.2248580    1.6422491  0.00    0.0056702   -0.0054508    0.0130072
h     3.5338484    2.9800647    0.6013784  0.00   -0.0733827    0.0221179   -0.0257033
h     5.1306022    1.2761938    2.1088851  0.00    0.0031846    0.0020075   -0.0027713
h     3.4828566    1.5677997    2.3374474  0.00   -0.0035347    0.0016153    0.0041874
h    -2.3739428    3.1711183    0.6020631  0.00   -0.0012947    0.0008178    0.0001878
h    -2.1723868    0.7501106    0.1590141  0.00   -0.0012016   -0.0002730   -0.0000779
h    -0.3716421    4.5859307    0.6200859  0.00   -0.0002616    0.0017902    0.0003571
h     1.8285322    3.6275178    0.2065794  0.00    0.0708809   -0.0189740    0.0269987
h     2.2597639   -1.2565511   -0.9237738  0.00   -0.0031378   -0.0029529   -0.0004009
o     6.6690737    1.8533881    0.1064359  0.00   -0.0047870   -0.0038533   -0.0063611
o     5.5981683    3.9417884   -0.4278972  0.00   -0.0352887   -0.0134762   -0.0363784
h     6.4726637    4.3677949   -0.0730786  0.00    0.0244364    0.0229988    0.0291060
    27
 Energy =       0.1922939142
c    -1.3809932    2.7861005    0.4979242  0.00   -0.0055193    0.0054472    0.0003850
c    -1.3016902    1.4497348    0.2225724  0.00   -0.0093552   -0.0044103   -0.0001044
c    -0.0849352    0.9196790   -0.0524860  0.00   -0.0077063   -0.0168606    0.0004109
c    -0.2509808    3.5589675    0.5033393  0.00   -0.0032356    0.0085547    0.0003644
c     0.9690863    3.0068470    0.2195715  0.00    0.0051033    0.0079488    0.0008802
c     1.0303969    1.6688131   -0.0798400  0.00    0.0050913    0.0050330    0.0003390
n     0.1993097   -0.4251814   -0.3988743  0.00    0.0116270    0.0074642   -0.0004339
c     2.0746383    0.8767618   -0.4529163  0.00    0.0154373   -0.0091638   -0.0020317
c     1.6042048   -0.3736390   -0.6467537  0.00   -0.0069916   -0.0099042   -0.0000517
h    -0.4505908   -1.2402958   -0.4611168  0.00    0.0017803    0.0020395   -0.0003049
c     3.4979523    1.2985752   -0.7717339  0.00   -0.0025901    0.0015323   -0.0024436
c     4.1680267    2.0309505    0.3972365  0.00   -0.0106723    0.0077327   -0.0130481
h     3.4804263    1.9546011   -1.6747736  0.00   -0.0005576    0.0018444   -0.0034890
h     4.1172795    0.4018362   -1.0203232  0.00    0.0022775   -0.0038277   -0.0015107
c     5.5404602    2.5752314    0.0141154  0.00    0.0214966   -0.0092090    0.0180082