    27
 Energy =       0.2807662283
c    -1.4235396    2.6054793   -0.0667700  0.00   -0.0460766    0.0385210    0.0022561
c    -1.3072796    1.2134697   -0.1072300  0.00   -0.0852476   -0.0325463    0.0017637
c    -0.0178900    0.6711998   -0.1697000  0.00   -0.0893865   -0.1888753   -0.0001581
c    -0.2940599    3.4190890   -0.0891300  0.00   -0.0217040    0.0689267    0.0017403
c     0.9872197    2.8590292   -0.1560400  0.00    0.0323530    0.0673633   -0.0300393
c     1.1340797    1.4562096   -0.1970299  0.00    0.0558184    0.0526080   -0.0011484
n     0.3879399   -0.6395298   -0.2140799  0.00    0.1425500    0.1108838   -0.0038416
c     2.2666594    0.5727398   -0.2659299  0.00    0.1577371   -0.0868548   -0.0072510
c     1.7555995   -0.7123598   -0.2706899  0.00   -0.0966187   -0.0962321   -0.0015328
h    -0.2400399   -1.4313496   -0.2047299  0.00    0.0369975    0.0478760   -0.0003384
c     3.7030089    1.0223397   -0.3320099  0.00   -0.0127531    0.0439406   -0.0218800
c     4.2197688    1.4064496   -1.7267995  0.00    0.1355230   -0.0026483    0.0964299
h     4.3261788    0.2093419    0.0639454  0.00   -0.0096830    0.0105570   -0.0019578
h     3.8370289    1.8640295    0.3610799  0.00   -0.0049659   -0.0114073   -0.0096151
c     3.6319390    2.7753292   -2.1168494  0.00   -0.3947302    0.1024440   -0.1040355
n     3.8331589    0.4251339   -2.8019292  0.00   -0.0540651   -0.0169204   -0.0824174
h     5.3112285    1.5100896   -1.7329195  0.00   -0.0202178   -0.0018625   -0.0098903
h     3.3525690   -0.3535799   -2.3395993  0.00    0.0052097    0.0406242    0.0143941
h     3.1006291    0.8621858   -3.3722390  0.00    0.0315074    0.0129550    0.0409222
h    -2.4108593    3.0588691   -0.0157800  0.00   -0.0008371    0.0001911    0.0003410
h    -2.1896094    0.5822398   -0.0890100  0.00   -0.0035608    0.0037280    0.0002607
h    -0.4052699    4.5000487   -0.0535400  0.00    0.0003437    0.0003209    0.0012735
h     1.8590495    3.5066790   -0.1715100  0.00    0.0064411   -0.0024937   -0.0191124
h     2.2327294   -1.6813195   -0.3062999  0.00   -0.0404825   -0.0112418    0.0020206
o     2.4489393    3.0163391   -2.2910193  0.00    0.2575290   -0.0665313    0.0998319
o     4.6103187    3.7115289   -2.2467394  0.00    0.0158619   -0.0510949    0.0093584
h     4.5286087    4.0397588   -3.1795791  0.00    0.0024570   -0.0322311    0.0226253
    27
 Energy =       0.2316105767
c    -1.3638492    2.5905123    0.0286397  0.00   -0.0298511    0.0250794    0.0012735
c    -1.2555362    1.2106567   -0.0296516  0.00   -0.0557546   -0.0215072    0.0010111
c     0.0124064    0.6657297   -0.0994896  0.00   -0.0578520   -0.1214287    0.0017558
c    -0.2344972    3.3897109    0.0124284  0.00   -0.0145430    0.0450071    0.0008393
c     1.0293656    2.8220234   -0.0648076  0.00    0.0215879    0.0439785   -0.0195539
c     1.1474723    1.4386929   -0.1259698  0.00    0.0355367    0.0353284   -0.0010923
n     0.3842612   -0.6693628   -0.2046565  0.00    0.0926644    0.0696511   -0.0044560
c     2.2574915    0.5864803   -0.2317768  0.00    0.1025808   -0.0559543   -0.0033618
c     1.7742728   -0.6953462   -0.2578661  0.00   -0.0649613   -0.0598212    0.0003257
h    -0.2462804   -1.4748655   -0.2225192  0.00    0.0240827    0.0308575   -0.0008138
c     3.6956711    1.0252115   -0.3688031  0.00   -0.0090695    0.0290344   -0.0145910
c     4.1325707    1.4343575   -1.7916373  0.00    0.0895193   -0.0011211    0.0620343
h     4.3398319    0.1916180   -0.0349525  0.00   -0.0046944    0.0054653   -0.0009852
h     3.8864006    1.8539311    0.3361005  0.00   -0.0030092   -0.0065785   -0.0049697
c     3.5914626    2.8210613   -2.1579145  0.00   -0.2608317    0.0650276   -0.0681861
n     3.7242995    0.4530588   -2.8472694  0.00   -0.0345713   -0.0117823   -0.0537997
h     5.2317766    1.5239514   -1.8245144  0.00   -0.0127340   -0.0013084   -0.0065054
h     3.2264446   -0.3330924   -2.4035694  0.00    0.0029161    0.0264633    0.0092876
h     3.0093960    0.8991354   -3.4482749  0.00    0.0201742    0.0099673    0.0266365
h    -2.3479145    3.0502038    0.0828444  0.00   -0.0005794    0.0001266    0.0002187
h    -2.1392715    0.5811252   -0.0274449  0.00   -0.0023897    0.0022981    0.0001077
h    -0.3357545    4.4715121    0.0539938  0.00    0.0002018    0.0002756    0.0008199
h     1.9133950    3.4529621   -0.0889560  0.00    0.0050926   -0.0022362   -0.0125837
h     2.3130502   -1.6316084   -0.3523118  0.00   -0.0245884   -0.0100246    0.0009754
o     2.3560885    3.0938456   -2.3446235  0.00    0.1681772   -0.0421659    0.0646697
o     4.5663091    3.7639320   -2.3407934  0.00    0.0116749   -0.0367803    0.0320434
h     4.5692433    3.9540037   -3.3383322  0.00    0.0012210   -0.0178518   -0.0111001
    27
 Energy =       0.2283211108
c    -1.3706472    2.5754856    0.0450538  0.00   -0.0268571    0.0226033    0.0011289
c    -1.2578032    1.1986464   -0.0224838  0.00   -0.0501873   -0.0193624    0.0009078
c     0.0084856    0.6589145   -0.0991848  0.00   -0.0520871   -0.1092975    0.0016265
c    -0.2448620    3.3767783    0.0330917  0.00   -0.0130849    0.0405276    0.0007230
c     1.0178993    2.8135280   -0.0494517  0.00    0.0194475    0.0396158   -0.0176368
c     1.1372636    1.4344701   -0.1234662  0.00    0.0319337    0.0318066   -0.0009916
n     0.3806979   -0.6787413   -0.2133757  0.00    0.0832894    0.0626548   -0.0039990
c     2.2470860    0.5932750   -0.2397230  0.00    0.0923864   -0.0503885   -0.0029890
c     1.7746090   -0.6895724   -0.2739123  0.00   -0.0584450   -0.0537957    0.0003083
h    -0.2461424   -1.4899957   -0.2331036  0.00    0.0216708    0.0277283   -0.0007405
c     3.6855222    1.0366141   -0.3719067  0.00   -0.0081970    0.0261070   -0.0131235
c     4.1245419    1.4608232   -1.7914163  0.00    0.0806868   -0.0007204    0.0561096
h     4.3321299    0.2011138   -0.0450453  0.00   -0.0042178    0.0048865   -0.0008811
h     3.8741006    1.8597830    0.3413663  0.00   -0.0027075   -0.0058879   -0.0044314
c     3.5829969    2.8481846   -2.1519971  0.00   -0.2350564    0.0586071   -0.0625996
n     3.7349491    0.4805894   -2.8525803  0.00   -0.0309827   -0.0106653   -0.0484124
h     5.2244809    1.5577839   -1.8119344  0.00   -0.0113568   -0.0011224   -0.0059178
h     3.2354565   -0.3131562   -2.4212117  0.00    0.0025258    0.0237010    0.0084082
h     3.0287895    0.9235999   -3.4688073  0.00    0.0180240    0.0090299    0.0237795
h    -2.3559751    3.0318532    0.1037990  0.00   -0.0005337    0.0001301    0.0001967
h    -2.1389987    0.5656280   -0.0226692  0.00   -0.0021589    0.0020599    0.0000954
h    -0.3487570    4.4580618    0.0821847  0.00    0.0001799    0.0002829    0.0007363
h     1.9002023    3.4467825   -0.0695704  0.00    0.0045954   -0.0020160   -0.0113372
h     2.3281686   -1.6165417   -0.3753485  0.00   -0.0220378   -0.0091305    0.0008621
o     2.3359404    3.1131429   -2.3418671  0.00    0.1516505   -0.0379987    0.0576620
o     4.5489514    3.8002337   -2.3440887  0.00    0.0067499   -0.0332048    0.0723253
h     4.6990195    3.8221560   -3.3744790  0.00    0.0047699   -0.0161507   -0.0518098
    27
 Energy =       0.2127573347
c    -1.3761938    2.4984656    0.1030115  0.00   -0.0194028    0.0170312    0.0007228
c    -1.2486189    1.1314468   -0.0218990  0.00   -0.0357151   -0.0148205    0.0007386
c     0.0151610    0.6093335   -0.1160622  0.00   -0.0374680   -0.0752480    0.0033328
c    -0.2608738    3.3073433    0.1313965  0.00   -0.0088924    0.0297964    0.0001167
c     1.0006470    2.7594928    0.0339262  0.00    0.0138058    0.0297188   -0.0127427
c     1.1263208    1.3942719   -0.1046543  0.00    0.0222128    0.0228393   -0.0008776
n     0.3910730   -0.7287297   -0.3169691  0.00    0.0597347    0.0411348   -0.0049167
c     2.2384179    0.5883591   -0.2616140  0.00    0.0668982   -0.0352634   -0.0015801
c     1.7966234   -0.6971841   -0.3531118  0.00   -0.0419275   -0.0381609    0.0015142
h    -0.2247994   -1.5546267   -0.3918567  0.00    0.0140792    0.0174093   -0.0012555
c     3.6753408    1.0535450   -0.3816279  0.00   -0.0060257    0.0183725   -0.0093223
c     4.1170170    1.5228440   -1.7931024  0.00    0.0581061    0.0005254    0.0404692
h     4.3333249    0.2159899   -0.0762797  0.00   -0.0028742    0.0032086   -0.0005966
h     3.8556414    1.8613025    0.3544948  0.00   -0.0019706   -0.0039082   -0.0028451
c     3.5839125    2.9147571   -2.1372410  0.00   -0.1648273    0.0403471   -0.0463677
n     3.7699115    0.5521846   -2.8725651  0.00   -0.0205489   -0.0077005   -0.0344642
h     5.2187939    1.6365693   -1.7883530  0.00   -0.0077052   -0.0006000   -0.0042671
h     3.2618967   -0.2605858   -2.4802007  0.00    0.0009224    0.0158312    0.0063960
h     3.0935531    0.9960700   -3.5285010  0.00    0.0116099    0.0073013    0.0155367
h    -2.3662130    2.9429695    0.1735061  0.00   -0.0004812    0.0002978    0.0001546
h    -2.1223281    0.4882268   -0.0601014  0.00   -0.0020327    0.0007304   -0.0000153
h    -0.3739257    4.3857427    0.2246572  0.00    0.0001521    0.0012849    0.0005809
h     1.8787923    3.3989994    0.0464437  0.00    0.0037313   -0.0011306   -0.0080191
h     2.3910102   -1.5954551   -0.4933065  0.00   -0.0148967   -0.0080913    0.0004866
o     2.3020973    3.1903861   -2.2699260  0.00    0.1054846   -0.0262953    0.0426175
o     4.5302142    3.8893929   -2.3428124  0.00    0.0033043   -0.0227465    0.0557836
h     4.6313097    3.9683290   -3.3693794  0.00    0.0047267   -0.0118637   -0.0411800
    27
 Energy =       0.2122866408
c    -1.4059585    2.4221131    0.1060862  0.00   -0.0191036    0.0166874    0.0007663
c    -1.2571735    1.0618620   -0.0648849  0.00   -0.0342914   -0.0151313    0.0006448
c     0.0146262    0.5611407   -0.1610961  0.00   -0.0360127   -0.0706817    0.0037074
c    -0.3029056    3.2452626    0.1780769  0.00   -0.0080211    0.0293087    0.0001732
c     0.9665728    2.7183996    0.0804045  0.00    0.0132776    0.0295752   -0.0119075
c     1.1131335    1.3615867   -0.1074822  0.00    0.0213789    0.0219788   -0.0008252
n     0.4126567   -0.7630355   -0.4246696  0.00    0.0571333    0.0374060   -0.0052787
c     2.2390851    0.5813733   -0.2809616  0.00    0.0642045   -0.0330400   -0.0012203
c     1.8198051   -0.7069661   -0.4247950  0.00   -0.0399170   -0.0370449    0.0016547
h    -0.1880317   -1.5964498   -0.5506099  0.00    0.0121570    0.0146879   -0.0015488
c     3.6713183    1.0756680   -0.3645724  0.00   -0.0055909    0.0174407   -0.0085064
c     4.1333149    1.5897301   -1.7567113  0.00    0.0557914    0.0016526    0.0391485
h     4.3386462    0.2419843   -0.0681435  0.00   -0.0026877    0.0029532   -0.0005754
h     3.8242445    1.8678358    0.3955260  0.00   -0.0018131   -0.0031934   -0.0021827
c     3.5772931    2.9774441   -2.0863188  0.00   -0.1569248    0.0386924   -0.0439361
n     3.8367879    0.6328304   -2.8637633  0.00   -0.0191030   -0.0077074   -0.0346226
h     5.2323958    1.7305484   -1.7219272  0.00   -0.0065744   -0.0003745   -0.0041907
h     3.3422765   -0.2031561   -2.5017326  0.00    0.0002441    0.0139902    0.0061961
h     3.1675296    1.0727227   -3.5301379  0.00    0.0108867    0.0067754    0.0146027
h    -2.4032493    2.8502448    0.1773527  0.00   -0.0006225    0.0003746    0.0001620
h    -2.1211593    0.4078495   -0.1416877  0.00   -0.0025296   -0.0000037   -0.0001011
h    -0.4321776    4.3188077    0.3073248  0.00    0.0002129    0.0020694    0.0006465
h     1.8355482    3.3693783    0.1291708  0.00    0.0040813   -0.0004542   -0.0075186
h     2.4334792   -1.5892079   -0.5835581  0.00   -0.0141096   -0.0082629    0.0004073
o     2.2861832    3.2378632   -2.1847627  0.00    0.0998637   -0.0250252    0.0404125
o     4.5045740    3.9667648   -2.3107504  0.00    0.0035755   -0.0213530    0.0533325
h     4.5992907    4.0368459   -3.3375046  0.00    0.0044946   -0.0113202   -0.0394404
    27
 Energy =       0.2105994094
c    -1.3715407    2.4873330    0.1326655  0.00   -0.0192729    0.0164944    0.0008066
c    -1.2434859    1.1207062   -0.0020040  0.00   -0.0338451   -0.0155783    0.0005734
c     0.0193862    0.6009321   -0.1063088  0.00   -0.0353057   -0.0681725    0.0038199
c    -0.2564734    3.2980593    0.1613836  0.00   -0.0074214    0.0293836    0.0002383
c     1.0044912    2.7523371    0.0535695  0.00    0.0132793    0.0298445   -0.0114924
c     1.1290823    1.3880155   -0.0965036  0.00    0.0212311    0.0217986   -0.0007789
n     0.3930730   -0.7402943   -0.3172941  0.00    0.0554379    0.0352206   -0.0053622
c     2.2400680    0.5866789   -0.2674365  0.00    0.0630077   -0.0318042   -0.0009285
c     1.8011587   -0.7005533   -0.3648457  0.00   -0.0385514   -0.0366153    0.0016800
h    -0.2230984   -1.5704559   -0.3918567  0.00    0.0105340    0.0125027   -0.0016800
c     3.6772047    1.0554686   -0.3966303  0.00   -0.0051330    0.0170467   -0.0078765
c     4.1108335    1.5305089   -1.8115000  0.00    0.0547741    0.0027626    0.0388224
h     4.3385715    0.2172666   -0.0990434  0.00   -0.0025714    0.0028559   -0.0005800
h     3.8622564    1.8620291    0.3422097  0.00   -0.0016386   -0.0025557   -0.0015691
c     3.5827297    2.9263786   -2.1475002  0.00   -0.1536233    0.0380897   -0.0426956
n     3.7589497    0.5616800   -2.8936089  0.00   -0.0182198   -0.0081313   -0.0357861
h     5.2148922    1.6430151   -1.8115194  0.00   -0.0054570   -0.0001988   -0.0042320
h     3.2439307   -0.2510928   -2.5054741  0.00   -0.0004388    0.0125605    0.0061038
h     3.0870640    1.0100586   -3.5521637  0.00    0.0104583    0.0064577    0.0141298
h    -2.3619630    2.9302368    0.2112616  0.00   -0.0007974    0.0003910    0.0001684
h    -2.1171908    0.4749751   -0.0399285  0.00   -0.0031064   -0.0006341   -0.0001433
h    -0.3696010    4.3768355    0.2630745  0.00    0.0003049    0.0025932    0.0006808
h     1.8830284    3.3935225    0.0667134  0.00    0.0045406    0.0001068   -0.0072887
h     2.4003740   -1.5944077   -0.5170713  0.00   -0.0138031   -0.0083523    0.0003685
o     2.2954998    3.2112037   -2.2588919  0.00    0.0973430   -0.0244296    0.0393589
o     4.5298331    3.9008469   -2.3588670  0.00    0.0039477   -0.0204701    0.0531175
h     4.6090319    3.9981565   -3.3845574  0.00    0.0043267   -0.0111664   -0.0394550
    27
 Energy =       0.2076870398
c    -1.3295555    2.5336618    0.1829378  0.00   -0.0184628    0.0152958    0.0007852
c    -1.2183351    1.1639281    0.0766932  0.00   -0.0318099   -0.0150408    0.0004656
c     0.0352739    0.6292811   -0.0432449  0.00   -0.0327327   -0.0626657    0.0034812
c    -0.2058236    3.3327773    0.1693500  0.00   -0.0065597    0.0278621    0.0002804
c     1.0463439    2.7719974    0.0434746  0.00    0.0127718    0.0283154   -0.0105781
c     1.1517790    1.4042097   -0.0784140  0.00    0.0200688    0.0206145   -0.0006867
n     0.3876633   -0.7248354   -0.2105981  0.00    0.0502631    0.0319745   -0.0047911
c     2.2478977    0.5888034   -0.2598050  0.00    0.0584580   -0.0291923   -0.0005310
c     1.7954527   -0.6959414   -0.3166837  0.00   -0.0347873   -0.0340943    0.0014729
h    -0.2398970   -1.5519466   -0.2331036  0.00    0.0083794    0.0098259   -0.0015636
c     3.6860060    1.0361372   -0.4458008  0.00   -0.0041341    0.0159842   -0.0067564
c     4.0749926    1.4839408   -1.8830337  0.00    0.0509405    0.0037057    0.0365895
h     4.3470298    0.1931649   -0.1597201  0.00   -0.0022111    0.0026527   -0.0005425
h     3.9084428    1.8512854    0.2746903  0.00   -0.0013191   -0.0018140   -0.0008158
c     3.5743334    2.8899917   -2.2129001  0.00   -0.1429097    0.0354315   -0.0395673
n     3.6628284    0.5112659   -2.9415121  0.00   -0.0165585   -0.0084406   -0.0352586
h     5.1823965    1.5686144   -1.9249764  0.00   -0.0038353   -0.0001047   -0.0040505
h     3.1286525   -0.2791425   -2.5310002  0.00   -0.0010205    0.0107114    0.0055132
h     2.9881771    0.9723463   -3.5896048  0.00    0.0094161    0.0058794    0.0129272
h    -2.3136021    2.9883728    0.2748211  0.00   -0.0009649    0.0003523    0.0001679
h    -2.0990262    0.5256350    0.0771903  0.00   -0.0035245   -0.0011297   -0.0001442
h    -0.3055478    4.4147756    0.2502623  0.00    0.0003835    0.0027563    0.0006551
h     1.9320458    3.4041489    0.0217717  0.00    0.0047779    0.0005561   -0.0067452
h     2.3846353   -1.5957226   -0.4753755  0.00   -0.0127699   -0.0078679    0.0003035
o     2.2876651    3.2014477   -2.3230803  0.00    0.0901204   -0.0225258    0.0365363
o     4.5376717    3.8539209   -2.4065459  0.00    0.0040167   -0.0186687    0.0518719
h     4.5906057    3.9973227   -3.4279201  0.00    0.0040038   -0.0103733   -0.0390189
    27
 Energy =       0.2046974019
c    -1.2752330    2.5413716    0.2736714  0.00   -0.0169904    0.0134723    0.0006980
c    -1.1738386    1.1717214    0.1782045  0.00   -0.0289248   -0.0135666    0.0003617
c     0.0715874    0.6298646    0.0295601  0.00   -0.0293370   -0.0560439    0.0029356
c    -0.1481795    3.3331436    0.2228683  0.00   -0.0058430    0.0252674    0.0002886
c     1.0960075    2.7646854    0.0657964  0.00    0.0119086    0.0253199   -0.0092848
c     1.1885370    1.3976139   -0.0484054  0.00    0.0179580    0.0187966   -0.0005232
n     0.4097301   -0.7306631   -0.1225778  0.00    0.0426929    0.0289686   -0.0036793
c     2.2714810    0.5788020   -0.2650281  0.00    0.0514578   -0.0261613    0.0001858
c     1.8143264   -0.7035853   -0.2979665  0.00   -0.0294942   -0.0301399    0.0011909
h    -0.2221777   -1.5565965   -0.1022434  0.00    0.0064932    0.0076679   -0.0013039
c     3.7024689    1.0160363   -0.5267802  0.00   -0.0026162    0.0149084   -0.0048618
c     4.0160018    1.4699507   -1.9828505  0.00    0.0453851    0.0041713    0.0332198
h     4.3732960    0.1659147   -0.2828225  0.00   -0.0010412    0.0018964   -0.0003251
h     3.9709439    1.8251509    0.1867450  0.00   -0.0009418   -0.0010977    0.0002669
c     3.5342094    2.8911977   -2.2709792  0.00   -0.1283287    0.0308064   -0.0354149
n     3.5318615    0.5140527   -3.0274823  0.00   -0.0143002   -0.0094399   -0.0336747
h     5.1234609    1.5318316   -2.0837295  0.00   -0.0014210   -0.0004293   -0.0037326
h     2.9893091   -0.2632473   -2.6015281  0.00   -0.0011922    0.0091410    0.0041378
h     2.8428644    0.9975190   -3.6462134  0.00    0.0073136    0.0054489    0.0106708
h    -2.2542098    3.0021808    0.3887558  0.00   -0.0012049    0.0003364    0.0001760
h    -2.0572322    0.5376989    0.2116314  0.00   -0.0036609   -0.0013004   -0.0001167
h    -0.2396192    4.4161635    0.2972567  0.00    0.0003817    0.0025367    0.0005889
h     1.9847601    3.3912499    0.0136820  0.00    0.0047236    0.0007400   -0.0059190
h     2.3976943   -1.6017232   -0.4885129  0.00   -0.0108624   -0.0073420    0.0001249
o     2.2442238    3.2254384   -2.3611901  0.00    0.0801653   -0.0194338    0.0325546
o     4.5052868    3.8578724   -2.4208549  0.00    0.0039568   -0.0157071    0.0500219
h     4.5405454    4.0657958   -3.4311346  0.00    0.0037222   -0.0088162   -0.0385862
    27
 Energy =       0.2006168385
c    -1.2325531    2.5657718    0.3651679  0.00   -0.0144677    0.0107850    0.0005819
c    -1.1397306    1.1974346    0.2787512  0.00   -0.0242896   -0.0112648    0.0002269
c     0.0956827    0.6494484    0.0984750  0.00   -0.0239428   -0.0460477    0.0021431
c    -0.1043520    3.3500965    0.2757304  0.00   -0.0047564    0.0210983    0.0002972
c     1.1301528    2.7746457    0.0858314  0.00    0.0104432    0.0208164   -0.0076550
c     1.2100942    1.4095570   -0.0207788  0.00    0.0150904    0.0157150   -0.0003419
n     0.4203031   -0.7177837   -0.0367348  0.00    0.0336771    0.0238714   -0.0024304
c     2.2789806    0.5888413   -0.2644335  0.00    0.0424067   -0.0214846    0.0006061
c     1.8207094   -0.6912631   -0.2680018  0.00   -0.0232117   -0.0247386    0.0006403
h    -0.2137581   -1.5424410    0.0215130  0.00    0.0045984    0.0054036   -0.0009628
c     3.7032705    1.0138930   -0.5816438  0.00   -0.0015931    0.0120781   -0.0035384
c     3.9752819    1.4336926   -2.0583610  0.00    0.0369021    0.0042934    0.0275805
h     4.3775979    0.1653419   -0.3397432  0.00   -0.0008040    0.0015431   -0.0002874
h     3.9998575    1.8373856    0.1050373  0.00   -0.0004512   -0.0003645    0.0007401
c     3.5308070    2.8624685   -2.3636019  0.00   -0.1035696    0.0235394   -0.0306242
n     3.4439207    0.4671232   -3.0682833  0.00   -0.0109711   -0.0084222   -0.0296233
h     5.0817421    1.4672753   -2.1922404  0.00   -0.0002688   -0.0001700   -0.0033723
h     2.8730608   -0.2786988   -2.6203282  0.00   -0.0019827    0.0060661    0.0037284
h     2.7715802    0.9584039   -3.7008604  0.00    0.0056435    0.0049738    0.0086122
h    -2.2057725    3.0319254    0.5061406  0.00   -0.0013900    0.0002755    0.0002203
h    -2.0238750    0.5672088    0.3467058  0.00   -0.0035534   -0.0014049   -0.0000565
h    -0.1881882    4.4337141    0.3451005  0.00    0.0003408    0.0021112    0.0005293
h     2.0207967    3.3953748    0.0036941  0.00    0.0044133    0.0007915   -0.0049171
h     2.4021089   -1.5876144   -0.4734423  0.00   -0.0087541   -0.0060844   -0.0000325
o     2.2380449    3.2437174   -2.3810312  0.00    0.0609927   -0.0153160    0.0277365
o     4.5228242    3.7996982   -2.5796081  0.00    0.0079899   -0.0129269    0.0549436
h     4.4495193    4.0742235   -3.5751822  0.00    0.0015081   -0.0051372   -0.0447447
    27
 Energy =       0.1997027545
c    -1.2120416    2.6068527    0.4050821  0.00   -0.0136503    0.0099959    0.0005564
c    -1.1272649    1.2380629    0.3306727  0.00   -0.0227626   -0.0106036    0.0002007
c     0.1017535    0.6821738    0.1387817  0.00   -0.0223036   -0.0428473    0.0019496
c    -0.0813900    3.3838995    0.2928893  0.00   -0.0043506    0.0197993    0.0002854
c     1.1467288    2.8002481    0.0909324  0.00    0.0098511    0.0194807   -0.0070963
c     1.2173019    1.4345823   -0.0039556  0.00    0.0141838    0.0147289   -0.0003109
n     0.4165573   -0.6893309    0.0200273  0.00    0.0311608    0.0221343   -0.0021815
c     2.2774099    0.6068438   -0.2538944  0.00    0.0395990   -0.0198731    0.0007328
c     1.8141442   -0.6707983   -0.2340370  0.00   -0.0215121   -0.0231770    0.0005507
h    -0.2208364   -1.5102449    0.0999301  0.00    0.0040329    0.0047260   -0.0008580
c     3.7001670    1.0189892   -0.5956620  0.00   -0.0016243    0.0110020   -0.0029540
c     3.9633602    1.3929141   -2.0878063  0.00    0.0340843    0.0040289    0.0259660
h     4.3738761    0.1758324   -0.3325126  0.00   -0.0006986    0.0011931   -0.0001598
h     4.0050446    1.8625336    0.0631740  0.00   -0.0002650    0.0001157    0.0010577
c     3.5300365    2.8155749   -2.4368627  0.00   -0.0966719    0.0202893   -0.0286009
n     3.4224777    0.3988968   -3.0650330  0.00   -0.0096640   -0.0084633   -0.0284954
h     5.0694485    1.4153999   -2.2283173  0.00   -0.0001376   -0.0002297   -0.0032406
h     2.8383236   -0.3233338   -2.5950972  0.00   -0.0023015    0.0048957    0.0039419
h     2.7616727    0.8764102   -3.7206290  0.00    0.0048671    0.0050976    0.0076155
h    -2.1808031    3.0793466    0.5552856  0.00   -0.0013812    0.0002574    0.0002148
h    -2.0132444    0.6128999    0.4183201  0.00   -0.0034883   -0.0014353   -0.0000395
h    -0.1586214    4.4684817    0.3531937  0.00    0.0003426    0.0020375    0.0004940
h     2.0395193    3.4152587   -0.0104699  0.00    0.0043334    0.0008504   -0.0046359
h     2.3907154   -1.5711239   -0.4361406  0.00   -0.0081555   -0.0057047   -0.0000518
o     2.2410233    3.2218794   -2.3931501  0.00    0.0537982   -0.0146283    0.0263832
o     4.5271820    3.7278582   -2.7383612  0.00    0.0117888   -0.0093490    0.0531307
h     4.3955651    3.9993338   -3.7284880  0.00    0.0009252   -0.0043213   -0.0444551
    27
 Energy =       0.1998323877
c    -1.1698242    2.6176172    0.5005758  0.00   -0.0130814    0.0092440    0.0005466
c    -1.0877980    1.2494763    0.4243717  0.00   -0.0216646   -0.0098140    0.0002233
c     0.1351262    0.6927504    0.2023319  0.00   -0.0209858   -0.0401281    0.0018187
c    -0.0415489    3.3931289    0.3615521  0.00   -0.0041975    0.0187137    0.0002989
c     1.1801854    2.8084222    0.1283712  0.00    0.0094823    0.0180683   -0.0065816
c     1.2461804    1.4437822    0.0288552  0.00    0.0132320    0.0139054   -0.0002180
n     0.4451167   -0.6798172    0.0783665  0.00    0.0281327    0.0209266   -0.0017414
c     2.2969847    0.6171382   -0.2561357  0.00    0.0369446   -0.0189193    0.0008911
c     1.8349894   -0.6600058   -0.2221942  0.00   -0.0193156   -0.0215597    0.0003665
h    -0.1898301   -1.5007548    0.1805614  0.00    0.0034719    0.0041295   -0.0007430
c     3.7075565    1.0285837   -0.6514755  0.00   -0.0008021    0.0100138   -0.0023499
c     3.9228635    1.3813199   -2.1585422  0.00    0.0315443    0.0042618    0.0242493
h     4.3920787    0.1912121   -0.3970967  0.00   -0.0005371    0.0010673   -0.0000432
h     4.0319026    1.8829795   -0.0158217  0.00    0.0000251    0.0004196    0.0013237
c     3.4793896    2.7980955   -2.5206992  0.00   -0.0873431    0.0169189   -0.0274497
n     3.3599500    0.3698092   -3.1042755  0.00   -0.0089843   -0.0081278   -0.0275141
h     5.0250585    1.4047729   -2.3303942  0.00    0.0003656   -0.0000854   -0.0030945
h     2.7817815   -0.3407557   -2.6093636  0.00   -0.0024997    0.0040634    0.0038305
h     2.6882820    0.8351861   -3.7578396  0.00    0.0043652    0.0048005    0.0069622
h    -2.1344120    3.0909481    0.6745060  0.00   -0.0015907    0.0003127    0.0002475
h    -1.9717796    0.6249921    0.5343877  0.00   -0.0035213   -0.0014263   -0.0000057
h    -0.1161985    4.4776433    0.4242043  0.00    0.0003031    0.0019157    0.0004635
h     2.0710184    3.4223688    0.0037278  0.00    0.0043557    0.0008905   -0.0043249
h     2.4061983   -1.5586702   -0.4471329  0.00   -0.0073365   -0.0054860   -0.0001519
o     2.1960251    3.2207064   -2.3842469  0.00    0.0445647   -0.0131603    0.0257177
o     4.4644461    3.6985578   -2.8971143  0.00    0.0145275   -0.0073431    0.0507745
h     4.2843638    3.9599532   -3.8816073  0.00    0.0005448   -0.0036016   -0.0434962
    27
 Energy =       0.2015493487
c    -1.1142140    2.5905710    0.6273309  0.00   -0.0131931    0.0091278    0.0006130
c    -1.0280918    1.2238210    0.5340100  0.00   -0.0217275   -0.0093615    0.0003392
c     0.1907532    0.6751096    0.2710977  0.00   -0.0208952   -0.0390033    0.0019180
c     0.0066405    3.3724330    0.4659568  0.00   -0.0045811    0.0186197    0.0004097
c     1.2237104    2.7957632    0.1902236  0.00    0.0094774    0.0174481   -0.0062323
c     1.2919421    1.4332538    0.0693306  0.00    0.0124356    0.0137704    0.0000187
n     0.5029618   -0.6946849    0.1190252  0.00    0.0260628    0.0205717   -0.0012824
c     2.3347999    0.6167804   -0.2714439  0.00    0.0357509   -0.0192705    0.0011931
c     1.8805591   -0.6629092   -0.2390450  0.00   -0.0174832   -0.0208315    0.0001509
h    -0.1233891   -1.5204348    0.2366557  0.00    0.0031613    0.0038479   -0.0006748
c     3.7228957    1.0429514   -0.7343679  0.00    0.0003497    0.0096833   -0.0013462
c     3.8623619    1.4082757   -2.2505520  0.00    0.0304721    0.0040773    0.0229150
h     4.4271320    0.2099421   -0.5186819  0.00    0.0002604    0.0005048    0.0002044
h     4.0707444    1.8964995   -0.1097642  0.00    0.0002495    0.0004991    0.0016971
c     3.3800215    2.8201447   -2.5888791  0.00   -0.0813933    0.0148896   -0.0282294
n     3.2777300    0.3906894   -3.1759507  0.00   -0.0074585   -0.0078730   -0.0270939
h     4.9567265    1.4515921   -2.4703837  0.00    0.0016746   -0.0000486   -0.0032932
h     2.7280052   -0.3275645   -2.6590405  0.00   -0.0030039    0.0031948    0.0041124
h     2.5724949    0.8473031   -3.8012935  0.00    0.0031402    0.0052700    0.0057948
h    -2.0760091    3.0577306    0.8332592  0.00   -0.0020564    0.0005225    0.0003463
h    -1.9061292    0.5941963    0.6615915  0.00   -0.0036623   -0.0014081    0.0000336
h    -0.0709380    4.4558726    0.5427395  0.00    0.0001932    0.0019781    0.0004755
h     2.1080360    3.4149250    0.0437868  0.00    0.0045540    0.0009524   -0.0040571
h     2.4459155   -1.5541744   -0.5083217  0.00   -0.0063337   -0.0060592   -0.0004663
o     2.1020019    3.2309184   -2.3547048  0.00    0.0376776   -0.0113398    0.0258307
o     4.3330966    3.7376158   -3.0069363  0.00    0.0162308   -0.0065940    0.0502110
h     4.1383480    3.9628196   -3.9977698  0.00    0.0000979   -0.0031683   -0.0435879
    27
 Energy =       0.1999387853
c    -1.1094751    2.5709287    0.6595816  0.00   -0.0114708    0.0079551    0.0006126
c    -1.0277393    1.2060692    0.5542207  0.00   -0.0189701   -0.0081425    0.0003779
c     0.1843493    0.6570465    0.2700393  0.00   -0.0179581   -0.0340411    0.0017084
c     0.0106322    3.3502144    0.4904947  0.00   -0.0040339    0.0162125    0.0004372
c     1.2212569    2.7726337    0.1951375  0.00    0.0081546    0.0147983   -0.0052566
c     1.2831945    1.4131480    0.0619055  0.00    0.0109858    0.0119468   -0.0001366
n     0.4904349   -0.7139269    0.1088301  0.00    0.0227375    0.0178520   -0.0011033
c     2.3197118    0.5987798   -0.2890109  0.00    0.0310307   -0.0166062    0.0011751
c     1.8667159   -0.6798731   -0.2578679  0.00   -0.0152742   -0.0181587    0.0004350
h    -0.1369000   -1.5397158    0.2246524  0.00    0.0028115    0.0033178   -0.0005522
c     3.7057585    1.0202717   -0.7583369  0.00    0.0004181    0.0083985   -0.0009944
c     3.8407169    1.4037671   -2.2706299  0.00    0.0283496    0.0032042    0.0236076
h     4.4036050    0.1774400   -0.5589934  0.00    0.0003565    0.0002976    0.0000506
h     4.0677688    1.8606998   -0.1237267  0.00    0.0003421    0.0006186    0.0015557
c     3.4693502    2.8594378   -2.5734767  0.00   -0.0704184    0.0123089   -0.0255368