    13
 Energy =       5.6757519091
c    -3.7133889    1.6950595    0.3173519  0.00    0.0142408   -0.0371684   -0.0163326
c    -2.4962693    2.6345192    0.2419999  0.00    0.0611212    0.3324704    0.0830404
c    -4.9565486    2.3924193   -0.2155699  0.00    0.0130607    0.0003863    0.0135796
h    -4.7854386    2.7464192   -1.2386596  0.00   -0.0031893   -0.0055843    0.0170877
h    -5.2149185    3.2645991    0.3947669  0.00    0.0030853   -0.0141564   -0.0130725
h    -5.8205083    1.7195795   -0.2420919  0.00    0.0129491    0.0115370   -0.0059325
n    -3.4097890    0.4519539   -0.4549189  0.00    0.8386939    0.3087314   -0.1504104
h    -3.8575589    1.4177196    1.3669296  0.00   -0.0008638   -0.0031976   -0.0238403
h    -4.2340588    0.2238779   -1.0206697  0.00    0.0254720    0.0331523    0.0224767
h    -2.6878492    0.6694128   -1.1486897  0.00   46.1284447   24.6070244   24.7065843
o    -2.4571893    3.7760389    0.6681628  0.00   -0.0094033   -0.2737496   -0.1061391
o    -1.4389296    2.0221094   -0.3549299  0.00   -0.1624562   -0.1594166   -0.0442607
h    -1.7862895    1.1491097   -0.6669268  0.00  -46.9211552  -24.8000290  -24.4827804
    13
 Energy =       4.0680756758
c    -3.7074010    1.7017507    0.3294772  0.00    0.0096642   -0.0225637   -0.0104151
c    -2.4685550    2.5974967    0.2372568  0.00    0.0368469    0.2085494    0.0554439
c    -4.9395714    2.4234276   -0.2125808  0.00    0.0088528    0.0011100    0.0084579
h    -4.7647344    2.7581529   -1.2480120  0.00   -0.0016723   -0.0024691    0.0112661
h    -5.1668715    3.3150694    0.3955304  0.00    0.0014992   -0.0089799   -0.0067278
h    -5.8275706    1.7714368   -0.2092183  0.00    0.0073387    0.0069645   -0.0039991
n    -3.4465114    0.4471071   -0.4350844  0.00    0.5740158    0.2130987   -0.0618826
h    -3.8475437    1.4475870    1.3932172  0.00   -0.0002973   -0.0022506   -0.0147676
h    -4.3433546    0.1023118   -0.8619166  0.00   -0.0101494    0.0105341    0.0042776
h    -2.7204885    0.6459850   -1.2425760  0.00   32.0801847   17.1041454   17.1310195
o    -2.4115602    3.8054091    0.6631403  0.00   -0.0047501   -0.1715490   -0.0692923
o    -1.4203394    2.0077223   -0.4170790  0.00   -0.1044012   -0.1056910   -0.0322528
h    -1.7942350    1.1393616   -0.7454000  0.00  -32.5971320  -17.2308987  -17.0111277
    13
 Energy =       3.4895464505
c    -3.7139444    1.6918806    0.2981182  0.00    0.0070770   -0.0183504   -0.0090057
c    -2.5021001    2.6183676    0.2598311  0.00    0.0268520    0.1732685    0.0465053
c    -4.9734378    2.3897290   -0.2179650  0.00    0.0073796    0.0023337    0.0078213
h    -4.8348194    2.7177740   -1.2628958  0.00   -0.0017310   -0.0022505    0.0089305
h    -5.2025577    3.2818302    0.3922360  0.00    0.0013068   -0.0075392   -0.0054319
h    -5.8464235    1.7144709   -0.1765997  0.00    0.0051596    0.0050311   -0.0023323
n    -3.4137597    0.4733718   -0.4982487  0.00    0.4860761    0.1786450   -0.0489963
h    -3.8515054    1.3977730    1.3551163  0.00   -0.0001549   -0.0020119   -0.0114848
h    -4.2738853    0.1529600   -1.0206697  0.00   -0.0154160    0.0050293   -0.0003580
h    -2.6400835    0.6657050   -1.1942778  0.00   27.1987010   14.5048234   14.5268405
o    -2.5192345    3.8344545    0.7257486  0.00   -0.0050243   -0.1390456   -0.0565623
o    -1.3859231    2.0590046   -0.3209103  0.00   -0.0799162   -0.0844638   -0.0275455
h    -1.7010622    1.1654967   -0.6927285  0.00  -27.6303096  -14.6154693  -14.4283808
    13
 Energy =       2.6881852323
c    -3.7231279    1.6708717    0.2745765  0.00    0.0039749   -0.0117468   -0.0065311
c    -2.5294562    2.6178299    0.3099456  0.00    0.0171035    0.1223394    0.0334343
c    -4.9979280    2.3602788   -0.2239791  0.00    0.0061878    0.0025361    0.0066904
h    -4.8974771    2.6435556   -1.2900700  0.00   -0.0013957   -0.0022042    0.0045672
h    -5.2012479    3.2802614    0.3601821  0.00    0.0015106   -0.0042350   -0.0033352
h    -5.8700303    1.6844763   -0.1159204  0.00    0.0020946    0.0020673   -0.0001418
n    -3.3913411    0.4974027   -0.5701453  0.00    0.3697298    0.1338914   -0.0366164
h    -3.8687690    1.3271981    1.3198847  0.00   -0.0001752   -0.0016663   -0.0068716
h    -4.2103725    0.2146786   -1.1794228  0.00   -0.0174862    0.0003965   -0.0048702
h    -2.5769717    0.7001019   -1.1662513  0.00   20.4249575   10.8955181   10.9147149
o    -2.6262565    3.8599568    0.7764880  0.00   -0.0064254   -0.0949085   -0.0395838
o    -1.3496114    2.0952750   -0.1932115  0.00   -0.0477974   -0.0545382   -0.0165282
h    -1.6161468    1.2109313   -0.6553219  0.00  -20.7522788  -10.9874498  -10.8449283
    13
 Energy =       1.5970959047
c    -3.7353041    1.6455168    0.2709307  0.00    0.0012060   -0.0046987   -0.0032489
c    -2.5694191    2.6306781    0.3608384  0.00    0.0104531    0.0356529    0.0166568
c    -5.0223463    2.3055337   -0.2523056  0.00    0.0088211   -0.0016590    0.0045011
h    -4.8594859    2.7079865   -1.2836253  0.00    0.0022093    0.0020472   -0.0062308
h    -5.3251749    3.1539724    0.4151588  0.00   -0.0019521    0.0054480    0.0058017
h    -5.8616476    1.5638415   -0.2746735  0.00   -0.0067326   -0.0066466   -0.0001893
n    -3.3574656    0.4975201   -0.5866214  0.00    0.2046848    0.0723788   -0.0193908
h    -3.9014341    1.2811543    1.3099591  0.00   -0.0003701   -0.0006719   -0.0023111
h    -4.1177483    0.2379671   -1.2749869  0.00   -0.0129960   -0.0023481   -0.0066992
h    -2.5076017    0.7437195   -1.1114008  0.00   11.4112517    6.0941227    6.1031120
o    -2.7764459    3.9407129    0.7267235  0.00   -0.0107542   -0.0219732   -0.0167265
o    -1.3230266    2.1770599   -0.0747280  0.00   -0.0133950   -0.0180427   -0.0048360
h    -1.5016365    1.2771553   -0.5785146  0.00  -11.5924259   -6.1536094   -6.0704390
    13
 Energy =       0.7546401659
c    -3.7333742    1.6486661    0.2540695  0.00    0.0009167    0.0002149    0.0004628
c    -2.5831825    2.6593276    0.3335218  0.00    0.0025028   -0.0135243   -0.0123375
c    -5.0448164    2.2666894   -0.2645423  0.00    0.0015730   -0.0010488    0.0018949
h    -4.9284706    2.6086188   -1.3195345  0.00   -0.0002450   -0.0000325   -0.0032251
h    -5.3415292    3.1406428    0.3609601  0.00   -0.0009385    0.0006233    0.0012660
h    -5.8660363    1.5130798   -0.2172617  0.00   -0.0022713   -0.0039496    0.0005481
n    -3.3549589    0.4902736   -0.5876514  0.00    0.0529646    0.0153623    0.0021991
h    -3.8778983    1.3043611    1.3056706  0.00    0.0009485    0.0011843    0.0009073
h    -4.1091771    0.1987686   -1.2577671  0.00   -0.0015418   -0.0012799    0.0003030
h    -2.4974905    0.7789250   -1.1498671  0.00    4.8157735    2.5771591    2.5527360
o    -2.7862548    3.9298896    0.8854766  0.00   -0.0062916    0.0176631    0.0055455
o    -1.3143339    2.2763083   -0.1170725  0.00    0.0018885    0.0023702    0.0009003
h    -1.4212139    1.3472674   -0.5792476  0.00   -4.8652795   -2.5947420   -2.5512003
    13
 Energy =       0.4703664553
c    -3.7472807    1.6200882    0.2307157  0.00    0.0029981    0.0003936    0.0019072
c    -2.5524720    2.5735368    0.3872488  0.00    0.0032703   -0.0085582   -0.0064757
c    -5.0271074    2.3466925   -0.2391589  0.00   -0.0010138    0.0010631   -0.0002719
h    -4.8934377    2.7638735   -1.2657849  0.00   -0.0009435    0.0014831   -0.0041783
h    -5.2762158    3.1887942    0.4521610  0.00   -0.0007785    0.0031453    0.0028292
h    -5.8876373    1.6359446   -0.2472658  0.00   -0.0029548   -0.0042122    0.0000101
n    -3.4400896    0.4912484   -0.6840002  0.00    0.0324665    0.0022588    0.0106294
h    -3.9128898    1.2113002    1.2579597  0.00    0.0011391   -0.0012245    0.0025391
h    -4.1881079    0.3293937   -1.4165202  0.00   -0.0125630   -0.0041198   -0.0109737
h    -2.5276927    0.7055503   -1.1862447  0.00    2.7132101    1.4493725    1.4319691
o    -2.7079710    3.8023918    1.0362175  0.00   -0.0028923    0.0150667    0.0053368
o    -1.2953679    2.1939681   -0.0883653  0.00    0.0002825    0.0009476   -0.0000169
h    -1.4024669    1.3000359   -0.5902080  0.00   -2.7322207   -1.4556162   -1.4333044
    13
 Energy =       0.3161014763
c    -3.7842956    1.6206990    0.2307078  0.00    0.0040952   -0.0037155   -0.0004241
c    -2.5529397    2.5127606    0.4753181  0.00    0.0055338   -0.0057080   -0.0052697
c    -4.9812498    2.4206905   -0.3443474  0.00   -0.0048538    0.0042547    0.0012958
h    -4.7431233    2.8130930   -1.3650480  0.00    0.0005279    0.0030833   -0.0068753
h    -5.2283732    3.2874857    0.3143480  0.00   -0.0015450    0.0021583    0.0015896
h    -5.8868455    1.7691752   -0.4052833  0.00   -0.0049933   -0.0038786    0.0004571
n    -3.4776326    0.4671022   -0.6495670  0.00    0.0177163    0.0010854    0.0048028
h    -4.0566328    1.2314643    1.2470477  0.00   -0.0007070   -0.0031378    0.0061097
h    -4.2181170    0.2909692   -1.3787633  0.00   -0.0055914   -0.0026576   -0.0057577
h    -2.5608862    0.6472080   -1.1491852  0.00    1.6115383    0.8597135    0.8503165
o    -2.6847399    3.7016296    1.1949706  0.00   -0.0004474    0.0113537    0.0044055
o    -1.2944470    2.1345466    0.0049548  0.00    0.0000251    0.0009803    0.0002629
h    -1.3894539    1.2659940   -0.5283982  0.00   -1.6212986   -0.8635317   -0.8509131
    13
 Energy =       0.2646986064
c    -3.7928576    1.6062835    0.2353830  0.00    0.0033773   -0.0037940   -0.0011772
c    -2.5674054    2.4864574    0.5432862  0.00    0.0032723   -0.0055505   -0.0042918
c    -4.9533157    2.4258993   -0.3811747  0.00   -0.0043509    0.0035379    0.0009193
h    -4.6731000    2.8110072   -1.3929586  0.00    0.0005586    0.0026250   -0.0059970
h    -5.2070103    3.2975936    0.2676643  0.00   -0.0013102    0.0016639    0.0012620
h    -5.8681645    1.7927902   -0.4726637  0.00   -0.0043654   -0.0031724    0.0003999
n    -3.4580809    0.4668314   -0.6508222  0.00    0.0121229   -0.0010750    0.0099807
h    -4.1117440    1.2055398    1.2331755  0.00   -0.0008356   -0.0027184    0.0057465
h    -4.2331345    0.2305794   -1.3286122  0.00   -0.0090499   -0.0030989   -0.0077258
h    -2.5844804    0.7104197   -1.2067541  0.00    1.2638345    0.6729261    0.6596979
o    -2.7091169    3.6171058    1.3537237  0.00   -0.0014125    0.0144292    0.0074559
o    -1.3099843    2.1716570    0.0194825  0.00    0.0026081    0.0012272    0.0000159
h    -1.3903421    1.3406539   -0.5729751  0.00   -1.2644493   -0.6770000   -0.6662864
    13
 Energy =       0.1874027489
c    -3.8192364    1.6035842    0.2367807  0.00    0.0039565   -0.0049154   -0.0017524
c    -2.5828969    2.4348081    0.6233025  0.00    0.0039389   -0.0043942   -0.0034683
c    -4.8979091    2.4702981   -0.4587733  0.00   -0.0047424    0.0040943    0.0009080
h    -4.5363821    2.8293899   -1.4543224  0.00    0.0011826    0.0026215   -0.0059778
h    -5.1488614    3.3602405    0.1648430  0.00   -0.0013026    0.0011942    0.0007245
h    -5.8359200    1.8830618   -0.6020212  0.00   -0.0044689   -0.0024539    0.0003164
n    -3.4755514    0.4523687   -0.6257710  0.00    0.0070692   -0.0006414    0.0069113
h    -4.2210096    1.2196472    1.2113878  0.00   -0.0014771   -0.0027782    0.0058108
h    -4.2668368    0.1721729   -1.2635419  0.00   -0.0061551   -0.0027445   -0.0056848
h    -2.6355463    0.7095422   -1.2191254  0.00    0.7469176    0.3976066    0.3890501
o    -2.7212760    3.5031227    1.5124769  0.00   -0.0007111    0.0119213    0.0069886
o    -1.3257717    2.1593195    0.0791460  0.00    0.0014094    0.0010872    0.0002014
h    -1.3915391    1.3652626   -0.5576271  0.00   -0.7456169   -0.4005976   -0.3940277
    13
 Energy =       0.1346752200
c    -3.8435521    1.6009432    0.2367794  0.00    0.0037363   -0.0051426   -0.0020781
c    -2.6012735    2.3794353    0.6990873  0.00    0.0035688   -0.0040752   -0.0030486
c    -4.8353164    2.5117843   -0.5254305  0.00   -0.0039465    0.0040745    0.0006437
h    -4.3971872    2.8482934   -1.4971045  0.00    0.0014851    0.0022307   -0.0052555
h    -5.0817320    3.4150575    0.0795118  0.00   -0.0010041    0.0007482    0.0003352
h    -5.7889604    1.9691452   -0.7260697  0.00   -0.0042974   -0.0018802    0.0000481
n    -3.4952114    0.4410807   -0.6068218  0.00    0.0037461   -0.0004643    0.0068929
h    -4.3214599    1.2343799    1.1827762  0.00   -0.0017665   -0.0024854    0.0050090
h    -4.3093941    0.1164827   -1.1913607  0.00   -0.0055188   -0.0028215   -0.0046669
h    -2.7020534    0.7175889   -1.2504316  0.00    0.4137086    0.2203997    0.2127241
o    -2.7382548    3.3724550    1.6712300  0.00   -0.0006765    0.0106719    0.0076603
o    -1.3455399    2.1533025    0.1298611  0.00    0.0010102    0.0010400    0.0001588
h    -1.3988014    1.4028694   -0.5552724  0.00   -0.4100456   -0.2222959   -0.2184227
    13
 Energy =       0.0966421216
c    -3.8700300    1.6044966    0.2332885  0.00    0.0028582   -0.0044214   -0.0016554
c    -2.6202929    2.3159850    0.7693802  0.00    0.0034126   -0.0035796   -0.0029574
c    -4.7586000    2.5628215   -0.5922329  0.00   -0.0028136    0.0040866    0.0006096
h    -4.2384341    2.8754330   -1.5299775  0.00    0.0017414    0.0017862   -0.0043805
h    -4.9980825    3.4778133   -0.0032606  0.00   -0.0006420    0.0004072    0.0000618
h    -5.7221306    2.0703001   -0.8611261  0.00   -0.0040844   -0.0013983   -0.0003710
n    -3.5329304    0.4269760   -0.5854257  0.00    0.0020085   -0.0004300    0.0062979
h    -4.4255330    1.2687775    1.1470439  0.00   -0.0019966   -0.0021714    0.0038349
h    -4.3731062    0.0671647   -1.1072358  0.00   -0.0043557   -0.0026072   -0.0033456
h    -2.7948423    0.7038813   -1.2867600  0.00    0.1867820    0.0999809    0.0935491
o    -2.7540486    3.2253666    1.8183764  0.00   -0.0002797    0.0077878    0.0066427
o    -1.3642669    2.1332231    0.1876573  0.00    0.0000876    0.0010660    0.0004126
h    -1.4064394    1.4305793   -0.5429730  0.00   -0.1827183   -0.1005069   -0.0986987
    13
 Energy =       0.0750010954
c    -3.8914609    1.6122088    0.2247769  0.00    0.0011364   -0.0025968   -0.0009290
c    -2.6357485    2.2500244    0.8285225  0.00    0.0023880   -0.0030017   -0.0032019
c    -4.6758896    2.6155579   -0.6462594  0.00   -0.0011838    0.0029131    0.0006214
h    -4.0802410    2.9120577   -1.5413700  0.00    0.0013083    0.0010809   -0.0027453
h    -4.9113617    3.5350947   -0.0636460  0.00   -0.0001640    0.0000707   -0.0000023
h    -5.6380646    2.1702058   -0.9880409  0.00   -0.0029982   -0.0008996   -0.0006638
n    -3.5832328    0.4144175   -0.5731006  0.00    0.0014537   -0.0003705    0.0078155
h    -4.5136359    1.3142913    1.1063913  0.00   -0.0015118   -0.0014730    0.0019989
h    -4.4570694    0.0258645   -1.0127796  0.00   -0.0050499   -0.0026340   -0.0028879
h    -2.9184164    0.6771884   -1.3468097  0.00    0.0673686    0.0361880    0.0287648
o    -2.7677856    3.0666134    1.9496765  0.00   -0.0000368    0.0051637    0.0055219
o    -1.3770442    2.1085729    0.2430663  0.00   -0.0002134    0.0013336    0.0010306
h    -1.4087861    1.4607206   -0.5336726  0.00   -0.0624970   -0.0357744   -0.0353230
    13
 Energy =       0.0663593079
c    -3.9085369    1.6275319    0.2128943  0.00    0.0005058   -0.0007510   -0.0001276
c    -2.6477430    2.1903721    0.8760326  0.00    0.0017809   -0.0017022   -0.0020699
c    -4.5890060    2.6677207   -0.6994937  0.00   -0.0011436    0.0023298    0.0006873
h    -3.9214878    2.9463297   -1.5477342  0.00    0.0013068    0.0009066   -0.0021090
h    -4.8257346    3.5919430   -0.1251148  0.00   -0.0001338    0.0000591    0.0000526
h    -5.5406373    2.2641639   -1.1125871  0.00   -0.0021404   -0.0004465   -0.0007535
n    -3.6455890    0.4000722   -0.5571220  0.00    0.0019899   -0.0008528    0.0094056
h    -4.5893064    1.3823151    1.0672254  0.00   -0.0016188   -0.0011069    0.0015776
h    -4.5530923   -0.0128904   -0.8960454  0.00   -0.0062048   -0.0029989   -0.0028023
h    -3.0708997    0.6264788   -1.4097412  0.00    0.0208313    0.0106071    0.0017515
o    -2.7823871    2.9238691    2.0504297  0.00    0.0003424    0.0023410    0.0028035
o    -1.3817721    2.0742304    0.3021467  0.00    0.0000293    0.0013924    0.0015284
h    -1.4025444    1.4806816   -0.5141355  0.00   -0.0155449   -0.0097778   -0.0099441
    13
 Energy =       0.0648553500
c    -3.9073099    1.6427608    0.2168786  0.00   -0.0012135    0.0013867    0.0006352
c    -2.6098733    2.1394460    0.8635518  0.00    0.0011878   -0.0009965   -0.0016201
c    -4.5436741    2.7127289   -0.6898963  0.00   -0.0003373    0.0011124    0.0001570
h    -3.8657634    2.9654263   -1.5357316  0.00    0.0004517    0.0003960   -0.0005169
h    -4.7413831    3.6451281   -0.1128695  0.00   -0.0002280    0.0007462    0.0002429
h    -5.5094234    2.3486363   -1.1042777  0.00   -0.0010823   -0.0003537   -0.0003498
n    -3.7254954    0.3952298   -0.5480386  0.00    0.0031860   -0.0019790    0.0081998
h    -4.5889674    1.4426500    1.0813114  0.00   -0.0012209   -0.0004885    0.0007534
h    -4.6658597   -0.0083035   -0.7985645  0.00   -0.0071294   -0.0032794   -0.0026508
h    -3.2296528    0.5882816   -1.4561006  0.00    0.0101982    0.0043065   -0.0043619
o    -2.6897588    2.8291560    2.0696216  0.00    0.0000148    0.0023742    0.0035351
o    -1.3631180    2.0109372    0.2492784  0.00    0.0011252    0.0013147    0.0012610
h    -1.4184574    1.4507405   -0.5884085  0.00   -0.0049523   -0.0045397   -0.0052851
    13
 Energy =       0.0643522043
c    -3.9261659    1.6480635    0.1974366  0.00    0.0004022   -0.0018050   -0.0008611
c    -2.6604306    2.1161439    0.9229863  0.00   -0.0001418   -0.0014066   -0.0006350
c    -4.4832744    2.7256065   -0.7528152  0.00   -0.0010444    0.0007560    0.0000729
h    -3.7468944    2.9633046   -1.5550850  0.00    0.0014934    0.0004619   -0.0019001
h    -4.7016568    3.6620938   -0.1914191  0.00   -0.0001765   -0.0000234    0.0002858
h    -5.4267411    2.3766402   -1.2287486  0.00   -0.0016217   -0.0002242   -0.0008600
n    -3.7290947    0.3921541   -0.5465395  0.00   -0.0001434    0.0002121   -0.0011502
h    -4.6626158    1.4718694    1.0225999  0.00   -0.0011885   -0.0003912    0.0016775
h    -4.6618460   -0.0362196   -0.7589326  0.00    0.0005748    0.0006343    0.0000639
h    -3.2713925    0.5709646   -1.4709868  0.00   -0.0002106    0.0000888    0.0010560
o    -2.7950060    2.7468347    2.1556493  0.00    0.0002571    0.0016868    0.0028242
o    -1.3873637    2.0216607    0.3586803  0.00    0.0023319    0.0012028    0.0010812
h    -1.4062548    1.5037019   -0.5060709  0.00   -0.0005324   -0.0011924   -0.0016551
    13
 Energy =       0.0643235283
c    -3.9262518    1.6535303    0.2029318  0.00    0.0000708    0.0002858    0.0002037
c    -2.6602831    2.1287774    0.9185727  0.00   -0.0001749   -0.0000285    0.0000893
c    -4.4764681    2.7150546   -0.7660162  0.00   -0.0000561    0.0000076   -0.0001094
h    -3.7384724    2.9363298   -1.5684629  0.00    0.0000649    0.0000668   -0.0001087
h    -4.6939038    3.6625193   -0.2228503  0.00   -0.0000403    0.0001778    0.0001095
h    -5.4174236    2.3593311   -1.2380602  0.00   -0.0000225    0.0000019   -0.0000307
n    -3.7332207    0.3816818   -0.5158508  0.00    0.0000982   -0.0003381    0.0002771
h    -4.6635586    1.4968295    1.0289554  0.00   -0.0000796   -0.0000450    0.0001790
h    -4.6666497   -0.0556186   -0.7094916  0.00   -0.0002758   -0.0002140   -0.0001101
h    -3.2829314    0.5393553   -1.4487028  0.00    0.0001493    0.0000060   -0.0004349
o    -2.7889018    2.7447222    2.1573786  0.00   -0.0001172    0.0001013    0.0001322
o    -1.3937641    2.0535703    0.3392088  0.00    0.0003098    0.0000240   -0.0000815
h    -1.4169077    1.5467352   -0.5308579  0.00    0.0000733   -0.0000456   -0.0001156
    13
 Energy =       0.0643228876
c    -3.9269958    1.6535914    0.2035774  0.00   -0.0000070   -0.0000272   -0.0000228
c    -2.6607934    2.1273572    0.9196491  0.00    0.0000073   -0.0000131   -0.0000294
c    -4.4744699    2.7143304   -0.7674476  0.00    0.0000032   -0.0000010    0.0000111
h    -3.7358767    2.9321968   -1.5700794  0.00   -0.0000022   -0.0000051    0.0000071
h    -4.6898711    3.6632059   -0.2263889  0.00    0.0000023   -0.0000136   -0.0000086
h    -5.4161267    2.3597984   -1.2389324  0.00    0.0000012   -0.0000010    0.0000032
n    -3.7351830    0.3807430   -0.5130239  0.00   -0.0000031    0.0000289   -0.0000159
h    -4.6654765    1.4992801    1.0287611  0.00    0.0000051    0.0000029   -0.0000155
h    -4.6690652   -0.0540756   -0.7088587  0.00    0.0000189    0.0000183    0.0000116
h    -3.2815286    0.5360439   -1.4442974  0.00   -0.0000106    0.0000030    0.0000287
o    -2.7877900    2.7349693    2.1626418  0.00   -0.0000016    0.0000151    0.0000351
o    -1.3956477    2.0584808    0.3370681  0.00   -0.0000114    0.0000034    0.0000099
h    -1.4199120    1.5568965   -0.5359144  0.00   -0.0000021   -0.0000105   -0.0000146
    13
 Energy =       0.0643228846
c    -3.9270078    1.6535845    0.2035982  0.00    0.0000000    0.0000000   -0.0000000
c    -2.6607941    2.1273254    0.9196695  0.00   -0.0000000   -0.0000000    0.0000000
c    -4.4744292    2.7143346   -0.7674709  0.00    0.0000000    0.0000000   -0.0000000
h    -3.7358135    2.9321808   -1.5700965  0.00    0.0000000    0.0000000    0.0000000
h    -4.6898195    3.6632339   -0.2264185  0.00   -0.0000000    0.0000000    0.0000000
h    -5.4160834    2.3598262   -1.2389823  0.00   -0.0000000    0.0000000    0.0000000
n    -3.7352450    0.3806803   -0.5129708  0.00    0.0000000   -0.0000000    0.0000000
h    -4.6654997    1.4993204    1.0287990  0.00   -0.0000000   -0.0000000    0.0000000
h    -4.6691451   -0.0541115   -0.7088604  0.00   -0.0000000    0.0000000   -0.0000000
h    -3.2815162    0.5359150   -1.4442378  0.00    0.0000000    0.0000000   -0.0000000
o    -2.7877752    2.7348035    2.1627050  0.00   -0.0000000    0.0000000    0.0000000
o    -1.3956615    2.0585849    0.3370354  0.00    0.0000000    0.0000000    0.0000000
h    -1.4199463    1.5571401   -0.5360151  0.00    0.0000000   -0.0000000   -0.0000000
