    13
 Energy =       0.1265882276
c    -3.7133889    1.6950595    0.3173519  0.00   -0.0494488   -0.0176130    0.0094984
c    -2.4962693    2.6345192    0.2419999  0.00    0.0705655    0.3520829    0.0691315
c    -4.9565486    2.3924193   -0.2155699  0.00    0.0139827   -0.0004913    0.0151421
h    -4.7854386    2.7464192   -1.2386596  0.00   -0.0032362   -0.0051115    0.0161088
h    -5.2149185    3.2645991    0.3947669  0.00    0.0023229   -0.0137394   -0.0134362
h    -5.8205083    1.7195795   -0.2420919  0.00    0.0124731    0.0117349   -0.0061846
n    -3.4097890    0.4519539   -0.4549189  0.00    0.0750121   -0.0206032   -0.0492322
h    -3.8575589    1.4177196    1.3669296  0.00   -0.0020832   -0.0029635   -0.0227270
h    -4.2340588    0.2238779   -1.0206697  0.00    0.0204773    0.0304759    0.0203986
h    -2.6878492    0.6694128   -1.1486897  0.00    0.0390792    0.0870154    0.0768160
o    -2.4571893    3.7760389    0.6681628  0.00   -0.0090840   -0.2785327   -0.0960746
o    -1.4389296    2.0221094   -0.3549299  0.00   -0.1355000   -0.1187729   -0.0362792
h    -1.1721897    2.6250993   -1.0934297  0.00   -0.0345605   -0.0234816    0.0168384
    13
 Energy =       0.1024128695
c    -3.7166184    1.6813973    0.3289246  0.00   -0.0289397   -0.0128223    0.0087309
c    -2.4613414    2.5618395    0.3256333  0.00    0.0454130    0.2147942    0.0399476
c    -4.9102423    2.4533876   -0.2483364  0.00    0.0086639    0.0005193    0.0114193
h    -4.6540492    2.8827301   -1.2380617  0.00   -0.0004198   -0.0000005    0.0038250
h    -5.1833563    3.2899008    0.4194899  0.00    0.0015427   -0.0069480   -0.0059050
h    -5.8008621    1.8075784   -0.3755827  0.00    0.0028237    0.0037981   -0.0051751
n    -3.4561270    0.4480304   -0.4580313  0.00    0.0453644   -0.0120094   -0.0290571
h    -3.9169542    1.3948064    1.3769385  0.00   -0.0016398   -0.0029337   -0.0122486
h    -4.2899880    0.2082902   -1.0205136  0.00    0.0120831    0.0182740    0.0120680
h    -2.7014339    0.6394085   -1.1412491  0.00    0.0315029    0.0615206    0.0490622
o    -2.4424534    3.7659849    0.7767210  0.00   -0.0069901   -0.1666179   -0.0596668
o    -1.3802677    2.0023928   -0.3043882  0.00   -0.0862175   -0.1208790    0.0420266
h    -1.3309428    2.5030608   -1.2212926  0.00   -0.0231866    0.0233046   -0.0550270
    13
 Energy =       0.0849007894
c    -3.7245719    1.6749320    0.3083722  0.00   -0.0172336   -0.0069351    0.0053763
c    -2.4639851    2.5369375    0.3143176  0.00    0.0253058    0.1280366    0.0233639
c    -4.9209384    2.4600786   -0.2495918  0.00    0.0128313   -0.0039959    0.0103937
h    -4.7227454    2.7592194   -1.3116596  0.00    0.0034325    0.0018592   -0.0090422
h    -5.0864452    3.3910490    0.3503412  0.00    0.0007710    0.0056301    0.0033858
h    -5.8560740    1.8425163   -0.2168296  0.00   -0.0087411   -0.0058379   -0.0019528
n    -3.5006974    0.4450095   -0.4885742  0.00    0.0269008   -0.0071043   -0.0170624
h    -3.9148871    1.3900811    1.3629578  0.00   -0.0010026   -0.0017354   -0.0072470
h    -4.3384723    0.2168874   -1.0606222  0.00    0.0067076    0.0114160    0.0069235
h    -2.7188295    0.6089039   -1.1605571  0.00    0.0244503    0.0423833    0.0308207
o    -2.4548186    3.7749068    0.7933886  0.00   -0.0047015   -0.0996206   -0.0348417
o    -1.3453950    1.9931996   -0.2782947  0.00   -0.0541540   -0.0813847    0.0336034
h    -1.1967769    2.5450866   -1.1429961  0.00   -0.0145665    0.0172886   -0.0437213
    13
 Energy =       0.0792764188
c    -3.7671784    1.6920988    0.3013694  0.00   -0.0130958   -0.0057455    0.0046589
c    -2.4769834    2.5081143    0.3616558  0.00    0.0188526    0.1005413    0.0177984
c    -4.8995157    2.5020068   -0.3619200  0.00    0.0066934   -0.0007756    0.0083937
h    -4.6315864    2.7514343   -1.4229596  0.00    0.0034842    0.0025000   -0.0104410
h    -5.0667434    3.4610458    0.1915880  0.00   -0.0004151    0.0056922    0.0031876
h    -5.8578812    1.9220333   -0.3552749  0.00   -0.0081885   -0.0049308   -0.0010693
n    -3.5453511    0.4239553   -0.4348103  0.00    0.0199802   -0.0079686   -0.0104578
h    -4.0372343    1.4561698    1.3562162  0.00   -0.0020303   -0.0024820   -0.0017666
h    -4.3627847    0.1897271   -1.0368850  0.00    0.0045014    0.0083670    0.0045772
h    -2.7178146    0.5249548   -1.0714518  0.00    0.0244784    0.0340290    0.0208194
o    -2.4480654    3.7530098    0.8590227  0.00   -0.0027182   -0.0777208   -0.0267998
o    -1.3368465    1.9378879   -0.1714600  0.00   -0.0413195   -0.0691079    0.0325959
h    -1.0966517    2.5163697   -0.9948388  0.00   -0.0102229    0.0176018   -0.0414965
    13
 Energy =       0.0745586801
c    -3.7708010    1.6709885    0.2743752  0.00   -0.0081261   -0.0029815    0.0046964
c    -2.4717431    2.4739475    0.3391451  0.00    0.0140473    0.0760946    0.0123671
c    -4.9189049    2.5206086   -0.3140855  0.00    0.0033262    0.0004873    0.0061728
h    -4.6856334    2.8094343   -1.3720069  0.00    0.0028739    0.0021098   -0.0093798
h    -5.0590514    3.4574146    0.2831519  0.00   -0.0007094    0.0056375    0.0032320
h    -5.8795740    1.9484522   -0.2973775  0.00   -0.0065338   -0.0036522   -0.0008339
n    -3.5974802    0.4240139   -0.5149652  0.00    0.0189857   -0.0093690    0.0015464
h    -4.0096148    1.3980048    1.3290951  0.00   -0.0016483   -0.0020255   -0.0001747
h    -4.3855909    0.2828455   -1.1956381  0.00   -0.0061003    0.0038756   -0.0045812
h    -2.7166760    0.4812599   -1.0895312  0.00    0.0254133    0.0286745    0.0130283
o    -2.4312571    3.7122563    0.8825975  0.00   -0.0016718   -0.0587088   -0.0195020
o    -1.3220968    1.9074651   -0.1807364  0.00   -0.0356016   -0.0621120    0.0363340
h    -0.9962133    2.5521164   -0.9237721  0.00   -0.0042551    0.0219698   -0.0429057
    13
 Energy =       0.0693974052
c    -3.7514004    1.6448374    0.2597038  0.00   -0.0062693   -0.0018962    0.0038043
c    -2.4720202    2.4790977    0.3150603  0.00    0.0090693    0.0550375    0.0071863
c    -4.9365966    2.4822814   -0.2717266  0.00    0.0015095    0.0011029    0.0049969
h    -4.7441873    2.7990693   -1.3282175  0.00    0.0023146    0.0020227   -0.0078082
h    -5.0773322    3.4012403    0.3505002  0.00   -0.0007814    0.0045219    0.0027643
h    -5.8834377    1.8912869   -0.2354781  0.00   -0.0052804   -0.0027156   -0.0004090
n    -3.5740689    0.4250327   -0.5681473  0.00    0.0128641   -0.0086759    0.0076590
h    -3.9534782    1.3376599    1.3137207  0.00   -0.0015023   -0.0020065    0.0009295
h    -4.4040277    0.2549368   -1.1927203  0.00   -0.0084091    0.0030493   -0.0062604
h    -2.7392977    0.5398610   -1.2069395  0.00    0.0254415    0.0223000    0.0051915
o    -2.4544978    3.6990520    0.9268392  0.00   -0.0022087   -0.0402706   -0.0118566
o    -1.3147898    1.9735826   -0.2565799  0.00   -0.0295313   -0.0615097    0.0376157
h    -0.9395024    2.7108695   -0.8857633  0.00    0.0027836    0.0290403   -0.0438134
    13
 Energy =       0.0652918656
c    -3.7598213    1.6446270    0.2609511  0.00   -0.0022595   -0.0007107    0.0027105
c    -2.4889831    2.4852308    0.3689150  0.00    0.0062492    0.0386898    0.0040721
c    -4.9114431    2.4620254   -0.3723147  0.00   -0.0019814    0.0019708    0.0032246
h    -4.6665274    2.7267634   -1.4325597  0.00    0.0020391    0.0020007   -0.0082123
h    -5.0783949    3.4095305    0.1994987  0.00   -0.0013487    0.0048337    0.0030536
h    -5.8631956    1.8809699   -0.3535373  0.00   -0.0043027   -0.0016571   -0.0000536
n    -3.5283131    0.4071636   -0.5225722  0.00    0.0191535   -0.0085284    0.0282532
h    -4.0252789    1.3686306    1.3116148  0.00   -0.0016022   -0.0016133    0.0030831
h    -4.4125251    0.0990652   -1.0339672  0.00   -0.0292854   -0.0065252   -0.0167420
h    -2.7822027    0.6007858   -1.2606158  0.00    0.0330927    0.0233882   -0.0077076
o    -2.4937894    3.6780649    1.0513573  0.00   -0.0018729   -0.0256209   -0.0058444
o    -1.3240592    2.0383429   -0.2395290  0.00   -0.0245116   -0.0573876    0.0337124
h    -0.9101031    2.8376077   -0.7569891  0.00    0.0066299    0.0311600   -0.0395495
    13
 Energy =       0.0645106469
c    -3.7585857    1.6591630    0.2667249  0.00   -0.0032312   -0.0001733    0.0037947
c    -2.4545582    2.4587233    0.3183504  0.00    0.0042278    0.0326671    0.0025932
c    -4.9108925    2.5073038   -0.3258110  0.00   -0.0024075    0.0018241    0.0026853
h    -4.6924228    2.7712220   -1.3921058  0.00    0.0020405    0.0019083   -0.0083479
h    -5.0368238    3.4564990    0.2546811  0.00   -0.0014803    0.0053708    0.0034791
h    -5.8760756    1.9493842   -0.2799896  0.00   -0.0048725   -0.0018069   -0.0001065
n    -3.5963336    0.4119402   -0.5210047  0.00    0.0192146   -0.0102805    0.0270426
h    -3.9906606    1.3959104    1.3288394  0.00   -0.0017501   -0.0013268    0.0037082
h    -4.5036538    0.1302204   -1.0072160  0.00   -0.0296495   -0.0069323   -0.0169595
h    -2.8675629    0.5813302   -1.2816628  0.00    0.0325711    0.0223833   -0.0086022
o    -2.4171584    3.7140723    0.8926042  0.00   -0.0024148   -0.0149954   -0.0008483
o    -1.3030856    1.9201086   -0.2513396  0.00   -0.0203766   -0.0614723    0.0316531
h    -0.8368233    2.6829303   -0.7818186  0.00    0.0081286    0.0328340   -0.0400916
    13
 Energy =       0.0616214909
c    -3.7760113    1.6525516    0.2422096  0.00   -0.0030889    0.0004997    0.0042980
c    -2.4436246    2.3999369    0.3432485  0.00    0.0022312    0.0255410    0.0036028
c    -4.8916894    2.5610968   -0.3298793  0.00   -0.0021948    0.0020800    0.0009257
h    -4.6585347    2.8495040   -1.3847619  0.00    0.0013252    0.0016184   -0.0065947
h    -4.9867518    3.4959039    0.2776045  0.00   -0.0011040    0.0047939    0.0029108
h    -5.8758478    2.0366872   -0.3070474  0.00   -0.0043882   -0.0018831   -0.0001664
n    -3.6505487    0.4364460   -0.5961311  0.00    0.0134500   -0.0096899    0.0203574
h    -4.0282058    1.3534236    1.2899363  0.00   -0.0011171   -0.0014687    0.0036037
h    -4.5732776    0.1709682   -1.0509568  0.00   -0.0225718   -0.0054609   -0.0132118
h    -2.9546027    0.6303078   -1.3770379  0.00    0.0247922    0.0164552   -0.0082204
o    -2.3821044    3.6619604    0.9074712  0.00   -0.0017496   -0.0105466   -0.0004210
o    -1.2861294    1.8175486   -0.1713385  0.00   -0.0163493   -0.0532322    0.0276036
h    -0.7373088    2.5724729   -0.6230655  0.00    0.0107652    0.0312933   -0.0346876
    13
 Energy =       0.0615628941
c    -3.8020951    1.6364203    0.2078881  0.00   -0.0035976    0.0016041    0.0068398
c    -2.4371125    2.3089602    0.4088667  0.00    0.0018975    0.0252964    0.0055829
c    -4.8591705    2.6366315   -0.3305682  0.00   -0.0028249    0.0034021   -0.0013219
h    -4.5904428    2.9787362   -1.3621518  0.00    0.0010111    0.0026500   -0.0081094
h    -4.9222410    3.5380059    0.3323452  0.00   -0.0007103    0.0065187    0.0039510
h    -5.8685494    2.1581537   -0.3615756  0.00   -0.0062588   -0.0032116   -0.0005688
n    -3.7040721    0.4849307   -0.7240791  0.00    0.0093163   -0.0153534    0.0165679
h    -4.0994005    1.2660750    1.2240778  0.00   -0.0010487   -0.0033435    0.0068165
h    -4.6388933    0.2547299   -1.1714447  0.00   -0.0211756   -0.0055281   -0.0128782
h    -3.0248481    0.7349035   -1.5048211  0.00    0.0231713    0.0145045   -0.0112064
o    -2.3375073    3.5490278    1.0197700  0.00    0.0003968   -0.0071899    0.0006885
o    -1.2805587    1.6785133   -0.0522117  0.00   -0.0120245   -0.0500353    0.0265239
h    -0.6797454    2.4137197   -0.4658439  0.00    0.0118473    0.0306860   -0.0328857
    13
 Energy =       0.0572508156
c    -3.7779688    1.6516103    0.2294936  0.00   -0.0026848    0.0024391    0.0067236
c    -2.4312738    2.3921645    0.3193257  0.00    0.0025552    0.0176779    0.0047110
c    -4.8883207    2.5754094   -0.3363324  0.00   -0.0025812    0.0033142   -0.0027498
h    -4.6559571    2.8736258   -1.3891093  0.00    0.0006280    0.0026962   -0.0069436
h    -4.9702360    3.5071365    0.2793522  0.00   -0.0002061    0.0056940    0.0035315
h    -5.8785146    2.0586298   -0.3173907  0.00   -0.0058337   -0.0032518   -0.0006776
n    -3.6897178    0.4272091   -0.6101314  0.00    0.0023591   -0.0173879    0.0113081
h    -4.0209307    1.3544823    1.2855037  0.00   -0.0009941   -0.0040962    0.0088660
h    -4.6278583    0.1544382   -1.0160038  0.00   -0.0157084   -0.0047746   -0.0105640
h    -3.0384564    0.6149413   -1.4272580  0.00    0.0173053    0.0098047   -0.0114715
o    -2.3595963    3.6704835    0.8610169  0.00    0.0026122   -0.0003747    0.0012765
o    -1.2691842    1.8011919   -0.1759181  0.00   -0.0106082   -0.0394455    0.0204818
h    -0.6366221    2.5574851   -0.4822967  0.00    0.0131566    0.0277046   -0.0244920
    13
 Energy =       0.0533470561
c    -3.7669274    1.6686396    0.2326254  0.00   -0.0003098    0.0034573    0.0047051
c    -2.4326430    2.4247237    0.2722772  0.00   -0.0002989    0.0105674    0.0020679
c    -4.8862752    2.5494183   -0.3684527  0.00   -0.0012669    0.0016936   -0.0012196
h    -4.6626135    2.7972928   -1.4330993  0.00    0.0003417    0.0016698   -0.0039653
h    -4.9735190    3.5065914    0.2013133  0.00   -0.0000289    0.0033212    0.0022355
h    -5.8690197    2.0277092   -0.3173771  0.00   -0.0027668   -0.0016088   -0.0003671
n    -3.6814460    0.4001480   -0.5306168  0.00    0.0019688   -0.0102447    0.0092529
h    -3.9994876    1.4340252    1.3029432  0.00   -0.0005716   -0.0023902    0.0053510
h    -4.6298568    0.0719830   -0.8572507  0.00   -0.0122647   -0.0046608   -0.0079317
h    -3.0906036    0.5515696   -1.3942930  0.00    0.0104878    0.0054227   -0.0083979
o    -2.3641540    3.6837676    0.8605050  0.00    0.0000932    0.0012674    0.0012837
o    -1.2828236    1.8799487   -0.2995225  0.00   -0.0115646   -0.0363625    0.0112941
h    -0.6052675    2.6429905   -0.4488001  0.00    0.0161806    0.0278677   -0.0143085
    13
 Energy =       0.0513203149
c    -3.7676072    1.6866376    0.2461107  0.00    0.0017136    0.0040294    0.0038238
c    -2.4371104    2.4427457    0.2744033  0.00   -0.0055079    0.0074064    0.0025809
c    -4.8695540    2.5331969   -0.4297901  0.00   -0.0021267    0.0013229   -0.0006359
h    -4.6232539    2.7155480   -1.5031142  0.00    0.0004652    0.0014517   -0.0044129
h    -4.9647282    3.5230662    0.0806103  0.00   -0.0003357    0.0037785    0.0022716
h    -5.8541785    2.0190329   -0.3674207  0.00   -0.0016497   -0.0008731   -0.0000947
n    -3.6671285    0.3764049   -0.4379151  0.00    0.0029586   -0.0090869    0.0077040
h    -4.0256024    1.5169869    1.3228030  0.00   -0.0005427   -0.0016759    0.0051844
h    -4.6173185    0.0010048   -0.6984976  0.00   -0.0108651   -0.0052647   -0.0064492
h    -3.1231464    0.4937427   -1.3351445  0.00    0.0075878    0.0039596   -0.0073948
o    -2.3497373    3.6565569    0.9558391  0.00   -0.0019396    0.0065478    0.0048269
o    -1.3179949    1.9592570   -0.4126208  0.00   -0.0010508   -0.0325212    0.0011106
h    -0.6272766    2.7146272   -0.4750117  0.00    0.0112930    0.0209254   -0.0085148
    13
 Energy =       0.0494605727
c    -3.7755719    1.7095469    0.2544423  0.00    0.0033664    0.0041136    0.0029115
c    -2.4495719    2.4663072    0.2880196  0.00   -0.0048908    0.0041593    0.0025172
c    -4.8513802    2.5099098   -0.5134078  0.00   -0.0033822    0.0012123   -0.0005496
h    -4.5652233    2.6254759   -1.5864294  0.00    0.0005728    0.0010383   -0.0046975
h    -4.9657683    3.5289835   -0.0685806  0.00   -0.0006615    0.0039477    0.0021437
h    -5.8368532    1.9989255   -0.4561087  0.00   -0.0009003   -0.0001286   -0.0000052
n    -3.6465744    0.3611117   -0.3412571  0.00    0.0037378   -0.0080436    0.0050166
h    -4.0744482    1.6077673    1.3292834  0.00   -0.0006007   -0.0008864    0.0051494
h    -4.5910783   -0.0587667   -0.5397445  0.00   -0.0082009   -0.0049579   -0.0044489
h    -3.1399440    0.4363820   -1.2623838  0.00    0.0046076    0.0024820   -0.0055933
o    -2.3473708    3.6366742    1.0394605  0.00   -0.0019916    0.0064402    0.0044629
o    -1.3584387    2.0441318   -0.4773386  0.00   -0.0004113   -0.0251579   -0.0034617
h    -0.6424137    2.7723586   -0.4457035  0.00    0.0087548    0.0157810   -0.0034450
    13
 Energy =       0.0480336430
c    -3.7855182    1.7332185    0.2638841  0.00    0.0037409    0.0039597    0.0019783
c    -2.4640448    2.4917498    0.3047128  0.00   -0.0059926    0.0009259    0.0037736
c    -4.8295631    2.4777320   -0.5969112  0.00   -0.0036979    0.0011141   -0.0006923
h    -4.4963002    2.5299418   -1.6610664  0.00    0.0006258    0.0005392   -0.0043534
h    -4.9676167    3.5202961   -0.2199140  0.00   -0.0007742    0.0036182    0.0018055
h    -5.8139025    1.9642466   -0.5528475  0.00   -0.0005906    0.0002536   -0.0000571
n    -3.6264911    0.3521306   -0.2379098  0.00    0.0031289   -0.0071074    0.0029594
h    -4.1291802    1.6990638    1.3295040  0.00   -0.0006461   -0.0002150    0.0046857
h    -4.5623515   -0.1027071   -0.3809914  0.00   -0.0050077   -0.0038085   -0.0025576
h    -3.1451013    0.3764244   -1.1737408  0.00    0.0024926    0.0011463   -0.0041327
o    -2.3335046    3.5957745    1.1496619  0.00   -0.0025354    0.0087846    0.0068867
o    -1.4154944    2.1552335   -0.5589483  0.00    0.0033725   -0.0200102   -0.0105689
h    -0.6755682    2.8457034   -0.4451818  0.00    0.0058838    0.0107996    0.0002727
    13
 Energy =       0.0470227752
c    -3.7999357    1.7610896    0.2703882  0.00    0.0029040    0.0034172    0.0015373
c    -2.4822305    2.5218318    0.3189715  0.00   -0.0025070   -0.0016039    0.0014338
c    -4.8061882    2.4400045   -0.6826230  0.00   -0.0032314    0.0007543   -0.0007635
h    -4.4209443    2.4303863   -1.7297157  0.00    0.0006615    0.0000993   -0.0034990
h    -4.9700159    3.5014712   -0.3786671  0.00   -0.0008108    0.0029963    0.0012511
h    -5.7870986    1.9191467   -0.6555738  0.00   -0.0004701    0.0003089   -0.0001417
n    -3.6123049    0.3535267   -0.1320851  0.00    0.0016663   -0.0057093    0.0014664
h    -4.1911406    1.7942219    1.3189350  0.00   -0.0006886    0.0001573    0.0036925
h    -4.5387929   -0.1258510   -0.2328600  0.00   -0.0016909   -0.0019415   -0.0009860
h    -3.1373786    0.3194592   -1.0699024  0.00    0.0012659    0.0000681   -0.0028937
o    -2.3188671    3.5576139    1.2383460  0.00   -0.0014540    0.0061428    0.0048499
o    -1.4728382    2.2613355   -0.6084184  0.00    0.0014215   -0.0096888   -0.0072449
h    -0.7069013    2.9045714   -0.4365433  0.00    0.0029336    0.0049993    0.0012977
    13
 Energy =       0.0465198124
c    -3.8126390    1.7868369    0.2789828  0.00    0.0011671    0.0025320    0.0011634
c    -2.4998614    2.5538984    0.3268320  0.00   -0.0037117   -0.0046072   -0.0000660
c    -4.7829354    2.3917793   -0.7544412  0.00   -0.0016881    0.0001601   -0.0006903
h    -4.3513712    2.3229253   -1.7796778  0.00    0.0004496   -0.0001088   -0.0018586
h    -4.9700016    3.4668819   -0.5264784  0.00   -0.0005484    0.0019699    0.0005990
h    -5.7577748    1.8594980   -0.7379599  0.00   -0.0001979    0.0001108   -0.0001317
n    -3.5998551    0.3603223   -0.0236951  0.00    0.0002549   -0.0036401    0.0009281
h    -4.2457183    1.8837600    1.3055016  0.00   -0.0004408    0.0001812    0.0019553
h    -4.5186119   -0.1359166   -0.0972566  0.00   -0.0000143   -0.0004725   -0.0001681
h    -3.1162244    0.2686169   -0.9525221  0.00    0.0007666   -0.0003847   -0.0018377
o    -2.2800277    3.4876068    1.3425538  0.00   -0.0013221    0.0080570    0.0094752
o    -1.5485067    2.3953266   -0.6833806  0.00    0.0049479   -0.0047406   -0.0103158
h    -0.7611094    2.9972718   -0.4782068  0.00    0.0003372    0.0009429    0.0009472
    13
 Energy =       0.0463322921
c    -3.8238571    1.8057497    0.2804716  0.00    0.0003764    0.0006710    0.0003888
c    -2.5133306    2.5765721    0.3298664  0.00    0.0011380    0.0004030   -0.0003889
c    -4.7675423    2.3608636   -0.8021427  0.00   -0.0007320   -0.0000308   -0.0001663
h    -4.3084858    2.2497058   -1.8105629  0.00    0.0002267   -0.0000247   -0.0007831
h    -4.9625895    3.4431356   -0.6277182  0.00   -0.0002268    0.0007549    0.0001400
h    -5.7407697    1.8257764   -0.7879659  0.00   -0.0000169    0.0000287    0.0000037
n    -3.5998099    0.3701060    0.0448824  0.00    0.0000422   -0.0012439    0.0006312
h    -4.2847133    1.9446496    1.2888092  0.00   -0.0002479    0.0001162    0.0007639
h    -4.5155225   -0.1319406   -0.0260709  0.00   -0.0000131   -0.0000276   -0.0000248
h    -3.0964496    0.2406916   -0.8682686  0.00    0.0004929   -0.0002457   -0.0009918
o    -2.2705142    3.4689979    1.3663834  0.00    0.0001491   -0.0009606   -0.0019269
o    -1.5774016    2.4468057   -0.6885781  0.00   -0.0011468    0.0006954    0.0025546
h    -0.7836507    3.0376944   -0.4788538  0.00   -0.0000420   -0.0001358   -0.0002005
    13
 Energy =       0.0463306998
c    -3.8161155    1.7929862    0.2806815  0.00    0.0006121    0.0012344    0.0006251
c    -2.5071664    2.5664992    0.3295603  0.00    0.0008451    0.0001303   -0.0004350
c    -4.7769828    2.3707142   -0.7756712  0.00   -0.0012306   -0.0000040   -0.0002636
h    -4.3319322    2.2843296   -1.7933721  0.00    0.0004124   -0.0000499   -0.0013514
h    -4.9727425    3.4484994   -0.5733389  0.00   -0.0003875    0.0012747    0.0002202
h    -5.7484341    1.8324436   -0.7600771  0.00   -0.0000427    0.0000447    0.0000155
n    -3.5908016    0.3634540    0.0080569  0.00    0.0000280   -0.0022154    0.0011929
h    -4.2631667    1.9067828    1.2989573  0.00   -0.0004454    0.0002002    0.0013343
h    -4.5059737   -0.1397792   -0.0615090  0.00   -0.0000242   -0.0000586   -0.0000243
h    -3.1002186    0.2570623   -0.9155475  0.00    0.0008961   -0.0004246   -0.0017662
o    -2.2470169    3.4264524    1.3896657  0.00    0.0000885   -0.0004698   -0.0012301
o    -1.5901010    2.4714792   -0.7102475  0.00   -0.0007244    0.0004668    0.0018864
h    -0.7939848    3.0578838   -0.4969066  0.00   -0.0000276   -0.0001287   -0.0002039
    13
 Energy =       0.0463151833
c    -3.8111312    1.7868279    0.2817050  0.00    0.0004473    0.0009651    0.0004883
c    -2.5020624    2.5602158    0.3274502  0.00   -0.0001612   -0.0005837   -0.0004890
c    -4.7810493    2.3738961   -0.7606655  0.00   -0.0009523    0.0000204   -0.0002105
h    -4.3443396    2.2976264   -1.7824763  0.00    0.0003245   -0.0000454   -0.0010295
h    -4.9754739    3.4493178   -0.5467438  0.00   -0.0002953    0.0009565    0.0001605
h    -5.7520137    1.8348310   -0.7422932  0.00   -0.0000385    0.0000359    0.0000109
n    -3.5869513    0.3607264   -0.0071197  0.00    0.0000239   -0.0016889    0.0009630
h    -4.2499552    1.8899561    1.3043838  0.00   -0.0003496    0.0001550    0.0010224
h    -4.5022411   -0.1429055   -0.0724154  0.00   -0.0000354   -0.0000427   -0.0000142
h    -3.1056987    0.2641810   -0.9364162  0.00    0.0007161   -0.0003301   -0.0013850
o    -2.2150410    3.3783746    1.4151314  0.00    0.0000311    0.0007346    0.0009914
o    -1.6100752    2.5038552   -0.7383872  0.00    0.0002499   -0.0001595   -0.0004524
h    -0.8086041    3.0819047   -0.5219014  0.00    0.0000396   -0.0000171   -0.0000558
    13
 Energy =       0.0463080944
c    -3.8112629    1.7875050    0.2815622  0.00   -0.0000421   -0.0000872   -0.0000378
c    -2.5028461    2.5619106    0.3273540  0.00   -0.0000505   -0.0000277    0.0000127
c    -4.7795975    2.3698051   -0.7629185  0.00    0.0000909   -0.0000008    0.0000191
h    -4.3414325    2.2911294   -1.7827493  0.00   -0.0000320    0.0000062    0.0000978
h    -4.9746152    3.4447974   -0.5528324  0.00    0.0000286   -0.0000900   -0.0000108
h    -5.7501036    1.8299116   -0.7445626  0.00    0.0000035   -0.0000036   -0.0000014
n    -3.5859889    0.3619853   -0.0026681  0.00    0.0000017    0.0001576   -0.0001002
h    -4.2516257    1.8928333    1.3021730  0.00    0.0000347   -0.0000184   -0.0000964
h    -4.5006081   -0.1431153   -0.0659937  0.00   -0.0000003    0.0000007    0.0000000
h    -3.1052770    0.2635708   -0.9309101  0.00   -0.0000709    0.0000381    0.0001342
o    -2.2078025    3.3653360    1.4230461  0.00   -0.0000131    0.0000548    0.0000884
o    -1.6180621    2.5186869   -0.7447567  0.00    0.0000477   -0.0000376   -0.0001192
h    -0.8154147    3.0944515   -0.5264921  0.00    0.0000018    0.0000078    0.0000136
    13
 Energy =       0.0463080303
c    -3.8113101    1.7875691    0.2816286  0.00    0.0000000    0.0000000   -0.0000000
c    -2.5028180    2.5618496    0.3274500  0.00   -0.0000005   -0.0000008   -0.0000006
c    -4.7795256    2.3698190   -0.7631754  0.00   -0.0000000    0.0000000    0.0000000
h    -4.3412307    2.2908668   -1.7830331  0.00    0.0000000    0.0000000   -0.0000000
h    -4.9745125    3.4449544   -0.5533434  0.00   -0.0000000    0.0000000    0.0000000
h    -5.7500833    1.8300206   -0.7448065  0.00   -0.0000000    0.0000000    0.0000000
n    -3.5860295    0.3618896   -0.0023468  0.00    0.0000000   -0.0000000    0.0000000
h    -4.2518249    1.8931373    1.3022536  0.00   -0.0000000   -0.0000000    0.0000000
h    -4.5006835   -0.1431453   -0.0656627  0.00    0.0000000   -0.0000000   -0.0000000
h    -3.1052251    0.2632412   -0.9306160  0.00    0.0000000   -0.0000000   -0.0000001
o    -2.2068794    3.3638644    1.4238653  0.00    0.0000001    0.0000012    0.0000018
o    -1.6186999    2.5196799   -0.7451700  0.00    0.0000004   -0.0000006   -0.0000012
h    -0.8158142    3.0950610   -0.5267918  0.00    0.0000001    0.0000002    0.0000001
    13
 Energy =       0.0463080303
c    -3.8113110    1.7875704    0.2816289  0.00    0.0000000    0.0000000   -0.0000000
c    -2.5028175    2.5618485    0.3274513  0.00   -0.0000000   -0.0000000   -0.0000000
c    -4.7795229    2.3698179   -0.7631798  0.00   -0.0000000    0.0000000    0.0000000
h    -4.3412250    2.2908620   -1.7830359  0.00    0.0000000    0.0000000   -0.0000000
h    -4.9745091    3.4449543   -0.5533522  0.00   -0.0000000    0.0000000    0.0000000
h    -5.7500812    1.8300205   -0.7448122  0.00   -0.0000000    0.0000000    0.0000000
n    -3.5860316    0.3618898   -0.0023410  0.00    0.0000000   -0.0000000    0.0000000
h    -4.2518285    1.8931428    1.3022523  0.00   -0.0000000   -0.0000000    0.0000000
h    -4.5006862   -0.1431445   -0.0656544  0.00   -0.0000000   -0.0000000   -0.0000000
h    -3.1052277    0.2632374   -0.9306100  0.00    0.0000000    0.0000000   -0.0000000
o    -2.2068628    3.3638363    1.4238805  0.00    0.0000000    0.0000000    0.0000000
o    -1.6187117    2.5196995   -0.7451787  0.00    0.0000000   -0.0000000   -0.0000000
h    -0.8158215    3.0950729   -0.5267972  0.00    0.0000000    0.0000000    0.0000000
