    27
 Energy =       0.2840268003
c    -1.4235396    2.6054793   -0.0667700  0.00   -0.0462816    0.0383145    0.0027522
c    -1.3072796    1.2134697   -0.1072300  0.00   -0.0852219   -0.0325782    0.0020234
c    -0.0178900    0.6711998   -0.1697000  0.00   -0.0885700   -0.1879323   -0.0011844
c    -0.2940599    3.4190890   -0.0891300  0.00   -0.0230830    0.0690887    0.0029154
c     0.9872197    2.8590292   -0.1560400  0.00    0.0105642    0.0642102    0.0009863
c     1.1340797    1.4562096   -0.1970299  0.00    0.0533670    0.0515384    0.0020962
n     0.3879399   -0.6395298   -0.2140799  0.00    0.1435583    0.1090285   -0.0029797
c     2.2666594    0.5727398   -0.2659299  0.00    0.1401011   -0.0570215   -0.0204338
c     1.7555995   -0.7123598   -0.2706899  0.00   -0.0951455   -0.0974703    0.0040513
h    -0.2400399   -1.4313496   -0.2047299  0.00    0.0367688    0.0478632   -0.0006576
c     3.7030089    1.0223397   -0.3320099  0.00    0.0141458    0.0053638    0.0139702
c     4.7465686   -0.0024900    0.1378100  0.00   -0.0943951    0.0298786    0.1003342
h     3.7978489    1.9290294    0.2803699  0.00    0.0007244   -0.0119753   -0.0108158
h     3.9233889    1.3348996   -1.3618196  0.00   -0.0043130   -0.0029386    0.0148121
c     6.0911583    0.7171698    0.3515799  0.00    0.2464565    0.1810828   -0.2750106
n     4.9813086   -1.1161597   -0.8485798  0.00    0.0667468   -0.0488279   -0.0589487
h     4.4627987   -0.4486599    1.0982597  0.00    0.0098011    0.0019984   -0.0206770
h     4.3153288   -0.9829797   -1.6165895  0.00    0.0176049    0.0151825    0.0343935
h     5.8957383   -0.9560407   -1.2856796  0.00   -0.0323646    0.0234801    0.0371066
h    -2.4108593    3.0588691   -0.0157800  0.00   -0.0007966    0.0002396    0.0000343
h    -2.1896094    0.5822398   -0.0890100  0.00   -0.0036246    0.0037659    0.0000548
h    -0.4052699    4.5000487   -0.0535400  0.00    0.0008718    0.0001818    0.0002958
h     1.8590495    3.5066790   -0.1715100  0.00   -0.0007390    0.0027535    0.0007743
h     2.2327294   -1.6813195   -0.3062999  0.00   -0.0413862   -0.0102208    0.0018228
o     6.7518081    1.2603096   -0.5181639  0.00   -0.1566209   -0.1435407    0.2060034
o     6.4672982    0.6782418    1.6583195  0.00   -0.0443172   -0.0258665   -0.0150224
h     6.5087381    1.6283795    1.9413994  0.00   -0.0238516   -0.0255985   -0.0186967
    27
 Energy =       0.2324605234
c    -1.3641078    2.6206116   -0.0677247  0.00   -0.0253988    0.0209489    0.0014975
c    -1.2577078    1.2439580   -0.1095947  0.00   -0.0476036   -0.0184004    0.0010795
c     0.0042361    0.6967223   -0.1680194  0.00   -0.0478504   -0.1046415    0.0005259
c    -0.2352007    3.4153917   -0.0906318  0.00   -0.0132979    0.0382506    0.0016484
c     1.0243489    2.8455300   -0.1568946  0.00    0.0060274    0.0361167    0.0005374
c     1.1368630    1.4636220   -0.1931073  0.00    0.0286584    0.0295664    0.0012277
n     0.3640175   -0.6461190   -0.2404817  0.00    0.0785613    0.0590542   -0.0033997
c     2.2430532    0.6139274   -0.2647994  0.00    0.0787968   -0.0317408   -0.0103952
c     1.7601508   -0.6658849   -0.2828644  0.00   -0.0542468   -0.0518895    0.0033089
h    -0.2700467   -1.4529681   -0.2493494  0.00    0.0206606    0.0266533   -0.0008514
c     3.6870224    1.0542607   -0.3782626  0.00    0.0070665    0.0021191    0.0089391
c     4.7085636    0.0230284    0.1476305  0.00   -0.0539800    0.0178682    0.0564570
h     3.8084114    2.0043755    0.1767746  0.00    0.0002373   -0.0036637   -0.0053459
h     3.9071396    1.2873597   -1.4390324  0.00   -0.0016084   -0.0014710    0.0049909
c     6.0605800    0.6938169    0.4001570  0.00    0.1313155    0.1075869   -0.1616450
n     4.9035733   -1.1190778   -0.8000997  0.00    0.0370602   -0.0278969   -0.0294197
h     4.3824231   -0.3789529    1.1249576  0.00    0.0046566    0.0007224   -0.0101866
h     4.2199791   -1.0539444   -1.5759234  0.00    0.0065365    0.0073711    0.0172411
h     5.8283682   -1.0205885   -1.2621472  0.00   -0.0155166    0.0142035    0.0197497
h    -2.3475100    3.0823779   -0.0192573  0.00   -0.0005002    0.0001218    0.0000240
h    -2.1417455    0.6151006   -0.0992210  0.00   -0.0020135    0.0020419   -0.0000072
h    -0.3351286    4.4977398   -0.0584831  0.00    0.0004395    0.0001701    0.0001717
h     1.9068338    3.4781103   -0.1785424  0.00   -0.0000532    0.0014175    0.0004376
h     2.3078045   -1.5997386   -0.3391173  0.00   -0.0196449   -0.0068398    0.0000949
o     6.7614290    1.2493497   -0.5329229  0.00   -0.0866935   -0.0822575    0.1172722
o     6.5409799    0.5839995    1.6842314  0.00   -0.0073645   -0.0691085   -0.0169981
h     6.3753915    1.5125263    2.1001526  0.00   -0.0242445    0.0336969    0.0030454
    27
 Energy =       0.2216002298
c    -1.3823271    2.5560370   -0.0323529  0.00   -0.0214432    0.0177218    0.0012570
c    -1.2580634    1.1827908   -0.0553282  0.00   -0.0401366   -0.0157038    0.0007905
c     0.0062261    0.6522753   -0.1207735  0.00   -0.0401306   -0.0868726   -0.0001303
c    -0.2654201    3.3635948   -0.0771999  0.00   -0.0109647    0.0323836    0.0014362
c     0.9969702    2.8093841   -0.1490336  0.00    0.0053259    0.0304814    0.0005212
c     1.1222405    1.4331264   -0.1691235  0.00    0.0240323    0.0252428    0.0010511
n     0.3827355   -0.6941314   -0.1515350  0.00    0.0647155    0.0487604   -0.0019808
c     2.2362369    0.6094644   -0.2407038  0.00    0.0664674   -0.0265157   -0.0080554
c     1.7838193   -0.6777524   -0.2398540  0.00   -0.0445512   -0.0430586    0.0021911
h    -0.2350807   -1.5180942   -0.1211569  0.00    0.0164339    0.0209932   -0.0004774
c     3.6703457    1.0827536   -0.3538140  0.00    0.0041012    0.0020147    0.0082150
c     4.7222128    0.0347646    0.0832086  0.00   -0.0436518    0.0159623    0.0485587
h     3.7817852    1.9932128    0.2731821  0.00   -0.0001854   -0.0003082   -0.0027286
h     3.8667399    1.3982160   -1.4022182  0.00   -0.0007266    0.0000532    0.0008502
c     6.0635422    0.7158886    0.3520579  0.00    0.1081484    0.0911621   -0.1392869
n     4.8976361   -1.0527764   -0.9307892  0.00    0.0336640   -0.0276804   -0.0245252
h     4.4270751   -0.4261734    1.0488739  0.00    0.0032368   -0.0004545   -0.0065672
h     4.2243740   -0.9222608   -1.7136836  0.00    0.0032588    0.0059870    0.0111233
h     5.8336142   -0.9579267   -1.3753741  0.00   -0.0126395    0.0123546    0.0164912
h    -2.3711243    3.0056000    0.0217347  0.00   -0.0005353    0.0001290    0.0000232
h    -2.1327047    0.5412777   -0.0202808  0.00   -0.0020345    0.0014318    0.0000069
h    -0.3785626    4.4451046   -0.0581229  0.00    0.0004020    0.0003303    0.0001493
h     1.8723727    3.4512698   -0.1886529  0.00    0.0001430    0.0013298    0.0003463
h     2.3638079   -1.5928483   -0.3003689  0.00   -0.0158933   -0.0062417   -0.0000545
o     6.7913918    1.2532156   -0.5933135  0.00   -0.0725168   -0.0691686    0.0979748
o     6.5072620    0.6872421    1.6575367  0.00   -0.0022604   -0.0768253   -0.0150658
h     6.4526163    1.6712794    1.9845122  0.00   -0.0222593    0.0464914    0.0078858
    27
 Energy =       0.2131653305
c    -1.3853186    2.5290288   -0.0115601  0.00   -0.0170724    0.0140879    0.0010147
c    -1.2559104    1.1596280   -0.0470333  0.00   -0.0319493   -0.0125648    0.0007180
c     0.0060682    0.6350131   -0.1052750  0.00   -0.0318624   -0.0688602    0.0002997
c    -0.2720218    3.3385699   -0.0383623  0.00   -0.0086356    0.0258153    0.0011049
c     0.9890074    2.7889509   -0.1016912  0.00    0.0043773    0.0242773    0.0003395
c     1.1139909    1.4180407   -0.1326829  0.00    0.0190107    0.0202710    0.0007384
n     0.3822140   -0.7156242   -0.1590386  0.00    0.0506691    0.0386076   -0.0020960
c     2.2282100    0.6100355   -0.1961759  0.00    0.0528954   -0.0215800   -0.0058725
c     1.7914142   -0.6792437   -0.2113152  0.00   -0.0349925   -0.0339515    0.0019908
h    -0.2326152   -1.5468385   -0.1570254  0.00    0.0126748    0.0161312   -0.0005090
c     3.6592944    1.1034182   -0.2816737  0.00    0.0000812    0.0011404    0.0067447
c     4.7307506    0.0282423    0.0441718  0.00   -0.0330613    0.0137202    0.0418165
h     3.7687911    1.9549772    0.4319353  0.00   -0.0003806    0.0039303    0.0010834
h     3.8407947    1.5165369   -1.3038777  0.00   -0.0000155    0.0021826   -0.0039004
c     6.0788977    0.6963380    0.3073205  0.00    0.0855208    0.0730463   -0.1105042
n     4.8536740   -0.9980257   -1.0404927  0.00    0.0301528   -0.0273477   -0.0207030
h     4.4757236   -0.4890903    0.9966801  0.00    0.0023636   -0.0013056   -0.0028676
h     4.1646432   -0.8038687   -1.8016025  0.00    0.0002466    0.0049701    0.0054073
h     5.7812759   -0.9048043   -1.5071336  0.00   -0.0098445    0.0097953    0.0123895
h    -2.3760374    2.9749216    0.0364259  0.00   -0.0004613    0.0000978    0.0000227
h    -2.1280167    0.5138872   -0.0299014  0.00   -0.0017570    0.0010264    0.0000097
h    -0.3881424    4.4195888   -0.0107806  0.00    0.0003426    0.0003097    0.0001158
h     1.8643748    3.4318522   -0.1258261  0.00    0.0002419    0.0011025    0.0002506
h     2.3917610   -1.5821658   -0.2659151  0.00   -0.0124811   -0.0051776    0.0000460
o     6.8255539    1.2014402   -0.6652872  0.00   -0.0570496   -0.0553018    0.0765520
o     6.5178960    0.7214435    1.6163335  0.00   -0.0007180   -0.0703008   -0.0130904
h     6.5534487    1.7222820    1.8872104  0.00   -0.0182956    0.0458779    0.0088989
    27
 Energy =       0.2087648260
c    -1.3981401    2.4773517   -0.0116515  0.00   -0.0150176    0.0123324    0.0008900
c    -1.2552246    1.1102967   -0.0281341  0.00   -0.0279253   -0.0111593    0.0005712
c     0.0091193    0.5978215   -0.0912786  0.00   -0.0278013   -0.0597327    0.0000493
c    -0.2939106    3.2964797   -0.0609710  0.00   -0.0073547    0.0226992    0.0009912
c     0.9698695    2.7584586   -0.1293846  0.00    0.0039511    0.0213411    0.0003381
c     1.1059587    1.3905341   -0.1417926  0.00    0.0166296    0.0178087    0.0006721
n     0.3970125   -0.7532874   -0.1174520  0.00    0.0437187    0.0332522   -0.0015570
c     2.2257820    0.5980548   -0.2053084  0.00    0.0461823   -0.0187677   -0.0051272
c     1.8075889   -0.6956490   -0.1980976  0.00   -0.0301743   -0.0295193    0.0015385
h    -0.2079192   -1.5936691   -0.0877581  0.00    0.0106231    0.0134154   -0.0003604
c     3.6497468    1.1089088   -0.3147435  0.00   -0.0003197    0.0012107    0.0057339
c     4.7393821    0.0632676    0.0472230  0.00   -0.0287007    0.0118192    0.0365490
h     3.7488981    1.9854962    0.3702088  0.00   -0.0001931    0.0040326    0.0014120
h     3.8222488    1.4910120   -1.3504106  0.00   -0.0000792    0.0022153   -0.0039423
c     6.0663208    0.7691771    0.3183648  0.00    0.0734012    0.0643121   -0.0983995
n     4.8937392   -0.9816680   -1.0142057  0.00    0.0271309   -0.0251465   -0.0175943
h     4.4824166   -0.4383457    1.0080646  0.00    0.0020944   -0.0012502   -0.0023428
h     4.1951346   -0.8339589   -1.7785892  0.00   -0.0010209    0.0045033    0.0034081
h     5.8188555   -0.8712107   -1.4846112  0.00   -0.0082526    0.0086265    0.0107786
h    -2.3927258    2.9141216    0.0403770  0.00   -0.0004682    0.0000953    0.0000217
h    -2.1201669    0.4555945    0.0098222  0.00   -0.0017475    0.0006927    0.0000160
h    -0.4201529    4.3767601   -0.0477623  0.00    0.0003305    0.0004384    0.0001027
h     1.8385953    3.4095079   -0.1722968  0.00    0.0004128    0.0011103    0.0002156
h     2.4246014   -1.5877403   -0.2492835  0.00   -0.0107938   -0.0046838   -0.0000032
o     6.8331420    1.2470868   -0.6644847  0.00   -0.0494996   -0.0482988    0.0657206
o     6.4713858    0.8690982    1.6374747  0.00    0.0006923   -0.0677542   -0.0083367
h     6.5681641    1.8810351    1.8441080  0.00   -0.0158184    0.0464068    0.0086547
    27
 Energy =       0.2040230513
c    -1.4076730    2.4302138   -0.0002441  0.00   -0.0124240    0.0100930    0.0007360
c    -1.2522379    1.0662661    0.0075480  0.00   -0.0228341   -0.0094032    0.0003869
c     0.0130257    0.5646240   -0.0615311  0.00   -0.0227313   -0.0484251   -0.0002692
c    -0.3123821    3.2569282   -0.0785124  0.00   -0.0057208    0.0187662    0.0008488
c     0.9528880    2.7289238   -0.1530566  0.00    0.0033729    0.0176737    0.0003406
c     1.0984267    1.3647489   -0.1412919  0.00    0.0136544    0.0146729    0.0005987
n     0.4103727   -0.7872494   -0.0568748  0.00    0.0352028    0.0266167   -0.0009108
c     2.2220811    0.5873155   -0.2043558  0.00    0.0376761   -0.0151102   -0.0041566
c     1.8221087   -0.7097623   -0.1671140  0.00   -0.0243836   -0.0240749    0.0009997
h    -0.1857211   -1.6351913    0.0040529  0.00    0.0081679    0.0101688   -0.0001599
c     3.6389785    1.1131623   -0.3453708  0.00   -0.0003311    0.0012078    0.0045952
c     4.7474021    0.0953999    0.0386473  0.00   -0.0230756    0.0093727    0.0294412
h     3.7333291    2.0100581    0.3134413  0.00    0.0000084    0.0037160    0.0014800
h     3.7965478    1.4673199   -1.3929208  0.00   -0.0000938    0.0020789   -0.0037134
c     6.0573741    0.8339386    0.3052610  0.00    0.0576679    0.0532211   -0.0824347
n     4.9176630   -0.9659812   -1.0013675  0.00    0.0228457   -0.0215085   -0.0129675
h     4.4966239   -0.3906904    1.0096111  0.00    0.0017115   -0.0011849   -0.0017510
h     4.1987681   -0.8667243   -1.7565651  0.00   -0.0024083    0.0038315    0.0011609
h     5.8316295   -0.8390000   -1.4922404  0.00   -0.0060310    0.0073359    0.0086580
h    -2.4054405    2.8590229    0.0565499  0.00   -0.0004440    0.0000764    0.0000195
h    -2.1100423    0.4038676    0.0709966  0.00   -0.0017059    0.0002831    0.0000310
h    -0.4477647    4.3363200   -0.0839525  0.00    0.0003211    0.0005935    0.0000823
h     1.8153025    3.3865490   -0.2197649  0.00    0.0005959    0.0011324    0.0001639
h     2.4556699   -1.5909432   -0.2112628  0.00   -0.0087257   -0.0040132   -0.0000548
o     6.8523777    1.2595167   -0.6956310  0.00   -0.0393917   -0.0395962    0.0507822
o     6.4282006    1.0261124    1.6277880  0.00    0.0008452   -0.0663507   -0.0017371
h     6.6122134    2.0397882    1.7555871  0.00   -0.0117687    0.0488264    0.0078301
    27
 Energy =       0.2008150121
c    -1.4046481    2.4182305    0.0366343  0.00   -0.0102974    0.0080277    0.0006180
c    -1.2458930    1.0568688    0.0788314  0.00   -0.0183572   -0.0081132    0.0002332
c     0.0164437    0.5565057    0.0004674  0.00   -0.0182745   -0.0384739   -0.0005821
c    -0.3132496    3.2436231   -0.0838628  0.00   -0.0040691    0.0154593    0.0006998
c     0.9495824    2.7159405   -0.1680496  0.00    0.0028936    0.0146811    0.0003327
c     1.0956472    1.3548650   -0.1219864  0.00    0.0112060    0.0119313    0.0005237
n     0.4135544   -0.7973448    0.0442111  0.00    0.0276805    0.0206165   -0.0003142
c     2.2171490    0.5828045   -0.1858783  0.00    0.0300332   -0.0114530   -0.0032582
c     1.8251738   -0.7137409   -0.1033287  0.00   -0.0194064   -0.0195511    0.0005212
h    -0.1800233   -1.6460021    0.1465172  0.00    0.0057339    0.0069681    0.0000956
c     3.6298441    1.1100014   -0.3742500  0.00    0.0001331    0.0011756    0.0037547
c     4.7517944    0.1056165    0.0041418  0.00   -0.0181704    0.0076152    0.0233250
h     3.7373193    2.0198177    0.2640839  0.00    0.0001723    0.0032172    0.0014307
h     3.7609889    1.4416487   -1.4324824  0.00    0.0000064    0.0018677   -0.0035588
c     6.0627183    0.8552632    0.2379842  0.00    0.0421069    0.0427581   -0.0654176
n     4.8998343   -0.9730480   -1.0190604  0.00    0.0182647   -0.0182653   -0.0069418
h     4.5220217   -0.3626141    0.9897289  0.00    0.0012647   -0.0011505   -0.0009613
h     4.1405896   -0.9172078   -1.7412314  0.00   -0.0045002    0.0031015   -0.0017243
h     5.7862243   -0.8371672   -1.5603242  0.00   -0.0024379    0.0064574    0.0056572
h    -2.4021196    2.8466112    0.1007014  0.00   -0.0004165    0.0000161    0.0000197
h    -2.1004393    0.3940013    0.1781726  0.00   -0.0018346   -0.0002700    0.0000777
h    -0.4504911    4.3225657   -0.1157800  0.00    0.0003644    0.0008634    0.0000493
h     1.8097618    3.3727384   -0.2688947  0.00    0.0009053    0.0013444    0.0000856
h     2.4663487   -1.5902211   -0.1357567  0.00   -0.0070588   -0.0033906   -0.0000800
o     6.8912278    1.1851701   -0.7898726  0.00   -0.0279786   -0.0315640    0.0338263
o     6.4158052    1.1489671    1.5498766  0.00   -0.0005023   -0.0637186    0.0050628
h     6.6845569    2.1506401    1.5968340  0.00   -0.0074611    0.0498493    0.0065250
    27
 Energy =       0.2013250913
c    -1.3890551    2.4516483    0.0952170  0.00   -0.0103559    0.0077292    0.0006389
c    -1.2391343    1.0903571    0.1629997  0.00   -0.0180291   -0.0082611    0.0002608
c     0.0179244    0.5795370    0.0732554  0.00   -0.0178594   -0.0373524   -0.0006022
c    -0.2939206    3.2665881   -0.0610292  0.00   -0.0036504    0.0153824    0.0006386
c     0.9634297    2.7280299   -0.1575570  0.00    0.0030591    0.0146072    0.0002864
c     1.1002242    1.3671915   -0.0864384  0.00    0.0111356    0.0117560    0.0004717
n     0.4057035   -0.7760703    0.1454759  0.00    0.0263654    0.0197472   -0.0001867
c     2.2144519    0.5860239   -0.1574778  0.00    0.0290474   -0.0105966   -0.0031781
c     1.8147357   -0.7059326   -0.0373266  0.00   -0.0187291   -0.0192647    0.0004490
h    -0.1922964   -1.6176407    0.2827596  0.00    0.0049532    0.0059276    0.0002395
c     3.6267203    1.0992076   -0.3916892  0.00    0.0001692    0.0013365    0.0036471
c     4.7515215    0.0844271   -0.0501303  0.00   -0.0179827    0.0079175    0.0234004
h     3.7630786    2.0084129    0.2425529  0.00    0.0001771    0.0034333    0.0017152
h     3.7271696    1.4271816   -1.4547814  0.00    0.0000599    0.0018677   -0.0039507
c     6.0821142    0.8187266    0.1305373  0.00    0.0398669    0.0411033   -0.0621294
n     4.8462350   -1.0030277   -1.0713316  0.00    0.0173022   -0.0193517   -0.0034871
h     4.5539036   -0.3740677    0.9475578  0.00    0.0010830   -0.0011494   -0.0002642
h     4.0413966   -0.9630254   -1.7465796  0.00   -0.0070411    0.0029113   -0.0042045
h     5.6953721   -0.8632070   -1.6720903  0.00    0.0007846    0.0065454    0.0030641
h    -2.3823127    2.8884702    0.1683528  0.00   -0.0005208   -0.0000083    0.0000319
h    -2.0964320    0.4356147    0.2925709  0.00   -0.0021642   -0.0006088    0.0001357
h    -0.4239434    4.3458612   -0.1122248  0.00    0.0004286    0.0010756    0.0000273
h     1.8268513    3.3761425   -0.2873196  0.00    0.0012487    0.0016181    0.0000288
h     2.4485618   -1.5880364   -0.0649727  0.00   -0.0069630   -0.0034199   -0.0000494
o     6.9055443    1.0798933   -0.9254515  0.00   -0.0250693   -0.0299212    0.0300626
o     6.4674986    1.1511558    1.4244668  0.00   -0.0003653   -0.0623497    0.0065182
h     6.7443796    2.1510724    1.4380808  0.00   -0.0069507    0.0493255    0.0064361
    27
 Energy =       0.2003202059
c    -1.3998902    2.4335572    0.0292250  0.00   -0.0099783    0.0071622    0.0006296
c    -1.2469841    1.0720010    0.0752681  0.00   -0.0170555   -0.0080198    0.0002951
c     0.0124947    0.5666039   -0.0021118  0.00   -0.0168055   -0.0349323   -0.0005057
c    -0.3048059    3.2541494   -0.0941341  0.00   -0.0031788    0.0146826    0.0005581
c     0.9554576    2.7211794   -0.1766802  0.00    0.0030934    0.0139306    0.0002221
c     1.0947055    1.3601334   -0.1265044  0.00    0.0106143    0.0111859    0.0003933
n     0.4015553   -0.7905979    0.0437290  0.00    0.0240897    0.0182963   -0.0001658
c     2.2124087    0.5849844   -0.1871183  0.00    0.0270258   -0.0094997   -0.0030141
c     1.8156283   -0.7103443   -0.1018257  0.00   -0.0173477   -0.0182118    0.0004143
h    -0.1970458   -1.6376679    0.1464906  0.00    0.0040580    0.0047605    0.0003105
c     3.6292912    1.1066575   -0.3737776  0.00    0.0001006    0.0015308    0.0034710
c     4.7469552    0.0984893    0.0109937  0.00   -0.0172233    0.0076664    0.0219247
h     3.7391916    2.0172190    0.2638184  0.00    0.0001483    0.0034761    0.0019073
h     3.7644321    1.4341899   -1.4333559  0.00    0.0001222    0.0018256   -0.0043105
c     6.0646392    0.8403505    0.2481007  0.00    0.0360427    0.0382989   -0.0579730
n     4.8839391   -0.9909619   -1.0040193  0.00    0.0138490   -0.0205143    0.0060652
h     4.5113007   -0.3598107    1.0012721  0.00    0.0008672   -0.0011691    0.0005216
h     4.1402123   -0.9157865   -1.7499049  0.00   -0.0123979    0.0033228   -0.0095004
h     5.7962281   -0.8967413   -1.5261337  0.00    0.0091407    0.0067871   -0.0021141
h    -2.3957493    2.8660893    0.0922792  0.00   -0.0005802   -0.0000396    0.0000397
h    -2.1045700    0.4122196    0.1765003  0.00   -0.0023540   -0.0008547    0.0001705
h    -0.4372114    4.3338384   -0.1293436  0.00    0.0004695    0.0011580    0.0000113
h     1.8190135    3.3742806   -0.2794485  0.00    0.0014817    0.0017613   -0.0000118
h     2.4555347   -1.5880547   -0.1308670  0.00   -0.0065996   -0.0032823   -0.0000331
o     6.9508258    1.0792828   -0.7666984  0.00   -0.0211815   -0.0274907    0.0250926
o     6.3812949    1.1952344    1.5566313  0.00   -0.0000168   -0.0590106    0.0101357
h     6.6908701    2.1840393    1.5650419  0.00   -0.0063841    0.0471797    0.0054661
    27
 Energy =       0.2016436514
c    -1.3964235    2.4491796    0.0530936  0.00   -0.0096284    0.0068910    0.0006070
c    -1.2473907    1.0875783    0.1011521  0.00   -0.0164397   -0.0077287    0.0002828
c     0.0098459    0.5782827    0.0198210  0.00   -0.0161952   -0.0336435   -0.0004904
c    -0.2994686    3.2659514   -0.0763076  0.00   -0.0030600    0.0141532    0.0005374
c     0.9585601    2.7289015   -0.1631381  0.00    0.0029945    0.0134207    0.0002138
c     1.0935628    1.3678818   -0.1108840  0.00    0.0102209    0.0107744    0.0003800
n     0.3940851   -0.7804057    0.0652756  0.00    0.0231641    0.0176196   -0.0001519
c     2.2080971    0.5895876   -0.1765955  0.00    0.0260009   -0.0091560   -0.0028992
c     1.8079357   -0.7042783   -0.0884010  0.00   -0.0166447   -0.0175443    0.0003796
h    -0.2067209   -1.6255289    0.1724327  0.00    0.0038920    0.0045671    0.0003026
c     3.6253396    1.1062004   -0.3752774  0.00    0.0001180    0.0014566    0.0032759
c     4.7425536    0.0939636   -0.0009135  0.00   -0.0172668    0.0086030    0.0210491
h     3.7450878    2.0153741    0.2623033  0.00    0.0001408    0.0033696    0.0018835
h     3.7516818    1.4331481   -1.4359053  0.00    0.0001464    0.0017367   -0.0042029
c     6.0748000    0.8257172    0.1964778  0.00    0.0271353    0.0364868   -0.0482080
n     4.8384929   -1.0199693   -0.9956415  0.00    0.0090822   -0.0227700    0.0110427
h     4.5236484   -0.3418511    1.0037303  0.00    0.0006176   -0.0012222    0.0009466
h     4.1342985   -0.8969761   -1.7758829  0.00   -0.0152454    0.0043304   -0.0115252
h     5.7826504   -1.0145813   -1.4765949  0.00    0.0163990    0.0065494   -0.0057901
h    -2.3906975    2.8848626    0.1192775  0.00   -0.0005708   -0.0000364    0.0000390
h    -2.1064621    0.4305283    0.2068109  0.00   -0.0022794   -0.0008317    0.0001653
h    -0.4287107    4.3459392   -0.1130981  0.00    0.0004522    0.0011220    0.0000106
h     1.8237172    3.3789323   -0.2710257  0.00    0.0014416    0.0017066   -0.0000134
h     2.4451194   -1.5837558   -0.1228716  0.00   -0.0062224   -0.0031500   -0.0000819
o     7.0070995    0.9205296   -0.8147126  0.00   -0.0117788   -0.0262081    0.0125214
o     6.3828985    1.2629388    1.4838222  0.00   -0.0010325   -0.0581889    0.0146295
h     6.7061215    2.2463833    1.4404795  0.00   -0.0054415    0.0476926    0.0050962
    27
 Energy =       0.2015451821
c    -1.3802283    2.4839820   -0.0055497  0.00   -0.0095452    0.0066975    0.0006054
c    -1.2441242    1.1210627    0.0381085  0.00   -0.0161627   -0.0075976    0.0002923
c     0.0090591    0.6007320   -0.0312823  0.00   -0.0158666   -0.0328565   -0.0004604
c    -0.2743750    3.2911670   -0.1185647  0.00   -0.0029679    0.0139280    0.0005160
c     0.9797669    2.7430347   -0.1921522  0.00    0.0030466    0.0131448    0.0001915
c     1.1015055    1.3808059   -0.1443884  0.00    0.0099764    0.0105511    0.0003602
n     0.3792908   -0.7618992    0.0126533  0.00    0.0222787    0.0172017   -0.0001313
c     2.2097062    0.5927684   -0.1953363  0.00    0.0251869   -0.0090299   -0.0028297
c     1.7965748   -0.6977853   -0.1160196  0.00   -0.0159752   -0.0171214    0.0003499
h    -0.2316545   -1.6017500    0.1055012  0.00    0.0036219    0.0042436    0.0003178
c     3.6369342    1.0957737   -0.3608150  0.00    0.0001487    0.0014969    0.0029828
c     4.7321627    0.0650563    0.0302412  0.00   -0.0181120    0.0086084    0.0203323
h     3.7529206    1.9986681    0.2863639  0.00    0.0001697    0.0033586    0.0019040
h     3.7900722    1.4289079   -1.4161529  0.00    0.0001833    0.0018310   -0.0044560
c     6.0628269    0.7780116    0.3036423  0.00    0.0255344    0.0359436   -0.0464850
n     4.8565424   -1.0228140   -0.9905671  0.00    0.0068669   -0.0237804    0.0121029
h     4.4713876   -0.3958641    1.0148393  0.00    0.0002442   -0.0017480    0.0020978
h     4.1249513   -0.9211053   -1.7489239  0.00   -0.0160404    0.0046928   -0.0119716
h     5.7864735   -0.9602909   -1.4982424  0.00    0.0185972    0.0057965   -0.0076913
h    -2.3712847    2.9284505    0.0510117  0.00   -0.0006535   -0.0000173    0.0000448
h    -2.1103328    0.4713359    0.1309036  0.00   -0.0023406   -0.0008904    0.0001740
h    -0.3933298    4.3724854   -0.1520209  0.00    0.0004480    0.0011602    0.0000068
h     1.8523984    3.3854718   -0.2856693  0.00    0.0015427    0.0017605   -0.0000308
h     2.4273245   -1.5826778   -0.1369109  0.00   -0.0058787   -0.0031404   -0.0001019
o     7.0513894    0.8743949   -0.6559595  0.00   -0.0084593   -0.0247176    0.0099578
o     6.3097417    1.1999355    1.6111267  0.00   -0.0008248   -0.0568262    0.0172357
h     6.6540224    2.1766761    1.5915901  0.00   -0.0050189    0.0473106    0.0046860
    27
 Energy =       0.1994069876
c    -1.4067432    2.4235887    0.0274095  0.00   -0.0095261    0.0065942    0.0006032
c    -1.2503933    1.0629028    0.0757921  0.00   -0.0159600   -0.0075458    0.0003002
c     0.0097979    0.5605342   -0.0006568  0.00   -0.0155872   -0.0321509   -0.0004474
c    -0.3136760    3.2463221   -0.0975386  0.00   -0.0028886    0.0138156    0.0004941
c     0.9475284    2.7161844   -0.1789354  0.00    0.0031303    0.0129710    0.0001672
c     1.0894200    1.3561335   -0.1260984  0.00    0.0097998    0.0103518    0.0003420
n     0.4012279   -0.7968326    0.0453329  0.00    0.0215744    0.0167047   -0.0000921
c     2.2086208    0.5850430   -0.1851442  0.00    0.0245796   -0.0088835   -0.0027864
c     1.8165441   -0.7111551   -0.0989116  0.00   -0.0154333   -0.0168479    0.0003164
h    -0.1955491   -1.6459800    0.1479811  0.00    0.0033598    0.0038929    0.0003414
c     3.6246980    1.1106652   -0.3730867  0.00    0.0001306    0.0017527    0.0026096
c     4.7458023    0.1083774    0.0192981  0.00   -0.0186077    0.0082411    0.0201290
h     3.7320065    2.0242637    0.2606055  0.00    0.0002500    0.0034570    0.0019517
h     3.7597874    1.4337647   -1.4342224  0.00    0.0001632    0.0019090   -0.0045568
c     6.0678302    0.8566457    0.2385543  0.00    0.0198667    0.0340100   -0.0402152
n     4.8690218   -1.0019542   -0.9775054  0.00    0.0058287   -0.0240672    0.0124888
h     4.5147795   -0.3324342    1.0211328  0.00    0.0001354   -0.0021268    0.0026927
h     4.1583554   -0.8958409   -1.7552104  0.00   -0.0161814    0.0047423   -0.0121289
h     5.8128950   -0.9703055   -1.4634286  0.00    0.0190515    0.0049639   -0.0084568
h    -2.4038335    2.8538617    0.0895718  0.00   -0.0007742    0.0000316    0.0000525
h    -2.1063945    0.4009762    0.1776826  0.00   -0.0024274   -0.0009779    0.0001859
h    -0.4486126    4.3257343   -0.1348492  0.00    0.0004319    0.0012801    0.0000010
h     1.8097411    3.3711339   -0.2829659  0.00    0.0016643    0.0018430   -0.0000498
h     2.4613186   -1.5857055   -0.1276075  0.00   -0.0055879   -0.0032062   -0.0001118
o     6.9862256    1.0331480   -0.7844310  0.00   -0.0015125   -0.0219816    0.0029809
o     6.3678595    1.2713990    1.5378505  0.00   -0.0007591   -0.0551412    0.0185767
h     6.7214640    2.2440633    1.5068077  0.00   -0.0047210    0.0463682    0.0046121
    27
 Energy =       0.1957078517
c    -1.4316007    2.3568765    0.0351043  0.00   -0.0084244    0.0058178    0.0005318
c    -1.2538923    0.9996098    0.0862543  0.00   -0.0139936   -0.0066505    0.0002716
c     0.0128320    0.5166899    0.0086552  0.00   -0.0136123   -0.0279225   -0.0003881
c    -0.3520605    3.1954688   -0.0940605  0.00   -0.0024960    0.0121801    0.0004245
c     0.9160416    2.6845661   -0.1763613  0.00    0.0028704    0.0113611    0.0001312
c     1.0781392    1.3280671   -0.1201891  0.00    0.0085345    0.0090273    0.0002942
n     0.4249879   -0.8359422    0.0535952  0.00    0.0185434    0.0143496   -0.0000517
c     2.2082365    0.5770586   -0.1797007  0.00    0.0213726   -0.0076796   -0.0024255
c     1.8399694   -0.7247275   -0.0920567  0.00   -0.0132854   -0.0147275    0.0002566
h    -0.1577244   -1.6953321    0.1571186  0.00    0.0027876    0.0031633    0.0003203
c     3.6137065    1.1277292   -0.3725955  0.00    0.0000686    0.0018162    0.0021038
c     4.7570624    0.1512043    0.0200240  0.00   -0.0164060    0.0068814    0.0177124
h     3.7052484    2.0451202    0.2576568  0.00    0.0002397    0.0031356    0.0017486
h     3.7400806    1.4510523   -1.4342208  0.00    0.0001525    0.0017016   -0.0039797
c     6.0610885    0.9318591    0.2214689  0.00    0.0135001    0.0276566   -0.0302934