    27
 Energy =       5.6018634444
c    -1.4235396    2.6054793   -0.0667700  0.00   -0.0467011    0.0383971    0.0029186
c    -1.3072796    1.2134697   -0.1072300  0.00   -0.0851064   -0.0326485    0.0021572
c    -0.0178900    0.6711998   -0.1697000  0.00   -0.0895364   -0.1885738   -0.0018538
c    -0.2940599    3.4190890   -0.0891300  0.00   -0.0203233    0.0688278    0.0031578
c     0.9872197    2.8590292   -0.1560400  0.00    0.4781010    0.1860538    0.1444794
c     1.1340797    1.4562096   -0.1970299  0.00    0.0668282    0.0615686    0.0066443
n     0.3879399   -0.6395298   -0.2140799  0.00    0.1433908    0.1107787   -0.0014610
c     2.2666594    0.5727398   -0.2659299  0.00    0.3357987   -0.1391808    0.1884605
c     1.7555995   -0.7123598   -0.2706899  0.00   -0.0920270   -0.0927767    0.0119149
h    -0.2400399   -1.4313496   -0.2047299  0.00    0.0369219    0.0481909   -0.0012493
c     3.7030089    1.0223397   -0.3320099  0.00   -0.1170641   -0.6923859    1.4461222
c     4.0547688    2.2615794    0.5049969  0.00    0.0258066   -0.1686797   -0.0885882
h     3.9407589    1.2278196   -1.3843196  0.00    0.0004058   -0.0072945    0.0137864
h     4.3455988    0.1801669   -0.0411573  0.00   -0.6915446    0.0497520    1.1220442
c     4.1070688    1.8611695    1.9910894  0.00    0.0441929    0.2237048    0.3032292
n     3.0543991    3.3796390    0.3726399  0.00  -39.5009865    4.1226372  -17.8131367
h     5.0442386    2.6531392    0.2410219  0.00   -0.0277475    0.0123658    0.0044226
h     2.6236993    3.5084390    1.2940596  0.00   -0.1767966   -0.0480251   -0.4128080
h     3.5785090    4.2489388    0.2226519  0.00   -0.0686852   -0.0588997   -0.0036096
h    -2.4108593    3.0588691   -0.0157800  0.00   -0.0006659    0.0002094   -0.0001205
h    -2.1896094    0.5822398   -0.0890100  0.00   -0.0035704    0.0037966   -0.0001223
h    -0.4052699    4.5000487   -0.0535400  0.00    0.0008835   -0.0000060    0.0001006
h     1.8590495    3.5066790   -0.1715100  0.00   39.2783922   -4.1222057   18.1414302
h     2.2327294   -1.6813195   -0.3062999  0.00   -0.0408974   -0.0108146    0.0019836
o     4.4286787    2.5928493    2.9125692  0.00   -0.0798575   -0.1763164   -0.2204067
o     3.7415389    0.5622178    2.1634194  0.00   -0.0088024    0.0237685   -0.1476255
h     3.5614390    0.2232059    1.2484096  0.00    0.6395907    0.7877561   -2.7018699
    27
 Energy =       4.4866315353
c    -1.4356855    2.5846513   -0.0869469  0.00   -0.0349552    0.0287100    0.0023729
c    -1.3095925    1.2025590   -0.1218004  0.00   -0.0639735   -0.0247493    0.0017348
c    -0.0301137    0.6708509   -0.1846597  0.00   -0.0671190   -0.1416683   -0.0020778
c    -0.3160921    3.4004308   -0.1127544  0.00   -0.0153082    0.0515559    0.0025535
c     0.9591531    2.8493699   -0.1777697  0.00    0.3713992    0.1433038    0.1119652
c     1.1040745    1.4581078   -0.2116171  0.00    0.0500823    0.0468229    0.0051115
n     0.3647624   -0.6561686   -0.2025608  0.00    0.1071502    0.0826071   -0.0001801
c     2.2315955    0.6004559   -0.2608315  0.00    0.2589752   -0.1048893    0.1471058
c     1.7471895   -0.6847350   -0.2712035  0.00   -0.0694409   -0.0683853    0.0084213
h    -0.2545452   -1.4658585   -0.1782875  0.00    0.0279513    0.0357185   -0.0007313
c     3.6773736    1.0271530   -0.3130102  0.00   -0.0894789   -0.5467059    1.1334642
c     4.0565022    2.2655863    0.5064678  0.00    0.0186061   -0.1269440   -0.0675011
h     3.9213652    1.2241307   -1.3694288  0.00    0.0004645   -0.0052457    0.0103336
h     4.3110815    0.1983431   -0.0157453  0.00   -0.5419001    0.0431177    0.8781293
c     4.1817959    1.8662049    1.9781140  0.00    0.0327573    0.1691624    0.2240965
n     3.0546199    3.3712629    0.3856313  0.00  -30.9349034    3.2243948  -13.9516429
h     5.0447461    2.6439694    0.1968129  0.00   -0.0200582    0.0097341    0.0029945
h     2.6320819    3.5148194    1.3145819  0.00   -0.1393742   -0.0367219   -0.3223135
h     3.5834403    4.2443530    0.2193623  0.00   -0.0524368   -0.0444845   -0.0032159
h    -2.4259698    3.0308783   -0.0312238  0.00   -0.0006090   -0.0001001    0.0001891
h    -2.1852697    0.5623195   -0.0935375  0.00   -0.0026822    0.0025392    0.0000766
h    -0.4334633    4.4806241   -0.0727962  0.00    0.0004941   -0.0001224    0.0002806
h     1.8366699    3.5010462   -0.1688744  0.00   30.7621629   -3.2270383   14.2078968
h     2.2776676   -1.6274474   -0.3060295  0.00   -0.0296321   -0.0089549    0.0011868
o     4.5086616    2.6748822    2.8922099  0.00   -0.0606727   -0.1287545   -0.1657643
o     3.9002921    0.5436061    2.1995056  0.00    0.0103389    0.0189682   -0.0768108
h     3.5160953    0.2206033    1.3022931  0.00    0.4821626    0.6081296   -2.1476755
    27
 Energy =       2.4109431472
c    -1.4363051    2.5749997   -0.1319201  0.00   -0.0087423    0.0076189    0.0016366
c    -1.3067543    1.2128116   -0.1395723  0.00   -0.0166473   -0.0060299    0.0007990
c    -0.0554041    0.6822173   -0.1942676  0.00   -0.0164850   -0.0373233   -0.0005006
c    -0.3286231    3.3775298   -0.1918996  0.00   -0.0034929    0.0139346    0.0023030
c     0.9229518    2.8255658   -0.2551077  0.00    0.1550152    0.0565445    0.0465664
c     1.0525050    1.4516158   -0.2286266  0.00    0.0124163    0.0146033    0.0030657
n     0.2893339   -0.6850024   -0.1910064  0.00    0.0248900    0.0204586   -0.0010224
c     2.1586909    0.6232869   -0.2150069  0.00    0.1014415   -0.0411473    0.0716066
c     1.7085939   -0.6524827   -0.2197088  0.00   -0.0187593   -0.0146498    0.0026167
h    -0.3424937   -1.5097555   -0.1737199  0.00    0.0071780    0.0098322   -0.0003493
c     3.6379083    0.9964087   -0.2990562  0.00   -0.0638038   -0.2927960    0.5422595
c     4.0967389    2.2562280    0.4762364  0.00    0.0047241   -0.0396351   -0.0197846
h     3.8645461    1.1483278   -1.3761412  0.00   -0.0003866   -0.0019683    0.0008984
h     4.3763584    0.2698595    0.0833562  0.00   -0.2380240    0.0409788    0.4380934
c     4.3062040    1.8739048    1.9475929  0.00    0.0287961    0.0469441    0.0408117
n     3.1119756    3.3540834    0.3559434  0.00  -15.1866887    1.5621621   -6.8831095
h     5.0902500    2.5856386    0.0878533  0.00   -0.0022042    0.0025723   -0.0017439
h     2.6712788    3.4188953    1.3191514  0.00   -0.0647814   -0.0233283   -0.1290263
h     3.6522031    4.2557889    0.3134101  0.00   -0.0170304   -0.0058827    0.0011432
h    -2.4248473    3.0238692   -0.0663218  0.00   -0.0000552    0.0005680    0.0012878
h    -2.1790848    0.5696748   -0.0866343  0.00   -0.0010720    0.0009871    0.0009236
h    -0.4403341    4.4594721   -0.1667624  0.00    0.0005274    0.0004359    0.0008368
h     1.8253698    3.4917729   -0.2289726  0.00   15.1151734   -1.5730325    6.9769047
h     2.3251961   -1.5487143   -0.2514622  0.00   -0.0061374   -0.0042446   -0.0001777
o     4.5635814    2.8336353    2.8811703  0.00   -0.0283079   -0.0195854   -0.0387316
o     3.8899971    0.5976404    2.3186807  0.00   -0.0045738   -0.0107753   -0.0093394
h     3.4885996    0.2147267    1.4486934  0.00    0.2270304    0.2927582   -1.0479677
    27
 Energy =       2.1282461142
c    -1.4479661    2.5510950   -0.2241609  0.00   -0.0089334    0.0052869    0.0012455
c    -1.3025598    1.1918367   -0.2478235  0.00   -0.0151338   -0.0057918    0.0007296
c    -0.0449913    0.6780873   -0.2611433  0.00   -0.0137219   -0.0325899   -0.0002466
c    -0.3466377    3.3673608   -0.2199384  0.00   -0.0026726    0.0124799    0.0017098
c     0.9143630    2.8318850   -0.2367439  0.00    0.1354103    0.0488982    0.0399598
c     1.0539510    1.4611320   -0.2405090  0.00    0.0115026    0.0125831    0.0025383
n     0.3128755   -0.6873903   -0.2777247  0.00    0.0201038    0.0174507   -0.0008684
c     2.1644643    0.6485774   -0.2110808  0.00    0.0883282   -0.0354192    0.0613979
c     1.7330693   -0.6326142   -0.2523824  0.00   -0.0144000   -0.0125917    0.0025953
h    -0.3072204   -1.5233368   -0.3029613  0.00    0.0054835    0.0068060   -0.0000919
c     3.6390219    1.0295480   -0.2512227  0.00   -0.0547941   -0.2486665    0.4697019
c     4.0916594    2.2676575    0.5562447  0.00    0.0043506   -0.0330861   -0.0169713
h     3.8852338    1.2107169   -1.3202728  0.00   -0.0002558   -0.0014197    0.0002229
h     4.3173937    0.2352080    0.0969726  0.00   -0.2051790    0.0320336    0.3766294
c     4.2952139    1.8555422    2.0145614  0.00    0.0231187    0.0370234    0.0313541
n     3.1064071    3.3656708    0.4423557  0.00  -13.1561609    1.3528594   -5.9631370
h     5.0893750    2.6017337    0.1828986  0.00   -0.0019495    0.0025204   -0.0015533
h     2.6734955    3.4473796    1.4067360  0.00   -0.0568599   -0.0199313   -0.1118228
h     3.6487370    4.2654009    0.3737027  0.00   -0.0145978   -0.0044631    0.0007140
h    -2.4453125    2.9858962   -0.1975203  0.00   -0.0012015   -0.0000004    0.0008799
h    -2.1686070    0.5358488   -0.2453874  0.00   -0.0020050   -0.0004053    0.0008075
h    -0.4735614    4.4471302   -0.1806723  0.00    0.0002447    0.0003475    0.0003776
h     1.8053881    3.5053210   -0.1486020  0.00   13.0955327   -1.3615399    6.0444683
h     2.3666047   -1.5176427   -0.2772859  0.00   -0.0046470   -0.0037484    0.0002124
o     4.6348532    2.7847458    2.9606261  0.00   -0.0233720   -0.0128875   -0.0301877
o     3.8645913    0.5826309    2.3733992  0.00   -0.0037016   -0.0089813   -0.0079103
h     3.4585943    0.2125778    1.5038365  0.00    0.1955108    0.2532330   -0.9027549
    27
 Energy =       1.8238273572
c    -1.4591003    2.5371166   -0.3169656  0.00   -0.0087207    0.0031323    0.0008138
c    -1.3009380    1.1809116   -0.3562989  0.00   -0.0132697   -0.0052329    0.0005889
c    -0.0404844    0.6793484   -0.3265866  0.00   -0.0108838   -0.0272254   -0.0000359
c    -0.3652548    3.3620622   -0.2480560  0.00   -0.0017782    0.0107653    0.0012016
c     0.9003830    2.8377999   -0.2183070  0.00    0.1130894    0.0404344    0.0325258
c     1.0493251    1.4711352   -0.2506718  0.00    0.0102552    0.0103424    0.0020124
n     0.3273213   -0.6845836   -0.3591385  0.00    0.0152338    0.0141927   -0.0008256
c     2.1627470    0.6712913   -0.2034965  0.00    0.0738800   -0.0286667    0.0506377
c     1.7465761   -0.6129528   -0.2808562  0.00   -0.0101865   -0.0102568    0.0024900
h    -0.2827657   -1.5279576   -0.4242409  0.00    0.0038997    0.0042174   -0.0000306
c     3.6358187    1.0543093   -0.2084579  0.00   -0.0446489   -0.2043936    0.3913893
c     4.0876641    2.2745230    0.6257536  0.00    0.0038489   -0.0267615   -0.0140215
h     3.9008131    1.2549455   -1.2699847  0.00   -0.0001157   -0.0009071   -0.0000939
h     4.2683238    0.2143612    0.1191655  0.00   -0.1714077    0.0241374    0.3119857
c     4.3076996    1.8340676    2.0702841  0.00    0.0153363    0.0248773    0.0194558
n     3.0988625    3.3708832    0.5340180  0.00  -10.9501619    1.1264603   -4.9637919
h     5.0832026    2.6172639    0.2539905  0.00   -0.0016680    0.0022925   -0.0012674
h     2.6713202    3.4449204    1.5007878  0.00   -0.0475469   -0.0165001   -0.0928811
h     3.6386157    4.2721298    0.4614976  0.00   -0.0122156   -0.0035591    0.0003922
h    -2.4615316    2.9620218   -0.3289495  0.00   -0.0020037   -0.0004016    0.0004618
h    -2.1602803    0.5161872   -0.4041405  0.00   -0.0026960   -0.0014387    0.0005595
h    -0.5040140    4.4396732   -0.1932272  0.00    0.0001104    0.0003142    0.0000469
h     1.7791100    3.5128060   -0.0646543  0.00   10.9013724   -1.1321277    5.0319876
h     2.3934705   -1.4886080   -0.3038757  0.00   -0.0033788   -0.0031222    0.0004492
o     4.7678922    2.7238561    3.0153238  0.00   -0.0159154   -0.0037047   -0.0182577
o     3.8474410    0.5724012    2.4283398  0.00   -0.0030876   -0.0075181   -0.0064478
h     3.4262186    0.2120859    1.5646487  0.00    0.1626591    0.2106499   -0.7493445
    27
 Energy =       1.5466184635
c    -1.4713295    2.5257218   -0.3914659  0.00   -0.0081107    0.0015872    0.0004354
c    -1.3002792    1.1728516   -0.4511767  0.00   -0.0112856   -0.0046926    0.0004207
c    -0.0384914    0.6817237   -0.3864881  0.00   -0.0085680   -0.0222065    0.0000993
c    -0.3876893    3.3570817   -0.2624919  0.00   -0.0008491    0.0091616    0.0008464
c     0.8797100    2.8419822   -0.1958431  0.00    0.0918934    0.0328239    0.0256252
c     1.0407385    1.4802025   -0.2593971  0.00    0.0088391    0.0082517    0.0015698
n     0.3397082   -0.6798704   -0.4369450  0.00    0.0113227    0.0111638   -0.0007975
c     2.1581526    0.6920939   -0.2004425  0.00    0.0603717   -0.0223493    0.0410496
c     1.7565316   -0.5938894   -0.3143994  0.00   -0.0071429   -0.0082253    0.0023036
h    -0.2604792   -1.5284877   -0.5382761  0.00    0.0025942    0.0022939   -0.0000744
c     3.6318107    1.0774440   -0.1785518  0.00   -0.0354321   -0.1659141    0.3196870
c     4.0860321    2.2837900    0.6765938  0.00    0.0031052   -0.0222471   -0.0118605
h     3.9131627    1.2888197   -1.2339731  0.00   -0.0000151   -0.0005467   -0.0001832
h     4.2359620    0.2116674    0.1424917  0.00   -0.1407570    0.0183791    0.2546875
c     4.3464087    1.8137698    2.1051719  0.00    0.0088120    0.0151383    0.0103732
n     3.0851733    3.3718616    0.6267018  0.00   -8.9418890    0.9205477   -4.0560268
h     5.0707055    2.6444144    0.2917310  0.00   -0.0010612    0.0019017   -0.0011767
h     2.6547618    3.3997009    1.5965298  0.00   -0.0392537   -0.0135227   -0.0733401
h     3.6138014    4.2823931    0.5875699  0.00   -0.0096831   -0.0017390    0.0001926
h    -2.4765109    2.9424834   -0.4336862  0.00   -0.0022399   -0.0006163    0.0001429
h    -2.1513564    0.5015053   -0.5450028  0.00   -0.0030160   -0.0020393    0.0002969
h    -0.5375893    4.4321049   -0.1873433  0.00    0.0001244    0.0004526   -0.0001251
h     1.7442270    3.5160273    0.0197486  0.00    8.9031469   -0.9235947    4.1100377
h     2.4153097   -1.4606475   -0.3431039  0.00   -0.0024805   -0.0026121    0.0005330
o     4.9266453    2.6585862    3.0362512  0.00   -0.0084783    0.0034407   -0.0077913
o     3.8488306    0.5686023    2.4712214  0.00   -0.0025207   -0.0063234   -0.0047948
h     3.3944894    0.2200657    1.6204774  0.00    0.1325732    0.1714870   -0.6121306
    27
 Energy =       1.3934590408
c    -1.4805859    2.5373728   -0.3935029  0.00   -0.0073848    0.0014615    0.0003636
c    -1.3064352    1.1870506   -0.4913473  0.00   -0.0098399   -0.0047326    0.0003335
c    -0.0451111    0.6963969   -0.4275706  0.00   -0.0075789   -0.0193791    0.0001640
c    -0.4002066    3.3654013   -0.2259827  0.00   -0.0003165    0.0084403    0.0007642
c     0.8656594    2.8485954   -0.1601311  0.00    0.0800216    0.0293183    0.0220892
c     1.0302359    1.4924369   -0.2663935  0.00    0.0077827    0.0070139    0.0013333
n     0.3360731   -0.6631678   -0.5146743  0.00    0.0099631    0.0091368   -0.0007759
c     2.1491120    0.7087529   -0.2212330  0.00    0.0527384   -0.0188515    0.0358644
c     1.7519800   -0.5749482   -0.3752958  0.00   -0.0063151   -0.0075204    0.0020550
h    -0.2611643   -1.5105673   -0.6466767  0.00    0.0018388    0.0013412   -0.0001700
c     3.6256277    1.0912470   -0.1812188  0.00   -0.0304958   -0.1448949    0.2795913
c     4.0925980    2.2834019    0.6922487  0.00    0.0028147   -0.0213911   -0.0114859
h     3.9190825    1.3086582   -1.2321966  0.00    0.0000006   -0.0003852   -0.0002338
h     4.2078164    0.2063718    0.1370506  0.00   -0.1235623    0.0153610    0.2235118
c     4.4036521    1.7754041    2.0990310  0.00    0.0060232    0.0097901    0.0062943
n     3.0799372    3.3641890    0.7057753  0.00   -7.8362955    0.8065121   -3.5596290
h     5.0610573    2.6652488    0.2858711  0.00   -0.0002626    0.0014794   -0.0014741
h     2.6392954    3.3105518    1.6749363  0.00   -0.0359724   -0.0123764   -0.0580981
h     3.5963160    4.2842415    0.7379036  0.00   -0.0070031    0.0025719    0.0004584
h    -2.4855252    2.9543501   -0.4343853  0.00   -0.0019505   -0.0005159    0.0001312
h    -2.1549278    0.5172177   -0.6145899  0.00   -0.0028960   -0.0021522    0.0002177
h    -0.5518405    4.4378287   -0.1173325  0.00    0.0001716    0.0010006   -0.0000494
h     1.7247089    3.5086232    0.0937426  0.00    7.8012422   -0.8094737    3.6008205
h     2.4149171   -1.4377945   -0.4252796  0.00   -0.0021086   -0.0025550    0.0004441
o     5.0853984    2.5696297    3.0126382  0.00   -0.0033702    0.0075622   -0.0014074
o     3.8606267    0.5496463    2.4705057  0.00   -0.0020118   -0.0058572   -0.0031454
h     3.3601385    0.2258598    1.6340092  0.00    0.1147671    0.1490962   -0.5379673
    27
 Energy =       0.9650484195
c    -1.4829808    2.5563395   -0.4555380  0.00   -0.0047962   -0.0001805   -0.0000228
c    -1.3071900    1.2113605   -0.5884060  0.00   -0.0058965   -0.0036234   -0.0001824
c    -0.0534851    0.7163071   -0.4848422  0.00   -0.0032900   -0.0097757    0.0002086
c    -0.4088051    3.3753029   -0.2242587  0.00    0.0006192    0.0051961    0.0007002
c     0.8520427    2.8536298   -0.1290486  0.00    0.0472916    0.0173361    0.0142949
c     1.0150622    1.5028230   -0.2599481  0.00    0.0056431    0.0047148    0.0008463
n     0.3238919   -0.6428271   -0.6121036  0.00    0.0041135    0.0036161   -0.0015517
c     2.1272947    0.7180228   -0.2045436  0.00    0.0317562   -0.0087966    0.0227004
c     1.7352986   -0.5577842   -0.4192969  0.00   -0.0016286   -0.0035426    0.0014654
h    -0.2697449   -1.4857981   -0.7933545  0.00    0.0004050   -0.0010780   -0.0012093
c     3.6079468    1.0782662   -0.1357990  0.00   -0.0185983   -0.0879417    0.1705117
c     4.0958963    2.2464303    0.7644833  0.00    0.0025692   -0.0111184   -0.0058049
h     3.9263309    1.3019318   -1.1785340  0.00    0.0002933    0.0004554   -0.0003645
h     4.1419061    0.1569020    0.1810918  0.00   -0.0788553    0.0054897    0.1371968
c     4.4014182    1.7359429    2.1696947  0.00   -0.0004939    0.0015258   -0.0007248
n     3.1196003    3.3548373    0.7647982  0.00   -4.8398651    0.4847938   -2.2033495
h     5.0790108    2.6013948    0.3674257  0.00    0.0000252    0.0018522   -0.0010519
h     2.7131362    3.4167897    1.7476700  0.00   -0.0266393   -0.0044417   -0.0269022
h     3.6654685    4.2601288    0.6897894  0.00    0.0006247    0.0099821    0.0013075
h    -2.4847786    2.9761830   -0.5269096  0.00   -0.0018776   -0.0010781   -0.0001202
h    -2.1494380    0.5470843   -0.7733430  0.00   -0.0028244   -0.0028634   -0.0007001
h    -0.5629017    4.4449843   -0.0981662  0.00   -0.0003968    0.0003224    0.0004245
h     1.7136158    3.5078644    0.1298442  0.00    4.8174746   -0.4977400    2.2215012
h     2.4053330   -1.4132600   -0.4999303  0.00   -0.0005236   -0.0016943   -0.0002735
o     5.1772085    2.4889142    3.0481726  0.00    0.0030625    0.0082286    0.0029259
o     3.8311857    0.5374367    2.5738822  0.00   -0.0010010   -0.0037328   -0.0023875
h     3.3061134    0.2127917    1.7630720  0.00    0.0728084    0.0940943   -0.3294380
    27
 Energy =       0.6217737263
c    -1.4978212    2.5544470   -0.5008228  0.00   -0.0019418   -0.0006552    0.0000142
c    -1.3140559    1.2135957   -0.6401123  0.00   -0.0021394   -0.0016361   -0.0003012
c    -0.0643374    0.7206623   -0.5113962  0.00   -0.0007907   -0.0034583   -0.0001828
c    -0.4330105    3.3727417   -0.2449463  0.00   -0.0000027    0.0015462    0.0004987
c     0.8260348    2.8543070   -0.1314654  0.00    0.0202396    0.0068213    0.0071077
c     0.9964316    1.5056727   -0.2610040  0.00    0.0023232    0.0017157    0.0002647
n     0.3144679   -0.6377430   -0.6420868  0.00    0.0015423    0.0010214   -0.0011668
c     2.1080943    0.7225295   -0.1929322  0.00    0.0138054   -0.0038944    0.0110573
c     1.7223987   -0.5497016   -0.4279476  0.00    0.0002623   -0.0008960    0.0003956
h    -0.2750715   -1.4803163   -0.8365382  0.00    0.0006723   -0.0006583   -0.0012294
c     3.5957978    1.0666822   -0.1101871  0.00   -0.0094315   -0.0447092    0.0835813
c     4.1064691    2.2249070    0.7926314  0.00    0.0013819   -0.0037396   -0.0028069
h     3.9345662    1.2712412   -1.1504857  0.00    0.0004590    0.0007161   -0.0003685
h     4.1065071    0.1368853    0.2363884  0.00   -0.0419510    0.0008357    0.0742706
c     4.4336739    1.7352605    2.2033207  0.00   -0.0020331    0.0007307   -0.0042328
n     3.1585866    3.3514864    0.7834734  0.00   -2.5047935    0.2445006   -1.1407557
h     5.0930531    2.5568076    0.3840542  0.00   -0.0000002    0.0015664   -0.0005694
h     2.7803573    3.4766199    1.7663973  0.00   -0.0142143   -0.0012480   -0.0121637
h     3.7149087    4.2380330    0.6381078  0.00    0.0012000    0.0069150    0.0014116
h    -2.4983868    2.9722628   -0.5903251  0.00   -0.0011008   -0.0010602    0.0000012
h    -2.1481764    0.5493361   -0.8495991  0.00   -0.0009925   -0.0016877   -0.0007240
h    -0.5929025    4.4413728   -0.1203038  0.00   -0.0007870   -0.0002900    0.0006699
h     1.6799239    3.5179163    0.1170663  0.00    2.4943726   -0.2538915    1.1499703
h     2.3994197   -1.3983144   -0.5183149  0.00    0.0004434   -0.0003579   -0.0006465
o     5.3020045    2.4615939    3.0182700  0.00    0.0065037    0.0079383    0.0048206
o     3.8228367    0.5840089    2.6828342  0.00   -0.0009506   -0.0041989    0.0015406
h     3.2466663    0.2397043    1.9218251  0.00    0.0379235    0.0480737   -0.1704565
    27
 Energy =       0.5970994547
c    -1.4712609    2.6218068   -0.5108220  0.00   -0.0026727    0.0002898   -0.0000435
c    -1.3280149    1.2696973   -0.5972627  0.00   -0.0023571   -0.0031716   -0.0004615
c    -0.0915476    0.7456615   -0.4595249  0.00   -0.0010474   -0.0037249   -0.0002068
c    -0.3800030    3.4193857   -0.2981367  0.00    0.0003562    0.0029087    0.0006309
c     0.8646921    2.8682736   -0.1756090  0.00    0.0192010    0.0078648    0.0067841
c     0.9933740    1.5104352   -0.2515582  0.00    0.0026124    0.0012864    0.0002472
n     0.2487345   -0.6283758   -0.5409066  0.00    0.0018099   -0.0005622   -0.0011907
c     2.0837062    0.7012026   -0.1661899  0.00    0.0134361   -0.0025855    0.0107416
c     1.6620830   -0.5699095   -0.3476853  0.00   -0.0000908   -0.0021148    0.0002725
h    -0.3663267   -1.4622549   -0.6953309  0.00   -0.0004028   -0.0021810   -0.0014337
c     3.5790575    1.0174001   -0.1145985  0.00   -0.0082080   -0.0420944    0.0786132
c     4.1188625    2.1720731    0.7750011  0.00    0.0020225   -0.0072981   -0.0029401
h     3.9016570    1.2140711   -1.1616224  0.00    0.0004473    0.0006771   -0.0005482
h     4.0837120    0.0829951    0.2265909  0.00   -0.0391576    0.0008977    0.0698763
c     4.3956083    1.7137838    2.2092949  0.00   -0.0016429   -0.0014534   -0.0032824
n     3.2270402    3.3461534    0.7027496  0.00   -2.3591323    0.2270333   -1.0776254
h     5.1321997    2.4434489    0.3821462  0.00    0.0022136    0.0016174   -0.0015631
h     2.8713330    3.5649644    1.6810947  0.00   -0.0163549    0.0013083   -0.0048558
h     3.8210531    4.1954024    0.4793547  0.00    0.0045903    0.0127542   -0.0001411
h    -2.4601322    3.0655568   -0.6091137  0.00   -0.0014169   -0.0006507   -0.0000242
h    -2.1831557    0.6214514   -0.7731087  0.00   -0.0015320   -0.0023828   -0.0008354
h    -0.5067867    4.4980222   -0.2172680  0.00   -0.0007751    0.0013626    0.0007788
h     1.7423001    3.5138158    0.0315421  0.00    2.3459698   -0.2378930    1.0811026
h     2.3156177   -1.4397198   -0.4137735  0.00    0.0006884   -0.0011964   -0.0007208
o     5.2297162    2.4660287    3.0371226  0.00    0.0068298    0.0079438    0.0054997
o     3.7927380    0.5610383    2.6941573  0.00   -0.0003428   -0.0035533    0.0021907
h     3.2421787    0.1895902    1.9293584  0.00    0.0349562    0.0449179   -0.1608652
    27
 Energy =       0.5355441863
c    -1.4395002    2.7005679   -0.5277602  0.00   -0.0032361    0.0013704   -0.0001492
c    -1.3426781    1.3399793   -0.5556377  0.00   -0.0024488   -0.0045779   -0.0005305
c    -0.1226706    0.7804829   -0.4064489  0.00   -0.0012463   -0.0035394   -0.0001980
c    -0.3192833    3.4701208   -0.3614898  0.00    0.0007437    0.0041626    0.0006470
c     0.9073201    2.8816188   -0.2274875  0.00    0.0163058    0.0082627    0.0057694
c     0.9888529    1.5180177   -0.2442175  0.00    0.0026798    0.0006982    0.0002441
n     0.1727347   -0.6077803   -0.4320468  0.00    0.0018353   -0.0024160   -0.0010288
c     2.0539750    0.6798534   -0.1385075  0.00    0.0116601   -0.0007286    0.0092403
c     1.5909785   -0.5855504   -0.2608609  0.00   -0.0004668   -0.0032577    0.0001588
h    -0.4712387   -1.4281274   -0.5424657  0.00   -0.0016952   -0.0037288   -0.0014384
c     3.5583961    0.9590721   -0.1171220  0.00   -0.0059688   -0.0351751    0.0651350
c     4.1348062    2.1079577    0.7568465  0.00    0.0027529   -0.0105757   -0.0026520
h     3.8686485    1.1410327   -1.1705100  0.00    0.0004334    0.0005681   -0.0006574
h     4.0496569    0.0177895    0.2251679  0.00   -0.0323956    0.0006743    0.0583194
c     4.3569550    1.6891913    2.2157008  0.00   -0.0009824   -0.0032007   -0.0016092
n     3.3136722    3.3314938    0.6154774  0.00   -1.9696472    0.1873241   -0.9016120
h     5.1735224    2.3088168    0.3824066  0.00    0.0046165    0.0014354   -0.0025122
h     2.9827090    3.6409993    1.5800510  0.00   -0.0164121    0.0042080    0.0018581
h     3.9493565    4.1299495    0.3206016  0.00    0.0075877    0.0166951   -0.0021312
h    -2.4137773    3.1739478   -0.6369743  0.00   -0.0016699   -0.0000759   -0.0000745
h    -2.2210524    0.7133228   -0.6950688  0.00   -0.0020495   -0.0029321   -0.0008452
h    -0.4077757    4.5566384   -0.3293738  0.00   -0.0006281    0.0031624    0.0007419
h     1.8087099    3.5022872   -0.0661013  0.00    1.9544956   -0.1971972    0.9001069
h     2.2165514   -1.4782509   -0.2975281  0.00    0.0009237   -0.0021407   -0.0006988
o     5.1677995    2.4631834    3.0453287  0.00    0.0059318    0.0066301    0.0051325
o     3.7480681    0.5484485    2.7208429  0.00    0.0001391   -0.0028660    0.0028541
h     3.2136994    0.1469358    1.9630792  0.00    0.0287413    0.0372204   -0.1340700
    27
 Energy =       0.4598188740
c    -1.4100228    2.7714399   -0.5459882  0.00   -0.0033459    0.0020467   -0.0002473
c    -1.3567175    1.4074804   -0.5130287  0.00   -0.0022735   -0.0052989   -0.0004682
c    -0.1530659    0.8160877   -0.3526085  0.00   -0.0013466   -0.0029530   -0.0001679
c    -0.2636810    3.5115064   -0.4287505  0.00    0.0011678    0.0047357    0.0005555
c     0.9447905    2.8893653   -0.2834158  0.00    0.0125650    0.0079090    0.0043953
c     0.9826775    1.5249646   -0.2383695  0.00    0.0024587    0.0002491    0.0002415
n     0.0994859   -0.5815373   -0.3194515  0.00    0.0016233   -0.0037141   -0.0007379
c     2.0233877    0.6610974   -0.1108531  0.00    0.0090635    0.0009934    0.0070727
c     1.5211463   -0.5948612   -0.1708340  0.00   -0.0008402   -0.0038976    0.0000833
h    -0.5713642   -1.3860651   -0.3837126  0.00   -0.0026903   -0.0046770   -0.0012298
c     3.5359579    0.9013388   -0.1193418  0.00   -0.0035651   -0.0266017    0.0481474
c     4.1518865    2.0459846    0.7334485  0.00    0.0031449   -0.0113601   -0.0021793
h     3.8355127    1.0614124   -1.1793693  0.00    0.0004660    0.0004456   -0.0007624
h     4.0112052   -0.0458267    0.2313904  0.00   -0.0243109    0.0001905    0.0443579
c     4.3318338    1.6755117    2.2137573  0.00   -0.0002033   -0.0030036   -0.0005576
n     3.4028694    3.3085595    0.5272000  0.00   -1.4871808    0.1408938   -0.6812727
h     5.2073846    2.1781259    0.3730056  0.00    0.0057000    0.0011003   -0.0029157
h     3.0956684    3.6922699    1.4720456  0.00   -0.0140940    0.0054717    0.0050603
h     4.0754460    4.0517699    0.1765696  0.00    0.0085266    0.0166932   -0.0033419
h    -2.3697608    3.2714598   -0.6657681  0.00   -0.0016235    0.0003472   -0.0001120
h    -2.2562943    0.8035050   -0.6137598  0.00   -0.0023238   -0.0031224   -0.0007402
h    -0.3161598    4.6016394   -0.4471056  0.00   -0.0003559    0.0042831    0.0005736
h     1.8655259    3.4844762   -0.1694686  0.00    1.4726158   -0.1476564    0.6777254
h     2.1192689   -1.5073818   -0.1752741  0.00    0.0009713   -0.0027261   -0.0005803
o     5.1388171    2.4674216    3.0278292  0.00    0.0044298    0.0048654    0.0040128
o     3.7040043    0.5619636    2.7573051  0.00    0.0000358   -0.0029146    0.0037514
h     3.1686336    0.1302907    2.0204502  0.00    0.0213850    0.0277009   -0.1006643
    27
 Energy =       0.4009939412
c    -1.3884213    2.8235081   -0.5599046  0.00   -0.0032369    0.0022969   -0.0003081
c    -1.3700586    1.4609882   -0.4672953  0.00   -0.0020419   -0.0055682   -0.0003335
c    -0.1799643    0.8454646   -0.2972381  0.00   -0.0014227   -0.0024490   -0.0001268
c    -0.2216004    3.5372752   -0.4924173  0.00    0.0016044    0.0048446    0.0004341
c     0.9718955    2.8897624   -0.3373896  0.00    0.0096243    0.0074588    0.0032294
c     0.9749734    1.5286924   -0.2311540  0.00    0.0021929    0.0000220    0.0002333
n     0.0375502   -0.5559564   -0.2064811  0.00    0.0014178   -0.0043164   -0.0004765
c     1.9953896    0.6454060   -0.0819369  0.00    0.0069899    0.0021148    0.0053182
c     1.4610901   -0.5992292   -0.0797002  0.00   -0.0012158   -0.0042131    0.0000700
h    -0.6547709   -1.3449910   -0.2249595  0.00   -0.0032786   -0.0050989   -0.0009728
c     3.5134704    0.8503699   -0.1216689  0.00   -0.0019487   -0.0201282    0.0350481
c     4.1680518    1.9955432    0.7020133  0.00    0.0030983   -0.0100933   -0.0019385
h     3.7998507    0.9839930   -1.1891225  0.00    0.0005405    0.0003600   -0.0009589
h     3.9750755   -0.0997874    0.2406411  0.00   -0.0181930   -0.0002190    0.0336009
c     4.3296669    1.6774834    2.1982638  0.00    0.0003534   -0.0016197   -0.0006549