    27
 Energy =       2.0462158789
c    -1.4235396    2.6054793   -0.0667700  0.00   -0.0463682    0.0382943    0.0025786
c    -1.3072796    1.2134697   -0.1072300  0.00   -0.0850472   -0.0327028    0.0018262
c    -0.0178900    0.6711998   -0.1697000  0.00   -0.0885279   -0.1876607   -0.0001825
c    -0.2940599    3.4190890   -0.0891300  0.00   -0.0230903    0.0690188    0.0027951
c     0.9872197    2.8590292   -0.1560400  0.00    0.0100205    0.0644196    0.0009137
c     1.1340797    1.4562096   -0.1970299  0.00    0.0550425    0.0496306    0.0017433
n     0.3879399   -0.6395298   -0.2140799  0.00    0.1437912    0.1077706   -0.0074193
c     2.2666594    0.5727398   -0.2659299  0.00    3.6609183   -4.2708511   -3.7075899
c     1.7555995   -0.7123598   -0.2706899  0.00    3.5017637    0.6082171   -2.4079957
h    -0.2400399   -1.4313496   -0.2047299  0.00    0.0360097    0.0477940    0.0009557
c     3.7030089    1.0223397   -0.3320099  0.00   -0.5571654   -1.2825300   -0.7708349
c     4.2197688    1.4064496   -1.7267995  0.00   -0.1025637   -0.0344017    0.1459242
h     4.3261788    0.2093419    0.0639454  0.00   -0.0804407   -0.0259550   -0.0721318
h     3.8370289    1.8640295    0.3610799  0.00   -0.0072605   -0.0130754   -0.0055778
c     3.7734089    0.3331939   -2.7369592  0.00    0.0868244   -0.0352308   -0.3589788
n     5.7205784    1.5052196   -1.8052095  0.00    0.0871308   -0.0028255   -0.0873889
h     3.7949889    2.3605393   -2.0604594  0.00    0.0275341   -0.0119228    0.0000240
h     6.0369683    0.7723488   -2.4485593  0.00   -0.0560557    0.0228080    0.0133463
h     5.9490683    2.3775193   -2.2948593  0.00   -0.0160133   -0.0312870    0.0135731
h    -2.4108593    3.0588691   -0.0157800  0.00   -0.0007069    0.0002143    0.0001700
h    -2.1896094    0.5822398   -0.0890100  0.00   -0.0036112    0.0038140    0.0002926
h    -0.4052699    4.5000487   -0.0535400  0.00    0.0008804    0.0001887    0.0004153
h     1.8590495    3.5066790   -0.1715100  0.00   -0.0009550    0.0034075    0.0007900
h     2.2327294   -1.6813195   -0.3062999  0.00    0.0671767    0.1407767   -0.1084513
o     3.9573089    0.3724499   -3.9421789  0.00   -0.0436820   -0.0119571    0.2891478
o     3.1342991   -0.6931888   -2.1135494  0.00   -0.1157236    0.1291290    0.3198316
h     3.1158391   -0.4388009   -1.1546097  0.00   -6.4498808    4.6549167    6.7322234
    27
 Energy =       1.6706717451
c    -1.4513917    2.6060315   -0.0871459  0.00   -0.0324613    0.0271699    0.0018793
c    -1.3196060    1.2252658   -0.1397992  0.00   -0.0605516   -0.0235072    0.0010642
c    -0.0427842    0.6842818   -0.1961608  0.00   -0.0561300   -0.1302388    0.0023008
c    -0.3383842    3.4278916   -0.0961714  0.00   -0.0161996    0.0491733    0.0018731
c     0.9363177    2.8862149   -0.1585570  0.00    0.0085957    0.0453435    0.0002911
c     1.0827462    1.5043320   -0.2079505  0.00    0.0384461    0.0384405    0.0011502
n     0.2921571   -0.6854723   -0.2826914  0.00    0.0941484    0.0688169   -0.0084139
c     2.2080539    0.6960527   -0.2757520  0.00    2.6714150   -3.0234409   -2.7419006
c     1.6800401   -0.8404307   -0.2470198  0.00    2.4393662    0.3198405   -1.6767727
h    -0.3979329   -1.4414247   -0.3344963  0.00    0.0201492    0.0297569   -0.0004737
c     3.7803638    1.0401654   -0.3023701  0.00   -0.3603516   -0.9263322   -0.5499682
c     4.2927292    1.3976274   -1.7067567  0.00   -0.0762716   -0.0239650    0.1067661
h     4.3462676    0.1658031    0.0878856  0.00   -0.0572047   -0.0243629   -0.0521317
h     3.9675919    1.8798141    0.3875870  0.00   -0.0055114   -0.0081653   -0.0037249
c     3.9272554    0.2476017   -2.6597652  0.00    0.0612242   -0.0325590   -0.2557264
n     5.7741210    1.6228430   -1.7380524  0.00    0.0679776    0.0036162   -0.0538492
h     3.7766359    2.2985094   -2.0909805  0.00    0.0152285   -0.0041666   -0.0020424
h     6.1957214    0.8870384   -2.3334646  0.00   -0.0361971    0.0089298    0.0039187
h     5.9431246    2.5036243   -2.2540623  0.00   -0.0115387   -0.0186331    0.0080944
h    -2.4442464    3.0477927   -0.0409551  0.00   -0.0005861    0.0002036    0.0001351
h    -2.1975773    0.5874231   -0.1409435  0.00   -0.0026899    0.0025263    0.0000827
h    -0.4620168    4.5074546   -0.0539727  0.00    0.0006585    0.0002395    0.0002923
h     1.8072875    3.5356262   -0.1647246  0.00   -0.0004294    0.0020706    0.0005857
h     2.1594029   -1.8184246   -0.4466861  0.00    0.0489028    0.0788312   -0.0819805
o     4.0671800    0.2825359   -3.9203677  0.00   -0.0329381   -0.0072820    0.2040882
o     3.2787799   -0.7764756   -2.0293866  0.00   -0.0809762    0.0796003    0.1986161
h     3.0413381   -0.3997654   -1.1348784  0.00   -4.6360749    3.4680939    4.8958462
    27
 Energy =       1.5306301616
c    -1.3856645    2.6061356   -0.0731308  0.00   -0.0318173    0.0263741    0.0018407
c    -1.2826123    1.2241843   -0.1222749  0.00   -0.0588183   -0.0231633    0.0010263
c    -0.0170358    0.6635440   -0.1757887  0.00   -0.0540786   -0.1265656    0.0020416
c    -0.2540048    3.4023800   -0.0839883  0.00   -0.0157634    0.0479369    0.0018316
c     1.0091619    2.8312293   -0.1444992  0.00    0.0090220    0.0439418    0.0001560
c     1.1253843    1.4452885   -0.1890390  0.00    0.0383159    0.0381384    0.0008225
n     0.3085123   -0.6953015   -0.2585336  0.00    0.0904631    0.0641551   -0.0077097
c     2.2372457    0.6019367   -0.2533665  0.00    2.5724989   -2.9242215   -2.6395184
c     1.6983733   -0.8109285   -0.2439563  0.00    2.3043721    0.3113074   -1.5857444
h    -0.3735695   -1.4605022   -0.2951177  0.00    0.0193085    0.0285960   -0.0004324
c     3.7469124    1.0182135   -0.3070937  0.00   -0.3458175   -0.8799149   -0.5230980
c     4.2004136    1.4239697   -1.7208818  0.00   -0.0737818   -0.0217860    0.1025623
h     4.3754376    0.1775139    0.0604314  0.00   -0.0537751   -0.0255142   -0.0491231
h     3.9054456    1.8613862    0.3873562  0.00   -0.0055465   -0.0072584   -0.0037082
c     3.8626756    0.2739287   -2.6911503  0.00    0.0599995   -0.0307439   -0.2475453
n     5.6703009    1.7163629   -1.7829880  0.00    0.0686330    0.0020729   -0.0509470
h     3.6326469    2.3088168   -2.0726029  0.00    0.0135838   -0.0024243   -0.0024178
h     6.1166148    0.9932531   -2.3766004  0.00   -0.0346564    0.0082087    0.0034992
h     5.7843715    2.5961102   -2.3202913  0.00   -0.0107867   -0.0155740    0.0064272
h    -2.3689314    3.0695793   -0.0288550  0.00   -0.0008412    0.0003197    0.0001434
h    -2.1720109    0.6020287   -0.1228960  0.00   -0.0027604    0.0023170    0.0000772
h    -0.3531769    4.4848753   -0.0450819  0.00    0.0006094    0.0005588    0.0002935
h     1.8938988    3.4618051   -0.1521121  0.00    0.0000216    0.0019783    0.0005411
h     2.1712790   -1.8038738   -0.3730426  0.00    0.0475926    0.0717057   -0.0784237
o     4.0356602    0.3332273   -3.9511701  0.00   -0.0316574   -0.0071419    0.1966450
o     3.2469388   -0.7885545   -2.0836698  0.00   -0.0779747    0.0719337    0.1845592
h     3.0889077   -0.4646723   -1.1472948  0.00   -4.4263449    3.3447633    4.6862011
    27
 Energy =       1.4262681173
c    -1.3577018    2.6201645   -0.1003312  0.00   -0.0302917    0.0249083    0.0017405
c    -1.2711272    1.2391583   -0.1569219  0.00   -0.0557542   -0.0221195    0.0010364
c    -0.0129413    0.6678796   -0.1977657  0.00   -0.0507904   -0.1195457    0.0021652
c    -0.2156069    3.4004182   -0.0944271  0.00   -0.0149201    0.0454833    0.0017252
c     1.0400432    2.8123046   -0.1418686  0.00    0.0089094    0.0414916    0.0000408
c     1.1380605    1.4254555   -0.1896366  0.00    0.0365483    0.0364714    0.0004209
n     0.3079347   -0.6835610   -0.3016471  0.00    0.0840040    0.0601964   -0.0075732
c     2.2422133    0.5628041   -0.2328766  0.00    2.4314527   -2.7713415   -2.4930517
c     1.6995014   -0.7750871   -0.2359940  0.00    2.1597286    0.3039543   -1.4876042
h    -0.3676736   -1.4546543   -0.3709193  0.00    0.0176030    0.0263717   -0.0005217
c     3.7105676    1.0157698   -0.2894130  0.00   -0.3266192   -0.8253919   -0.4898343
c     4.1488939    1.4106641   -1.7228868  0.00   -0.0744373   -0.0200617    0.0985071
h     4.3552633    0.1965366    0.0924246  0.00   -0.0507326   -0.0244236   -0.0460523
h     3.8494845    1.8761874    0.3895174  0.00   -0.0053361   -0.0063448   -0.0034230
c     3.9229796    0.1847514   -2.6533844  0.00    0.0525165   -0.0292867   -0.2347478
n     5.5897385    1.8349805   -1.7771061  0.00    0.0729253    0.0051512   -0.0394657
h     3.5028003    2.2283007   -2.1173182  0.00    0.0086907    0.0017824   -0.0039917
h     6.1174006    1.1226926   -2.3212633  0.00   -0.0283448    0.0024745    0.0001095
h     5.6272839    2.6957369   -2.3638630  0.00   -0.0107011   -0.0083889    0.0025365
h    -2.3354839    3.0961469   -0.0659240  0.00   -0.0009481    0.0003362    0.0001406
h    -2.1670355    0.6262984   -0.1758663  0.00   -0.0028130    0.0020499    0.0000857
h    -0.3004790    4.4840916   -0.0512910  0.00    0.0005803    0.0006507    0.0002812
h     1.9326024    3.4319145   -0.1332790  0.00    0.0003574    0.0018547    0.0005429
h     2.1845138   -1.7670790   -0.2691394  0.00    0.0443422    0.0613038   -0.0712143
o     4.0520319    0.2202314   -3.9265176  0.00   -0.0290053   -0.0060707    0.1843556
o     3.4056919   -0.9139355   -2.0056835  0.00   -0.0687765    0.0429412    0.1478638
h     3.1042185   -0.4862348   -1.1542566  0.00   -4.1681879    3.1755531    4.4359279
    27
 Energy =       1.3962433137
c    -1.3706704    2.6404043   -0.1229192  0.00   -0.0294704    0.0242164    0.0016942
c    -1.2865908    1.2599602   -0.1800074  0.00   -0.0542341   -0.0215145    0.0010142
c    -0.0301319    0.6870911   -0.2152060  0.00   -0.0493841   -0.1162599    0.0021418
c    -0.2271621    3.4178132   -0.1119304  0.00   -0.0145185    0.0442394    0.0016784
c     1.0268759    2.8269969   -0.1533620  0.00    0.0086984    0.0403417    0.0000247
c     1.1214586    1.4406368   -0.1996491  0.00    0.0355527    0.0354924    0.0003757
n     0.2900487   -0.6640148   -0.3207897  0.00    0.0815177    0.0586288   -0.0074593
c     2.2236587    0.5759529   -0.2320269  0.00    2.3642176   -2.6956252   -2.4249283
c     1.6818120   -0.7501959   -0.2379807  0.00    2.0982896    0.2972060   -1.4463046
h    -0.3836098   -1.4366817   -0.4005252  0.00    0.0170612    0.0255743   -0.0005145
c     3.6892547    1.0339489   -0.2858438  0.00   -0.3173775   -0.8009273   -0.4737244
c     4.1666487    1.3798909   -1.7321150  0.00   -0.0729322   -0.0174578    0.0962124
h     4.3132278    0.2182524    0.1340092  0.00   -0.0491310   -0.0247136   -0.0445498
h     3.8212212    1.9147733    0.3687770  0.00   -0.0052131   -0.0057481   -0.0030316
c     4.0231633    0.0885898   -2.6025687  0.00    0.0475849   -0.0297634   -0.2266153
n     5.5881644    1.8656924   -1.7611112  0.00    0.0719985    0.0072601   -0.0340933
h     3.4956248    2.1471483   -2.1906050  0.00    0.0059665    0.0038623   -0.0052003
h     6.1677375    1.1513909   -2.2509348  0.00   -0.0248733   -0.0007869   -0.0018824
h     5.6063920    2.7016661   -2.3860326  0.00   -0.0108652   -0.0064140    0.0013534
h    -2.3475806    3.1184701   -0.0927747  0.00   -0.0009342    0.0003295    0.0001381
h    -2.1833775    0.6485427   -0.2039089  0.00   -0.0027486    0.0019866    0.0000855
h    -0.3097610    4.5016828   -0.0690899  0.00    0.0005645    0.0006356    0.0002743
h     1.9207383    3.4446647   -0.1403168  0.00    0.0004019    0.0017818    0.0005107
h     2.1724280   -1.7371472   -0.2400190  0.00    0.0427622    0.0586796   -0.0681906
o     4.0896868    0.0614783   -3.8866367  0.00   -0.0265072   -0.0053431    0.1744917
o     3.5557265   -0.9961814   -1.8920003  0.00   -0.0485837    0.0134430    0.1116770
h     3.0881908   -0.4688900   -1.1620704  0.00   -4.0678428    3.1108761    4.3448226
    27
 Energy =       1.3113999408
c    -1.3279224    2.6262584   -0.0931016  0.00   -0.0276402    0.0226380    0.0015818
c    -1.2558574    1.2470391   -0.1494292  0.00   -0.0507578   -0.0201836    0.0009351
c    -0.0064273    0.6650915   -0.1886430  0.00   -0.0461514   -0.1087229    0.0019178
c    -0.1778988    3.3918625   -0.0864673  0.00   -0.0136120    0.0414202    0.0015729
c     1.0691243    2.7891719   -0.1325766  0.00    0.0083338    0.0376953   -0.0000311
c     1.1503441    1.4028840   -0.1791202  0.00    0.0334178    0.0332757    0.0002415
n     0.3014904   -0.6862011   -0.2926286  0.00    0.0758301    0.0547422   -0.0068732
c     2.2467336    0.5297862   -0.2225228  0.00    2.2151496   -2.5283433   -2.2719111
c     1.6967071   -0.7678861   -0.2389521  0.00    1.9620517    0.2813879   -1.3518903
h    -0.3757833   -1.4588376   -0.3568142  0.00    0.0158115    0.0237712   -0.0004674
c     3.6930088    1.0117561   -0.2931948  0.00   -0.2982739   -0.7474822   -0.4410470
c     4.1084007    1.4127112   -1.7378632  0.00   -0.0673710   -0.0142352    0.0897116
h     4.3618854    0.2077000    0.0849654  0.00   -0.0448560   -0.0246076   -0.0411436
h     3.8249357    1.8772462    0.3831504  0.00   -0.0050335   -0.0050424   -0.0026622
c     3.9294644    0.1675384   -2.6649595  0.00    0.0439679   -0.0271319   -0.2106072
n     5.5308759    1.8909889   -1.7874050  0.00    0.0669537    0.0064410   -0.0298129
h     3.4268099    2.2053319   -2.1375542  0.00    0.0042300    0.0050474   -0.0054932
h     6.0959143    1.1940639   -2.3216792  0.00   -0.0221407   -0.0020859   -0.0028211
h     5.5382557    2.7520175   -2.3795558  0.00   -0.0103425   -0.0047641    0.0004325
h    -2.3003536    3.1131754   -0.0599272  0.00   -0.0009263    0.0003280    0.0001302
h    -2.1574087    0.6425181   -0.1695170  0.00   -0.0026046    0.0018278    0.0000779
h    -0.2499708    4.4765469   -0.0443256  0.00    0.0005224    0.0006529    0.0002588
h     1.9678801    3.3995350   -0.1249205  0.00    0.0005065    0.0016161    0.0004293
h     2.1806751   -1.7598205   -0.2394663  0.00    0.0405993    0.0547760   -0.0638079
o     4.0377220    0.2202314   -3.9547730  0.00   -0.0233858   -0.0042874    0.1583888
o     3.4771516   -0.9655433   -2.0145391  0.00   -0.0372657   -0.0022944    0.0846400
h     3.1174179   -0.5132298   -1.1658181  0.00   -3.8170129    2.9235613    4.0882502
    27
 Energy =       1.0755964780
c    -1.2460023    2.6228237   -0.0346455  0.00   -0.0215789    0.0171350    0.0011711
c    -1.2056540    1.2485205   -0.0926194  0.00   -0.0388507   -0.0157968    0.0006365
c     0.0231253    0.6422025   -0.1401658  0.00   -0.0350201   -0.0825753    0.0009579
c    -0.0797789    3.3559747   -0.0347633  0.00   -0.0106246    0.0318107    0.0011882
c     1.1467874    2.7221417   -0.0908560  0.00    0.0076831    0.0284715   -0.0002940
c     1.1917906    1.3377810   -0.1401755  0.00    0.0260586    0.0255519   -0.0004380
n     0.2942426   -0.7119769   -0.2497722  0.00    0.0559952    0.0407575   -0.0045524
c     2.2718975    0.4468644   -0.2091276  0.00    1.7444380   -2.0125883   -1.7841193
c     1.6981838   -0.7852037   -0.2600161  0.00    1.5322126    0.2434971   -1.0543863
h    -0.3936201   -1.4830920   -0.2853968  0.00    0.0114248    0.0175706   -0.0002096
c     3.6776276    0.9955326   -0.3287243  0.00   -0.2405183   -0.5743002   -0.3414564
c     4.0126025    1.4428257   -1.7782019  0.00   -0.0522059   -0.0093695    0.0671313
h     4.4172606    0.2349820    0.0135051  0.00   -0.0316912   -0.0205680   -0.0302038
h     3.8053901    1.8552440    0.3583893  0.00   -0.0049658   -0.0030333   -0.0023580
c     3.8468642    0.2242481   -2.7283419  0.00    0.0340502   -0.0185963   -0.1606655
n     5.4098893    1.9750082   -1.8440025  0.00    0.0515272    0.0042096   -0.0204257
h     3.2883405    2.2204291   -2.1309969  0.00    0.0018796    0.0054447   -0.0046061
h     6.0022491    1.3201056   -2.4064911  0.00   -0.0152200   -0.0029582   -0.0036138
h     5.3795026    2.8594028   -2.4040335  0.00   -0.0077780   -0.0014231   -0.0009387
h    -2.2062714    3.1332288    0.0048997  0.00   -0.0010690    0.0003947    0.0001073
h    -2.1196600    0.6626468   -0.1080690  0.00   -0.0021953    0.0011906    0.0000489
h    -0.1236924    4.4424664    0.0076742  0.00    0.0003461    0.0009188    0.0002133
h     2.0574428    3.3139460   -0.0938143  0.00    0.0014785    0.0006127    0.0002890
h     2.1638964   -1.7844046   -0.2355163  0.00    0.0308217    0.0413514   -0.0483784
o     3.9798869    0.3306809   -4.0364059  0.00   -0.0169574   -0.0022524    0.1183795
o     3.4493409   -0.9577865   -2.1216237  0.00   -0.0269405   -0.0102426    0.0548075
h     3.1615329   -0.5926554   -1.1983470  0.00   -2.9922999    2.2947870    3.2117157
    27
 Energy =       0.8638041578
c    -1.1791909    2.6208113    0.0799633  0.00   -0.0153052    0.0118357    0.0006613
c    -1.1625438    1.2527290    0.0082539  0.00   -0.0270664   -0.0109686    0.0002714
c     0.0475299    0.6266769   -0.0640352  0.00   -0.0246416   -0.0556244    0.0006818
c    -0.0033352    3.3288293    0.0672449  0.00   -0.0077290    0.0222185    0.0007034
c     1.2047164    2.6738827   -0.0169802  0.00    0.0058750    0.0195916   -0.0003672
c     1.2234983    1.2929748   -0.0809419  0.00    0.0170607    0.0181124   -0.0004982
n     0.2765810   -0.7340792   -0.2099185  0.00    0.0360956    0.0283097   -0.0026478
c     2.2911647    0.3988119   -0.2048252  0.00    1.2819000   -1.4860576   -1.3056173
c     1.6850608   -0.8195828   -0.2974462  0.00    1.1217496    0.1821236   -0.7735009
h    -0.4276692   -1.4967363   -0.2251445  0.00    0.0072600    0.0117494   -0.0000717
c     3.6860076    1.0040551   -0.3937466  0.00   -0.1747807   -0.4095058   -0.2480508
c     3.9422191    1.4587944   -1.8559369  0.00   -0.0382730   -0.0076433    0.0449193
h     4.4775422    0.2824530   -0.0793847  0.00   -0.0203613   -0.0149063   -0.0203690
h     3.8307972    1.8653391    0.2895198  0.00   -0.0039781   -0.0014783   -0.0015687
c     3.8021045    0.2373743   -2.7908148  0.00    0.0232944   -0.0118872   -0.1111196
n     5.3042084    2.0623514   -1.9495250  0.00    0.0374673    0.0027676   -0.0108466
h     3.1667098    2.1977951   -2.1829399  0.00   -0.0001821    0.0052033   -0.0040618
h     5.9250520    1.4563776   -2.5403731  0.00   -0.0081095   -0.0033237   -0.0042978
h     5.2207495    2.9642939   -2.4794404  0.00   -0.0053682    0.0020322   -0.0022899
h    -2.1294936    3.1479321    0.1388162  0.00   -0.0010935    0.0004395    0.0000791
h    -2.0861073    0.6820122   -0.0016022  0.00   -0.0016656    0.0006942    0.0000156
h    -0.0261188    4.4156893    0.1184291  0.00    0.0001640    0.0009104    0.0001626
h     2.1201931    3.2563288   -0.0388375  0.00    0.0019655   -0.0000600    0.0001990
h     2.1248292   -1.8318245   -0.3052812  0.00    0.0211577    0.0277087   -0.0334203
o     3.9308045    0.3473150   -4.1209336  0.00   -0.0117447   -0.0014861    0.0812640
o     3.4606366   -0.9665085   -2.1905912  0.00   -0.0190432   -0.0092615    0.0368620
h     3.1972286   -0.6521599   -1.2411665  0.00   -2.1946479    1.6785058    2.3529078
    27
 Energy =       0.7717028998
c    -1.1356558    2.6121607    0.2106377  0.00   -0.0128566    0.0099271    0.0004740
c    -1.1293430    1.2479673    0.1177288  0.00   -0.0225220   -0.0087963    0.0001642
c     0.0716628    0.6144529    0.0099333  0.00   -0.0209364   -0.0442653    0.0008392
c     0.0429763    3.3101426    0.1812938  0.00   -0.0068057    0.0185120    0.0005383
c     1.2417238    2.6484590    0.0583028  0.00    0.0049846    0.0159971   -0.0003299
c     1.2509024    1.2689285   -0.0264971  0.00    0.0128594    0.0153531   -0.0002822
n     0.2770060   -0.7453950   -0.1827536  0.00    0.0279727    0.0231552   -0.0020214
c     2.3120280    0.3765104   -0.2108851  0.00    1.0698496   -1.2416356   -1.0869718
c     1.6824196   -0.8381504   -0.3365637  0.00    0.9350131    0.1510590   -0.6452212
h    -0.4353034   -1.5028842   -0.1882274  0.00    0.0057543    0.0095231   -0.0000594
c     3.6962162    1.0202724   -0.4620718  0.00   -0.1434627   -0.3364233   -0.2053334
c     3.8883452    1.4672710   -1.9356995  0.00   -0.0327481   -0.0069944    0.0359248
h     4.5211069    0.3255844   -0.1703580  0.00   -0.0155964   -0.0124027   -0.0160905
h     3.8602613    1.8852941    0.2119495  0.00   -0.0032189   -0.0009688   -0.0009883
c     3.7757276    0.2306163   -2.8487576  0.00    0.0182971   -0.0092646   -0.0908564
n     5.2186953    2.1298701   -2.0646678  0.00    0.0328289    0.0022985   -0.0069465
h     3.0709976    2.1678208   -2.2469189  0.00   -0.0013590    0.0052366   -0.0040177
h     5.8520570    1.5597722   -2.6792592  0.00   -0.0051441   -0.0031537   -0.0044181
h     5.0838437    3.0360512   -2.5787446  0.00   -0.0045361    0.0037945   -0.0030524
h    -2.0808460    3.1450421    0.2975693  0.00   -0.0012748    0.0005868    0.0000905
h    -2.0569607    0.6838792    0.1157801  0.00   -0.0014457    0.0005628    0.0000092
h     0.0291985    4.3964278    0.2470992  0.00    0.0000369    0.0009041    0.0001534
h     2.1552105    3.2316184    0.0159746  0.00    0.0020626   -0.0001327    0.0000599
h     2.0974474   -1.8619362   -0.3986285  0.00    0.0176190    0.0203783   -0.0269718
o     3.9130037    0.3219477   -4.1883491  0.00   -0.0094560   -0.0015487    0.0661213
o     3.4755985   -0.9789174   -2.2365503  0.00   -0.0158675   -0.0086425    0.0302213
h     3.2248555   -0.6808698   -1.2789751  0.00   -1.8300480    1.3969404    1.9589650
    27
 Energy =       0.7179219753
c    -1.1002174    2.5985479    0.3388438  0.00   -0.0115469    0.0089215    0.0003951
c    -1.0995018    1.2377294    0.2237535  0.00   -0.0200642   -0.0074350    0.0001475
c     0.0952110    0.6022393    0.0773862  0.00   -0.0189083   -0.0376639    0.0010140
c     0.0783612    3.2923516    0.2913245  0.00   -0.0064393    0.0164931    0.0004864
c     1.2704420    2.6296635    0.1271641  0.00    0.0045290    0.0138910   -0.0003107
c     1.2752850    1.2513010    0.0202684  0.00    0.0102885    0.0138123   -0.0000583
n     0.2835349   -0.7535898   -0.1593852  0.00    0.0230574    0.0202284   -0.0015853
c     2.3302061    0.3633602   -0.2229097  0.00    0.9417107   -1.0937631   -0.9550741
c     1.6825382   -0.8473476   -0.3754739  0.00    0.8230469    0.1323702   -0.5678520
h    -0.4328376   -1.5085398   -0.1560088  0.00    0.0049013    0.0082550   -0.0000508
c     3.7004710    1.0383110   -0.5293476  0.00   -0.1244246   -0.2931197   -0.1797087
c     3.8399629    1.4736037   -2.0114488  0.00   -0.0296932   -0.0067331    0.0310416
h     4.5509562    0.3661569   -0.2564389  0.00   -0.0128461   -0.0109209   -0.0136007
h     3.8816246    1.9078159    0.1337941  0.00   -0.0025994   -0.0007455   -0.0005754
c     3.7620881    0.2203308   -2.9030538  0.00    0.0149780   -0.0079173   -0.0781802
n     5.1382311    2.1907563   -2.1705647  0.00    0.0306445    0.0021985   -0.0046344
h     2.9862944    2.1352334   -2.3121218  0.00   -0.0022883    0.0053671   -0.0040328
h     5.7821596    1.6516881   -2.8029629  0.00   -0.0033972   -0.0029916   -0.0044936
h     4.9559776    3.0954897   -2.6740279  0.00   -0.0041569    0.0050328   -0.0035894
h    -2.0417072    3.1327322    0.4563225  0.00   -0.0015339    0.0007681    0.0001257
h    -2.0288397    0.6765591    0.2319044  0.00   -0.0013532    0.0005113    0.0000137
h     0.0693249    4.3776829    0.3731387  0.00   -0.0000771    0.0009403    0.0001608
h     2.1793656    3.2170183    0.0654967  0.00    0.0020769   -0.0000736   -0.0000849
h     2.0738069   -1.8782932   -0.4936875  0.00    0.0158483    0.0155323   -0.0232736
o     3.9339102    0.2877885   -4.2457957  0.00   -0.0079096   -0.0018358    0.0565188
o     3.4900832   -0.9893044   -2.2773074  0.00   -0.0139894   -0.0082289    0.0262514
h     3.2464435   -0.6973489   -1.3165005  0.00   -1.6098539    1.2271066    1.7209500
    27
 Energy =       0.6805773039
c    -1.0701517    2.5804092    0.4654983  0.00   -0.0107194    0.0082723    0.0003670
c    -1.0722922    1.2229428    0.3279500  0.00   -0.0184839   -0.0064076    0.0001793
c     0.1171440    0.5892731    0.1410488  0.00   -0.0175368   -0.0330830    0.0011984
c     0.1062988    3.2737356    0.3987013  0.00   -0.0063034    0.0151766    0.0004918
c     1.2926441    2.6139144    0.1918708  0.00    0.0042808    0.0123935   -0.0003183
c     1.2959810    1.2369670    0.0619925  0.00    0.0084195    0.0127509    0.0001672
n     0.2917751   -0.7607661   -0.1371588  0.00    0.0193798    0.0182842   -0.0011709
c     2.3440216    0.3561780   -0.2393174  0.00    0.8502839   -0.9882577   -0.8609703
c     1.6817095   -0.8505693   -0.4143830  0.00    0.7436717    0.1192669   -0.5127486
h    -0.4260746   -1.5151402   -0.1244785  0.00    0.0042927    0.0073680   -0.0000390
c     3.6975248    1.0590865   -0.5976192  0.00   -0.1106238   -0.2625597   -0.1616510
c     3.7944332    1.4779155   -2.0868949  0.00   -0.0278814   -0.0067612    0.0283180
h     4.5690758    0.4080071   -0.3386559  0.00   -0.0109785   -0.0098648   -0.0118943
h     3.8932068    1.9348621    0.0520573  0.00   -0.0019875   -0.0006447   -0.0002603
c     3.7667144    0.2059984   -2.9548448  0.00    0.0116590   -0.0073241   -0.0661024
n     5.0561586    2.2534045   -2.2687730  0.00    0.0297587    0.0025153   -0.0027271
h     2.9057730    2.0946236   -2.3844069  0.00   -0.0033372    0.0056543   -0.0041299
h     5.7153806    1.7457904   -2.9122573  0.00   -0.0020253   -0.0029518   -0.0046737
h     4.8262998    3.1517352   -2.7656832  0.00   -0.0040322    0.0062337   -0.0041030
h    -2.0084438    3.1128895    0.6150756  0.00   -0.0018410    0.0009677    0.0001820
h    -2.0017068    0.6621649    0.3479602  0.00   -0.0013296    0.0004886    0.0000257
h     0.0995890    4.3577853    0.4973486  0.00   -0.0001878    0.0010020    0.0001787
h     2.1951442    3.2077688    0.1119553  0.00    0.0020310    0.0000594   -0.0002268
h     2.0486461   -1.8847337   -0.5909313  0.00    0.0148313    0.0116618   -0.0208020
o     4.0162853    0.2427984   -4.2927867  0.00   -0.0060395   -0.0024128    0.0464118
o     3.5061171   -0.9989604   -2.3153124  0.00   -0.0125997   -0.0078357    0.0232685
h     3.2619209   -0.7061444   -1.3555935  0.00   -1.4527017    1.1060080    1.5510291
    27
 Energy =       0.6716836628
c    -1.0650157    2.5699551    0.5221710  0.00   -0.0104859    0.0080556    0.0003628
c    -1.0661031    1.2138382    0.3760999  0.00   -0.0180419   -0.0061506    0.0001911
c     0.1218009    0.5834521    0.1703747  0.00   -0.0171323   -0.0319831    0.0012193
c     0.1088538    3.2656442    0.4447266  0.00   -0.0062143    0.0147972    0.0004929
c     1.2934225    2.6096475    0.2181160  0.00    0.0042136    0.0119917   -0.0003338
c     1.2985763    1.2332346    0.0792605  0.00    0.0080067    0.0124371    0.0002025
n     0.2924665   -0.7634250   -0.1243764  0.00    0.0184367    0.0178356   -0.0010537
c     2.3437824    0.3575331   -0.2485142  0.00    0.8249324   -0.9589639   -0.8350747
c     1.6766761   -0.8484622   -0.4313304  0.00    0.7218092    0.1157682   -0.4975476
h    -0.4243561   -1.5189218   -0.1055792  0.00    0.0041264    0.0071273   -0.0000329
c     3.6874028    1.0738903   -0.6329442  0.00   -0.1067789   -0.2543289   -0.1567338
c     3.7757107    1.4755744   -2.1271789  0.00   -0.0279023   -0.0069018    0.0285614
h     4.5665260    0.4338533   -0.3723381  0.00   -0.0105690   -0.0095987   -0.0114919
h     3.8867446    1.9565261    0.0055824  0.00   -0.0018029   -0.0005900   -0.0001937
c     3.8029525    0.1877091   -2.9740649  0.00    0.0085091   -0.0073648   -0.0557155
n     5.0100635    2.2947479   -2.3102273  0.00    0.0300278    0.0031805   -0.0015955
h     2.8662773    2.0555581   -2.4374958  0.00   -0.0040306    0.0059271   -0.0042705
h     5.6937780    1.8044924   -2.9421584  0.00   -0.0013762   -0.0033348   -0.0050320
h     4.7519960    3.1797501   -2.8178434  0.00   -0.0041914    0.0068218   -0.0043430
h    -2.0024299    3.0996889    0.6866777  0.00   -0.0018915    0.0009939    0.0001942
h    -1.9942941    0.6513144    0.4033094  0.00   -0.0013284    0.0004777    0.0000303
h     0.1012529    4.3490913    0.5499200  0.00   -0.0002036    0.0009965    0.0001805
h     2.1913869    3.2084281    0.1289679  0.00    0.0020106    0.0001045   -0.0002671
h     2.0316683   -1.8821874   -0.6374854  0.00    0.0145807    0.0107647   -0.0201842
o     4.1750384    0.1921849   -4.2913039  0.00   -0.0030400   -0.0028132    0.0351135
o     3.5183985   -1.0072877   -2.3261057  0.00   -0.0122571   -0.0079368    0.0226998
h     3.2605988   -0.7038939   -1.3738980  0.00   -1.4094070    1.0726872    1.5046217
    27
 Energy =       0.6548344100
c    -1.0429072    2.5628970    0.5588063  0.00   -0.0100377    0.0077489    0.0003496
c    -1.0473323    1.2083397    0.4023078  0.00   -0.0172721   -0.0058688    0.0001864
c     0.1375278    0.5775305    0.1836069  0.00   -0.0163675   -0.0305063    0.0011874
c     0.1314119    3.2568182    0.4789580  0.00   -0.0059922    0.0141818    0.0004776
c     1.3127986    2.6005621    0.2392956  0.00    0.0040451    0.0114715   -0.0003190
c     1.3144811    1.2254687    0.0891434  0.00    0.0076103    0.0118817    0.0002050
n     0.3023669   -0.7672204   -0.1243340  0.00    0.0175769    0.0169799   -0.0010086
c     2.3554293    0.3514469   -0.2548365  0.00    0.7888702   -0.9170603   -0.7986063
c     1.6839823   -0.8515949   -0.4438496  0.00    0.6900759    0.1107388   -0.4756820
h    -0.4156591   -1.5218880   -0.1059184  0.00    0.0039396    0.0068036   -0.0000331
c     3.6960360    1.0712156   -0.6445248  0.00   -0.1020174   -0.2429635   -0.1495733
c     3.7625382    1.4831419   -2.1366983  0.00   -0.0270219   -0.0065423    0.0275589
h     4.5808454    0.4329466   -0.3979182  0.00   -0.0099952   -0.0092273   -0.0109402
h     3.9017080    1.9496420   -0.0024076  0.00   -0.0017056   -0.0005515   -0.0001545
c     3.7558753    0.2047510   -2.9966981  0.00    0.0070089   -0.0070013   -0.0464711