    13
 Energy =       0.0986042871
c    -3.7133889    1.6950595    0.3173519  0.00   -0.0867366    0.0295025    0.0945966
c    -2.4962693    2.6345192    0.2419999  0.00    0.2089719    0.1334771   -0.3224768
c    -4.9565486    2.3924193   -0.2155699  0.00    0.0115075    0.0200399    0.0096424
h    -5.8072983    1.7014095   -0.2223689  0.00    0.0088069    0.0138657   -0.0000871
h    -4.8071186    2.7393792   -1.2437896  0.00   -0.0070948   -0.0025487    0.0176142
h    -5.2375685    3.2516891    0.4029209  0.00   -0.0011495   -0.0130002   -0.0115405
n    -3.4097890    0.4519539   -0.4549189  0.00    0.0807281   -0.0536632   -0.0126259
h    -3.8575589    1.4177196    1.3669296  0.00    0.0096948   -0.0066281   -0.0274245
h    -2.5963493    0.6418898   -1.0496997  0.00   -0.0239217    0.0173242    0.0444452
h    -3.0749291   -0.2623099    0.1989099  0.00   -0.0108258    0.0302665   -0.0227147
o    -1.9513094    3.0041591   -0.7839488  0.00   -0.1301511   -0.1031586    0.2454426
o    -2.1005994    3.0267291    1.4825496  0.00   -0.0445010   -0.0274163   -0.0059852
h    -2.2705794    4.0015489    1.5135996  0.00   -0.0153286   -0.0380608   -0.0088864
    13
 Energy =       0.0679318739
c    -3.7063411    1.7028049    0.3281494  0.00   -0.0308956    0.0115097    0.0348446
c    -2.4687789    2.5983995    0.3179536  0.00    0.0755105    0.0540894   -0.1197600
c    -4.9095785    2.4264858   -0.2771888  0.00    0.0032325    0.0082157    0.0061011
h    -5.7712593    1.7343529   -0.3606997  0.00    0.0010000    0.0036572   -0.0009778
h    -4.6663891    2.7854006   -1.2996554  0.00   -0.0010899    0.0004036    0.0030320
h    -5.2141704    3.2885975    0.3437821  0.00   -0.0008928   -0.0048904   -0.0038753
n    -3.4713498    0.4561503   -0.4354625  0.00    0.0254594   -0.0115827   -0.0090955
h    -3.9129342    1.4572406    1.3909332  0.00    0.0041705   -0.0024601   -0.0083809
h    -2.6383850    0.5716629   -1.0534295  0.00   -0.0044944    0.0081833    0.0155741
h    -3.2336822   -0.3180478    0.2245282  0.00   -0.0032197    0.0028373   -0.0027717
o    -1.8894965    2.9781549   -0.8111844  0.00   -0.0503982   -0.0406396    0.0909350
o    -1.9994138    3.0340400    1.5350283  0.00    0.0125644   -0.0601857   -0.0016325
h    -2.3975281    3.9809244    1.6512111  0.00   -0.0309467    0.0308624   -0.0039929
    13
 Energy =       0.0658932871
c    -3.7276349    1.7138542    0.3243650  0.00   -0.0263141    0.0096459    0.0290070
c    -2.4515877    2.5556525    0.3260768  0.00    0.0631373    0.0455298   -0.1024092
c    -4.8937501    2.4878684   -0.2944196  0.00    0.0037527    0.0064234    0.0047921
h    -5.8001638    1.8459027   -0.3377280  0.00   -0.0015271    0.0012883   -0.0005637
h    -4.6386872    2.7885795   -1.3348949  0.00    0.0000497    0.0007899    0.0009593
h    -5.1333866    3.3971112    0.2944278  0.00   -0.0017440   -0.0010808   -0.0016345
n    -3.5466208    0.4554795   -0.4343627  0.00    0.0169585   -0.0072748   -0.0091425
h    -3.9563130    1.4843464    1.3877196  0.00    0.0031475   -0.0023717   -0.0066811
h    -2.6811314    0.5123010   -1.0213119  0.00   -0.0000236    0.0073493    0.0107695
h    -3.3924354   -0.3396367    0.2319125  0.00   -0.0017539   -0.0025445    0.0010811
o    -1.8600639    2.9350545   -0.8087791  0.00   -0.0420108   -0.0341746    0.0765050
o    -1.9402151    2.9425815    1.5466709  0.00    0.0146060   -0.0549650   -0.0001247
h    -2.2573169    3.9170717    1.6742892  0.00   -0.0282781    0.0313848   -0.0025582
    13
 Energy =       0.0662272968
c    -3.7321458    1.7168151    0.3140518  0.00   -0.0242946    0.0105201    0.0288432
c    -2.4233560    2.5097675    0.3164834  0.00    0.0605497    0.0436120   -0.0984284
c    -4.8810350    2.5534373   -0.2592291  0.00    0.0028373    0.0064877    0.0033321
h    -5.8129269    1.9474454   -0.3030522  0.00   -0.0023026    0.0007800   -0.0007738
h    -4.6348944    2.8734859   -1.2963972  0.00   -0.0001193    0.0008280    0.0006044
h    -5.0732103    3.4551575    0.3604295  0.00   -0.0019290    0.0002817   -0.0007328
n    -3.6162835    0.4735161   -0.4849670  0.00    0.0122415   -0.0044916   -0.0131743
h    -3.9471296    1.4666877    1.3763509  0.00    0.0030596   -0.0019832   -0.0058109
h    -2.7241782    0.4840492   -1.0374533  0.00    0.0029386    0.0076715    0.0087884
h    -3.5511885   -0.3598477    0.1562563  0.00   -0.0009923   -0.0093076    0.0053716
o    -1.8339140    2.8935269   -0.8207619  0.00   -0.0400723   -0.0325866    0.0729725
o    -1.8779863    2.8525861    1.5375562  0.00    0.0154206   -0.0528936    0.0012863
h    -2.1710584    3.8295394    1.6946980  0.00   -0.0273371    0.0310815   -0.0022784
    13
 Energy =       0.0639096853
c    -3.7295844    1.7080612    0.3289395  0.00   -0.0214119    0.0105962    0.0268723
c    -2.4561029    2.5565077    0.3356688  0.00    0.0544017    0.0396959   -0.0915807
c    -4.9007985    2.4805927   -0.2915391  0.00    0.0017662    0.0062742    0.0018243
h    -5.8086974    1.8374407   -0.3276963  0.00   -0.0029128    0.0001647   -0.0009445
h    -4.6508849    2.7740909   -1.3359094  0.00   -0.0003174    0.0008923    0.0000874
h    -5.1365147    3.3963540    0.2944982  0.00   -0.0020475    0.0016050    0.0000946
n    -3.5502026    0.4466765   -0.4314170  0.00    0.0062249   -0.0022000   -0.0159378
h    -3.9582332    1.4808351    1.3942353  0.00    0.0028027   -0.0015355   -0.0047103
h    -2.6842177    0.5088782   -1.0251084  0.00    0.0062195    0.0080748    0.0059771
h    -3.3924354   -0.3586924    0.2357637  0.00    0.0003556   -0.0151563    0.0094353
o    -1.8411852    2.9058895   -0.8056026  0.00   -0.0365681   -0.0300588    0.0651478
o    -1.9597475    2.9789733    1.5560293  0.00    0.0187648   -0.0546100    0.0054942
h    -2.2107024    3.9805590    1.6261036  0.00   -0.0272775    0.0362574   -0.0017597
    13
 Energy =       0.0617977962
c    -3.7240731    1.7056672    0.3390783  0.00   -0.0183079    0.0097172    0.0242535
c    -2.4910704    2.6123670    0.3484713  0.00    0.0454943    0.0349464   -0.0797091
c    -4.9142907    2.4066477   -0.3317395  0.00    0.0005018    0.0056805    0.0001933
h    -5.7962072    1.7268053   -0.3559603  0.00   -0.0033508   -0.0004991   -0.0010838
h    -4.6580527    2.6672619   -1.3837624  0.00   -0.0005187    0.0009382   -0.0006024
h    -5.1943323    3.3366937    0.2141000  0.00   -0.0021598    0.0029893    0.0009301
n    -3.4782330    0.4274596   -0.3764658  0.00    0.0045557   -0.0041247   -0.0159497
h    -3.9678053    1.5055522    1.4075400  0.00    0.0025286   -0.0012169   -0.0034523
h    -2.5906661    0.4920002   -0.9382768  0.00    0.0064677    0.0061250    0.0043002
h    -3.3266349   -0.3533497    0.3194227  0.00    0.0006805   -0.0140653    0.0088475
o    -1.8308565    2.9084783   -0.7924135  0.00   -0.0309999   -0.0266277    0.0528558
o    -2.0553923    3.1212709    1.5633298  0.00    0.0211752   -0.0546167    0.0114945
h    -2.2516923    4.1393121    1.5406418  0.00   -0.0260668    0.0407536   -0.0020776
    13
 Energy =       0.0602796150
c    -3.7368658    1.7069584    0.3547540  0.00   -0.0167332    0.0090268    0.0233697
c    -2.4733645    2.5719731    0.3364430  0.00    0.0414010    0.0319348   -0.0711428
c    -4.9149665    2.4392091   -0.3040074  0.00    0.0005931    0.0051383   -0.0000550
h    -5.8169176    1.7849255   -0.3103015  0.00   -0.0035800   -0.0008145   -0.0009978
h    -4.6668187    2.6858006   -1.3613000  0.00   -0.0003714    0.0008207   -0.0006920
h    -5.1594666    3.3803121    0.2405099  0.00   -0.0021452    0.0032459    0.0011510
n    -3.5461501    0.4151123   -0.3510151  0.00   -0.0121897    0.0001723   -0.0138460
h    -3.9726396    1.5240430    1.4284936  0.00    0.0020168   -0.0010845   -0.0029247
h    -2.7407812    0.4938404   -1.0395733  0.00    0.0191882    0.0072316   -0.0085320
h    -3.2737367   -0.3363533    0.3499878  0.00    0.0031088   -0.0201292    0.0177213
o    -1.8248735    2.8372540   -0.8240973  0.00   -0.0273575   -0.0236910    0.0467473
o    -2.0005728    3.0849694    1.5358876  0.00    0.0198663   -0.0503064    0.0108336
h    -2.1521530    4.1081219    1.4981842  0.00   -0.0237971    0.0384553   -0.0016326
    13
 Energy =       0.0585404245
c    -3.7407356    1.7156508    0.3775198  0.00   -0.0140953    0.0082414    0.0192020
c    -2.4672070    2.5640271    0.3046755  0.00    0.0285956    0.0256289   -0.0528326
c    -4.9203981    2.4372616   -0.2869021  0.00    0.0010132    0.0038393    0.0003506
h    -5.8299207    1.7939845   -0.2506415  0.00   -0.0035612   -0.0013025   -0.0007463
h    -4.6889074    2.6402239   -1.3580445  0.00   -0.0000340    0.0008619   -0.0016347
h    -5.1421200    3.4009770    0.2274568  0.00   -0.0018217    0.0033766    0.0014128
n    -3.5852100    0.3954715   -0.2818911  0.00   -0.0118986   -0.0016745   -0.0117802
h    -3.9602022    1.5782695    1.4631666  0.00    0.0013064   -0.0009799   -0.0011875
h    -2.8113474    0.4405804   -1.0067669  0.00    0.0173532    0.0061696   -0.0086693
h    -3.2870134   -0.3274316    0.4347862  0.00    0.0025403   -0.0170038    0.0153182
o    -1.7888037    2.7104110   -0.8750040  0.00   -0.0174917   -0.0194473    0.0284801
o    -1.9916297    3.1606005    1.4661797  0.00    0.0185411   -0.0496675    0.0139788
h    -2.0658115    4.1861402    1.3394311  0.00   -0.0204475    0.0419577   -0.0018919
    13
 Energy =       0.0595869496
c    -3.7322235    1.7296456    0.3981388  0.00   -0.0155538    0.0092544    0.0192266
c    -2.4413725    2.5460657    0.2299303  0.00    0.0261016    0.0246214   -0.0497063
c    -4.9289756    2.4558057   -0.2305348  0.00    0.0012832    0.0032650    0.0007327
h    -5.8486080    1.8302667   -0.1359609  0.00   -0.0050411   -0.0021782   -0.0006462
h    -4.7431704    2.6255912   -1.3178051  0.00    0.0002919    0.0009250   -0.0032300
h    -5.1092751    3.4369503    0.2686321  0.00   -0.0018361    0.0041364    0.0020822
n    -3.6425459    0.3831440   -0.2244521  0.00   -0.0138943   -0.0047865   -0.0117009
h    -3.8982418    1.6352780    1.5000649  0.00    0.0006770   -0.0007101    0.0012457
h    -2.8899653    0.3784164   -0.9741605  0.00    0.0187162    0.0055696   -0.0106272
h    -3.3468071   -0.3286966    0.5037154  0.00    0.0025235   -0.0167358    0.0149893
o    -1.8005912    2.6002869   -0.9842904  0.00   -0.0136092   -0.0184409    0.0214043
o    -1.9037588    3.1919428    1.3400098  0.00    0.0202164   -0.0466653    0.0184054
h    -1.9937715    4.2114696    1.1806780  0.00   -0.0198754    0.0417450   -0.0021755
    13
 Energy =       0.0584570940
c    -3.7619921    1.7233794    0.3833213  0.00   -0.0149142    0.0058553    0.0173655
c    -2.4409938    2.5119872    0.3314584  0.00    0.0214629    0.0223651   -0.0426260
c    -4.8969034    2.4909648   -0.3140025  0.00   -0.0003600    0.0044468    0.0006418
h    -5.8390025    1.8892269   -0.2844728  0.00   -0.0068487   -0.0031257   -0.0004898
h    -4.6374435    2.6704005   -1.3867091  0.00    0.0006859    0.0014396   -0.0056255
h    -5.0822777    3.4697200    0.1871515  0.00   -0.0016915    0.0037770    0.0019589
n    -3.6589822    0.3902988   -0.2614427  0.00   -0.0142398   -0.0040969   -0.0109193
h    -4.0118749    1.6060498    1.4704810  0.00   -0.0002258   -0.0013333    0.0047415
h    -2.9238379    0.4147843   -1.0271209  0.00    0.0172959    0.0044334   -0.0107058
h    -3.3292844   -0.3225995    0.4500938  0.00    0.0027007   -0.0159119    0.0141777
o    -1.6914278    2.5665924   -0.8268782  0.00   -0.0063445   -0.0155204    0.0118019
o    -1.9795176    3.1320940    1.4931207  0.00    0.0208952   -0.0412743    0.0225748
h    -2.0257690    4.1532677    1.3389652  0.00   -0.0184162    0.0389454   -0.0028958
    13
 Energy =       0.0601751536
c    -3.7786342    1.7310949    0.3781221  0.00   -0.0150993    0.0046647    0.0184846
c    -2.4167433    2.4532175    0.3674681  0.00    0.0158559    0.0219235   -0.0333186
c    -4.8581514    2.5544794   -0.3469305  0.00   -0.0009086    0.0057994   -0.0000027
h    -5.8279762    1.9952459   -0.3430084  0.00   -0.0078636   -0.0037023   -0.0003759
h    -4.5634846    2.7253041   -1.4121368  0.00    0.0008192    0.0016710   -0.0059516
h    -5.0122863    3.5392812    0.1533391  0.00   -0.0017809    0.0041222    0.0018709
n    -3.7230472    0.3947711   -0.2655100  0.00   -0.0140211   -0.0053786   -0.0100315
h    -4.0638728    1.6215896    1.4576816  0.00   -0.0005050   -0.0017998    0.0050527
h    -3.0086213    0.4034382   -1.0504403  0.00    0.0167237    0.0036832   -0.0108925
h    -3.3849532   -0.3207342    0.4386383  0.00    0.0026450   -0.0150231    0.0135365
o    -1.5878673    2.4078393   -0.7454267  0.00    0.0018552   -0.0138628    0.0024945
o    -1.9814083    3.0854812    1.5325423  0.00    0.0193896   -0.0407005    0.0222198
h    -2.0722607    4.1051582    1.3896269  0.00   -0.0171101    0.0386030   -0.0030863
    13
 Energy =       0.0622376179
c    -3.7882837    1.7404919    0.3731305  0.00   -0.0152347    0.0040170    0.0193950
c    -2.3900424    2.3934445    0.3909569  0.00    0.0114222    0.0221795   -0.0261801
c    -4.8162589    2.6165577   -0.3676106  0.00   -0.0011668    0.0067312   -0.0006382
h    -5.8102326    2.0997343   -0.3829080  0.00   -0.0085705   -0.0040706   -0.0003202
h    -4.4959854    2.7788020   -1.4266663  0.00    0.0008773    0.0017784   -0.0059339
h    -4.9362356    3.6051543    0.1348704  0.00   -0.0018062    0.0044746    0.0018416
n    -3.7863207    0.4033586   -0.2713183  0.00   -0.0138290   -0.0067381   -0.0092575
h    -4.0974927    1.6405017    1.4469302  0.00   -0.0006959   -0.0020553    0.0050109
h    -3.0940562    0.3952988   -1.0754370  0.00    0.0160588    0.0029333   -0.0110403
h    -3.4427279   -0.3182915    0.4229806  0.00    0.0025962   -0.0140971    0.0128144
o    -1.5102408    2.2490861   -0.6806757  0.00    0.0082670   -0.0127837   -0.0039354
o    -1.9637249    3.0388475    1.5518674  0.00    0.0190687   -0.0462926    0.0226427
h    -2.1477050    4.0531805    1.4378453  0.00   -0.0169871    0.0439236   -0.0043989
    13
 Energy =       0.0610824595
c    -3.7811022    1.7302293    0.3781932  0.00   -0.0175413    0.0039890    0.0232214
c    -2.4147109    2.4544763    0.3699024  0.00    0.0098748    0.0255968   -0.0241383
c    -4.8616464    2.5560722   -0.3507968  0.00   -0.0016303    0.0084916   -0.0013326
h    -5.8341276    1.9960543   -0.3479180  0.00   -0.0104259   -0.0050638   -0.0002986
h    -4.5645743    2.7271185   -1.4160797  0.00    0.0010223    0.0021261   -0.0067526
h    -5.0163231    3.5428505    0.1481314  0.00   -0.0021213    0.0054715    0.0021025
n    -3.7243193    0.3905714   -0.2636817  0.00   -0.0156198   -0.0090045   -0.0100376
h    -4.0694465    1.6202695    1.4576037  0.00   -0.0009238   -0.0025665    0.0056674
h    -3.0083561    0.3971902   -1.0489485  0.00    0.0178903    0.0026873   -0.0127730
h    -3.3855990   -0.3228058    0.4429234  0.00    0.0029588   -0.0153563    0.0140843
o    -1.5696904    2.4078393   -0.7433714  0.00    0.0144526   -0.0131185   -0.0101193
o    -1.9853943    3.0824541    1.5398487  0.00    0.0207821   -0.0612802    0.0276823
h    -2.0640165    4.1138466    1.3881588  0.00   -0.0187183    0.0580274   -0.0073060
    13
 Energy =       0.0574462281
c    -3.7774885    1.7183265    0.3836645  0.00   -0.0160109    0.0036565    0.0216583
c    -2.4472061    2.5020036    0.3704047  0.00    0.0040966    0.0221863   -0.0144285
c    -4.8909921    2.4971666   -0.3458965  0.00   -0.0016392    0.0080391   -0.0016482
h    -5.8429672    1.9047479   -0.3331821  0.00   -0.0097159   -0.0047288   -0.0002821
h    -4.6046541    2.6700168   -1.4130401  0.00    0.0009118    0.0019114   -0.0059200
h    -5.0760887    3.4826050    0.1449518  0.00   -0.0019033    0.0052200    0.0019615
n    -3.6660344    0.3815011   -0.2546391  0.00   -0.0141558   -0.0091025   -0.0090756
h    -4.0605665    1.6010839    1.4630483  0.00   -0.0009138   -0.0022710    0.0049494
h    -2.9502517    0.4130279   -1.0377756  0.00    0.0159215    0.0021006   -0.0114506
h    -3.3039094   -0.3167964    0.4534209  0.00    0.0027776   -0.0138875    0.0124660
o    -1.6450569    2.5665924   -0.7776583  0.00    0.0186135   -0.0098870   -0.0159163
o    -2.0249193    3.1232954    1.5447162  0.00    0.0181931   -0.0647980    0.0270140
h    -1.9891719    4.1525957    1.3559508  0.00   -0.0161750    0.0615610   -0.0093280
    13
 Energy =       0.0523889756
c    -3.7744995    1.7066471    0.3884237  0.00   -0.0125606    0.0031443    0.0175682
c    -2.4888049    2.5532351    0.3801419  0.00   -0.0005248    0.0156454   -0.0048152
c    -4.9175861    2.4297907   -0.3483305  0.00   -0.0014630    0.0065819   -0.0018721
h    -5.8441235    1.8019389   -0.3285140  0.00   -0.0079839   -0.0038768   -0.0002577
h    -4.6377724    2.6027420   -1.4156550  0.00    0.0006859    0.0014557   -0.0043869
h    -5.1398409    3.4124576    0.1312841  0.00   -0.0014973    0.0045395    0.0016861
n    -3.5982265    0.3765059   -0.2437306  0.00   -0.0123033   -0.0075702   -0.0077622
h    -4.0588207    1.5814557    1.4653495  0.00   -0.0008367   -0.0015998    0.0036972
h    -2.9006084    0.4429588   -1.0380442  0.00    0.0127950    0.0015585   -0.0092970
h    -3.1868561   -0.2958094    0.4603116  0.00    0.0028709   -0.0121883    0.0104872
o    -1.7327906    2.7253455   -0.7894126  0.00    0.0190199   -0.0049679   -0.0179667
o    -2.0842775    3.1756871    1.5575957  0.00    0.0122398   -0.0624835    0.0243003
h    -1.9150999    4.1832113    1.3345460  0.00   -0.0104418    0.0597611   -0.0113813
    13
 Energy =       0.0470090496
c    -3.7720041    1.6980439    0.3922656  0.00   -0.0082299    0.0027830    0.0124710
c    -2.5399715    2.6125383    0.3941433  0.00   -0.0015932    0.0092338    0.0005962
c    -4.9436866    2.3521949   -0.3591767  0.00   -0.0011902    0.0046551   -0.0021836
h    -5.8369895    1.6814603   -0.3352626  0.00   -0.0060544   -0.0029796   -0.0002373
h    -4.6664704    2.5252771   -1.4253825  0.00    0.0004171    0.0009080   -0.0026763
h    -5.2150270    3.3289277    0.1059641  0.00   -0.0011537    0.0039283    0.0014571
n    -3.5177091    0.3778788   -0.2276789  0.00   -0.0122972   -0.0046764   -0.0070537
h    -4.0618103    1.5649152    1.4653540  0.00   -0.0007486   -0.0007938    0.0023450
h    -2.8597344    0.4869633   -1.0482861  0.00    0.0100371    0.0015698   -0.0078228
h    -3.0281029   -0.2497080    0.4675755  0.00    0.0044243   -0.0119514    0.0100855
o    -1.8273248    2.8738270   -0.7837465  0.00    0.0151616   -0.0007593   -0.0148748
o    -2.1608282    3.2400304    1.5752620  0.00    0.0041774   -0.0538312    0.0202964
h    -1.8496478    4.2038173    1.3329344  0.00   -0.0029503    0.0519136   -0.0124026
    13
 Energy =       0.0428168771
c    -3.7706026    1.6948055    0.3946314  0.00   -0.0046410    0.0025185    0.0080317
c    -2.5915852    2.6698829    0.4057646  0.00   -0.0003525    0.0054202    0.0016609
c    -4.9654957    2.2787849   -0.3739645  0.00   -0.0007968    0.0029218   -0.0022738
h    -5.8220998    1.5642738   -0.3501534  0.00   -0.0044647   -0.0023258   -0.0002002
h    -4.6875830    2.4551999   -1.4381174  0.00    0.0002428    0.0004670   -0.0014234
h    -5.2900400    3.2448802    0.0780828  0.00   -0.0009931    0.0033967    0.0012668
n    -3.4395231    0.3873898   -0.2097911  0.00   -0.0122074   -0.0023317   -0.0063691
h    -4.0661648    1.5544369    1.4641222  0.00   -0.0006175   -0.0002588    0.0013354
h    -2.8310023    0.5323702   -1.0605634  0.00    0.0075739    0.0018589   -0.0067055
h    -2.8693498   -0.1826715    0.4736196  0.00    0.0060852   -0.0112807    0.0098703
o    -1.9124177    2.9905074   -0.7730600  0.00    0.0096228    0.0007581   -0.0095618
o    -2.2338721    3.2991793    1.5914636  0.00   -0.0017997   -0.0405188    0.0151137
h    -1.7995707    4.2071270    1.3519313  0.00    0.0023480    0.0393747   -0.0107448
    13
 Energy =       0.0397301775
c    -3.7718677    1.6957753    0.3956369  0.00   -0.0019131    0.0022739    0.0042619
c    -2.6469491    2.7269999    0.4168933  0.00    0.0009138    0.0028266    0.0014435
c    -4.9848295    2.2075773   -0.3923683  0.00   -0.0002606    0.0013802   -0.0020249
h    -5.7994318    1.4472781   -0.3747155  0.00   -0.0030695   -0.0018183   -0.0001415
h    -4.7028712    2.3936866   -1.4528935  0.00    0.0001894    0.0001204   -0.0005666
h    -5.3680780    3.1562046    0.0493258  0.00   -0.0009366    0.0027997    0.0010737
n    -3.3622504    0.4054940   -0.1912879  0.00   -0.0112779   -0.0007624   -0.0053767
h    -4.0740454    1.5470940    1.4613179  0.00   -0.0004582    0.0000640    0.0005997
h    -2.8126888    0.5791008   -1.0744104  0.00    0.0050309    0.0021190   -0.0055018
h    -2.7105967   -0.0921390    0.4749259  0.00    0.0073292   -0.0094985    0.0091004
o    -1.9972224    3.0968435   -0.7601936  0.00    0.0044977    0.0009498   -0.0048365
o    -2.3023966    3.3477161    1.6103352  0.00   -0.0069600   -0.0274134    0.0098333
h    -1.7460792    4.1845353    1.3913995  0.00    0.0069149    0.0269590   -0.0078644
    13
 Energy =       0.0379970849
c    -3.7771598    1.7000859    0.3943279  0.00   -0.0002419    0.0017340    0.0008382
c    -2.7063170    2.7818265    0.4329977  0.00    0.0010336    0.0004878    0.0002781
c    -4.9997269    2.1419846   -0.4168419  0.00    0.0004912   -0.0000481   -0.0009638
h    -5.7657909    1.3344830   -0.4181943  0.00   -0.0015674   -0.0012026   -0.0000439
h    -4.7080787    2.3510312   -1.4701230  0.00    0.0003052   -0.0000926   -0.0002368
h    -5.4480631    3.0623491    0.0209074  0.00   -0.0007789    0.0017599    0.0007813
n    -3.2870791    0.4334154   -0.1754371  0.00   -0.0084338    0.0003103   -0.0033993
h    -4.0896866    1.5386668    1.4546366  0.00   -0.0002825    0.0001947    0.0001656
h    -2.8098903    0.6263512   -1.0937984  0.00    0.0021935    0.0019512   -0.0037293
h    -2.5518436    0.0278125    0.4624449  0.00    0.0069167   -0.0056250    0.0067038
o    -2.0795089    3.1987975   -0.7374185  0.00    0.0004308    0.0002822   -0.0011779
o    -2.3657307    3.3772756    1.6401220  0.00   -0.0083903   -0.0124167    0.0040291
h    -1.6904312    4.1220871    1.4603423  0.00    0.0083238    0.0126649   -0.0032452
    13
 Energy =       0.0377316255
c    -3.7788813    1.6982031    0.3919444  0.00    0.0000304   -0.0002001   -0.0003772
c    -2.7247603    2.7934010    0.4504540  0.00   -0.0002267   -0.0003063   -0.0001404
c    -4.9958813    2.1253587   -0.4329438  0.00    0.0000940   -0.0001236    0.0002903
h    -5.7423583    1.3025174   -0.4576130  0.00    0.0000369    0.0000145    0.0000355
h    -4.6936235    2.3573635   -1.4783607  0.00    0.0000680    0.0000308   -0.0002356
h    -5.4705726    3.0269723    0.0108363  0.00    0.0000896   -0.0000906    0.0000037
n    -3.2608520    0.4436156   -0.1748646  0.00    0.0005753    0.0003785    0.0001048
h    -4.1018733    1.5257724    1.4472855  0.00   -0.0000188   -0.0000129    0.0000826
h    -2.8180747    0.6367493   -1.1069645  0.00   -0.0000598   -0.0001046    0.0002759
h    -2.4952161    0.0817465    0.4418694  0.00   -0.0007008    0.0002766   -0.0003294
o    -2.0651407    3.2015075   -0.7044639  0.00    0.0000957    0.0000114   -0.0005327
o    -2.4216666    3.4007783    1.6617173  0.00    0.0013355    0.0013979    0.0010527
h    -1.7104061    4.1021807    1.5050691  0.00   -0.0013192   -0.0012717   -0.0002301
    13
 Energy =       0.0377268907
c    -3.7775861    1.6963818    0.3924561  0.00   -0.0000077    0.0000259    0.0000587
c    -2.7219669    2.7903048    0.4512916  0.00   -0.0000914   -0.0001140   -0.0000740
c    -4.9949503    2.1266580   -0.4308459  0.00   -0.0000093    0.0000143   -0.0000314
h    -5.7421146    1.3044434   -0.4573859  0.00   -0.0000039   -0.0000041   -0.0000054
h    -4.6931265    2.3612509   -1.4755209  0.00   -0.0000036   -0.0000046    0.0000186
h    -5.4689222    3.0275437    0.0154989  0.00   -0.0000100    0.0000118   -0.0000019
n    -3.2618496    0.4410763   -0.1758043  0.00   -0.0001414   -0.0000364    0.0000077
h    -4.0997732    1.5233219    1.4478139  0.00   -0.0000005    0.0000008   -0.0000081
h    -2.8273253    0.6334801   -1.1121706  0.00    0.0000318    0.0000235   -0.0000893
h    -2.4891222    0.0822439    0.4347843  0.00    0.0001282   -0.0000464    0.0000800
o    -2.0453181    3.1826633   -0.6990512  0.00    0.0001044    0.0000426   -0.0002959
o    -2.4372137    3.4144966    1.6581142  0.00   -0.0001646   -0.0000660    0.0003522
h    -1.7200381    4.1123019    1.5047854  0.00    0.0001682    0.0001526   -0.0000111
    13
 Energy =       0.0377267518
c    -3.7773240    1.6960946    0.3924001  0.00    0.0000000    0.0000003    0.0000003
c    -2.7215652    2.7898591    0.4514161  0.00   -0.0000018   -0.0000022   -0.0000016
c    -4.9948047    2.1269001   -0.4303755  0.00   -0.0000000   -0.0000000   -0.0000002
h    -5.7421738    1.3048787   -0.4569068  0.00   -0.0000000   -0.0000000   -0.0000001
h    -4.6932491    2.3617362   -1.4750911  0.00    0.0000001   -0.0000000   -0.0000001
h    -5.4684032    3.0277429    0.0164283  0.00   -0.0000001    0.0000002   -0.0000001
n    -3.2619807    0.4409736   -0.1765560  0.00   -0.0000005   -0.0000004   -0.0000001
h    -4.0992565    1.5226555    1.4477822  0.00   -0.0000001    0.0000000    0.0000001
h    -2.8270045    0.6337503   -1.1125738  0.00    0.0000001    0.0000001   -0.0000003
h    -2.4897938    0.0813125    0.4340645  0.00    0.0000005   -0.0000001    0.0000006
o    -2.0430082    3.1804167   -0.6982149  0.00    0.0000011    0.0000008   -0.0000048
o    -2.4389541    3.4161126    1.6574684  0.00    0.0000007    0.0000013    0.0000062
h    -1.7217891    4.1137336    1.5041241  0.00    0.0000000    0.0000001   -0.0000000
    13
 Energy =       0.0377267515
c    -3.7772988    1.6960646    0.3923994  0.00   -0.0000000    0.0000000    0.0000000
c    -2.7215221    2.7898115    0.4514282  0.00   -0.0000000   -0.0000000   -0.0000000
c    -4.9947924    2.1269244   -0.4303269  0.00   -0.0000000    0.0000000   -0.0000000
h    -5.7421778    1.3049180   -0.4568687  0.00   -0.0000000   -0.0000000   -0.0000000
h    -4.6932609    2.3617953   -1.4750411  0.00    0.0000000    0.0000000   -0.0000000
h    -5.4683621    3.0277578    0.0165267  0.00   -0.0000000    0.0000000    0.0000000
n    -3.2619955    0.4409535   -0.1766159  0.00   -0.0000000   -0.0000000   -0.0000000
h    -4.0992058    1.5225934    1.4477838  0.00   -0.0000000   -0.0000000    0.0000000
h    -2.8270510    0.6337520   -1.1126438  0.00    0.0000000    0.0000000   -0.0000000
h    -2.4897900    0.0812613    0.4339616  0.00    0.0000000   -0.0000000    0.0000000
o    -2.0427460    3.1801653   -0.6981396  0.00    0.0000000    0.0000000   -0.0000001
o    -2.4391528    3.4162911    1.6574159  0.00   -0.0000000    0.0000000    0.0000001
h    -1.7219515    4.1138781    1.5040859  0.00    0.0000000    0.0000000   -0.0000000
