    27
 Energy =     139.3118737724
c    -1.4235396    2.6054793   -0.0667700  0.00   -0.0463780    0.0384378    0.0027627
c    -1.3072796    1.2134697   -0.1072300  0.00   -0.0853056   -0.0326318    0.0020500
c    -0.0178900    0.6711998   -0.1697000  0.00   -0.0889994   -0.1881351   -0.0014588
c    -0.2940599    3.4190890   -0.0891300  0.00   -0.0233413    0.0691000    0.0028553
c     0.9872197    2.8590292   -0.1560400  0.00    0.0394978    0.0660185    0.0072797
c     1.1340797    1.4562096   -0.1970299  0.00    0.0571978    0.0539783    0.0030246
n     0.3879399   -0.6395298   -0.2140799  0.00    0.1434498    0.1096013   -0.0022431
c     2.2666594    0.5727398   -0.2659299  0.00    0.1501941   -0.0949054   -0.0307480
c     1.7555995   -0.7123598   -0.2706899  0.00   -0.1007535   -0.0974534    0.0041102
h    -0.2400399   -1.4313496   -0.2047299  0.00    0.0368255    0.0481406   -0.0008304
c     3.7030089    1.0223397   -0.3320099  0.00    0.0015437    0.0404767   -0.0091568
c     4.0547688    2.2615794    0.5049969  0.00   -0.0028026   -0.0140101    0.0277636
h     3.9407589    1.2278196   -1.3843196  0.00    0.0040308    0.0005221    0.0179638
h     4.3455988    0.1801669   -0.0411573  0.00   -0.0107395    0.0075425   -0.0103802
c     5.4270085    2.7951492    0.0535521  0.00    0.1363783    0.0826137   -0.2657762
n     4.1412688    1.9836494    1.9826994  0.00    1.2561746    0.4540973    0.0139135
h     3.3277791    3.0673291    0.3491609  0.00   -0.4866211    0.1259718   -0.1513629
h     5.1137885    2.1471494    2.2630194  0.00 1497.7383785  868.9158904 -857.0414314
h     3.6182690    2.7208792    2.4683293  0.00    0.0205122   -0.0197349   -0.0242427
h    -2.4108593    3.0588691   -0.0157800  0.00   -0.0006041    0.0001381    0.0000165
h    -2.1896094    0.5822398   -0.0890100  0.00   -0.0035529    0.0038766    0.0000225
h    -0.4052699    4.5000487   -0.0535400  0.00    0.0006451    0.0000096    0.0003311
h     1.8590495    3.5066790   -0.1715100  0.00    0.4765458   -0.1414159    0.1697367
h     2.2327294   -1.6813195   -0.3062999  0.00   -0.0409668   -0.0111601    0.0019934
o     5.7255984    3.1121091   -1.0858697  0.00   -0.0675845   -0.0798122    0.2824980
o     6.2915882    2.8764792    1.1006697  0.00   -0.4006685   -0.2274738    0.3365987
h     5.7821484    2.5348793    1.8806595  0.00-1498.7030561 -869.1096829  856.6647103
    27
 Energy =       9.1265842868
c    -1.4235369    2.6054770   -0.0667701  0.00   -0.0463841    0.0384395    0.0027474
c    -1.3072747    1.2134715   -0.1072301  0.00   -0.0853099   -0.0326335    0.0020380
c    -0.0178848    0.6712107   -0.1696999  0.00   -0.0889479   -0.1880738   -0.0014231
c    -0.2940586    3.4190850   -0.0891301  0.00   -0.0233456    0.0691069    0.0028342
c     0.9872174    2.8590253   -0.1560404  0.00    0.0394948    0.0660394    0.0072430
c     1.1340764    1.4562064   -0.1970301  0.00    0.0572061    0.0539422    0.0030659
n     0.3879316   -0.6395362   -0.2140798  0.00    0.1433410    0.1095176   -0.0023484
c     2.2666506    0.5727453   -0.2659281  0.00    0.1501680   -0.0948923   -0.0307280
c     1.7556054   -0.7123541   -0.2706902  0.00   -0.1007167   -0.0974373    0.0041030
h    -0.2400421   -1.4313524   -0.2047299  0.00    0.0368578    0.0481670   -0.0007972
c     3.7030089    1.0223374   -0.3320094  0.00    0.0016514    0.0405187   -0.0093638
c     4.0547690    2.2615802    0.5049952  0.00   -0.0277458   -0.0175903    0.0143827
h     3.9407586    1.2278196   -1.3843206  0.00    0.0039592    0.0004812    0.0180005
h     4.3455994    0.1801665   -0.0411567  0.00   -0.0108532    0.0075378   -0.0102075
c     5.4270005    2.7951444    0.0535675  0.00    0.1438694    0.0903660   -0.2883435
n     4.1411958    1.9836231    1.9826986  0.00    0.7737770    0.2725512    0.0615350
h     3.3278073    3.0673218    0.3491697  0.00   -0.4864609    0.1257932   -0.1511361
h     5.0267817    2.0966722    2.3128067  0.00   73.6958461   42.8411400  -42.3695474
h     3.6182678    2.7208804    2.4683307  0.00    0.0202938   -0.0193383   -0.0220288
h    -2.4108593    3.0588691   -0.0157800  0.00   -0.0005983    0.0001337    0.0000261
h    -2.1896092    0.5822396   -0.0890100  0.00   -0.0035472    0.0038745    0.0000328
h    -0.4052699    4.5000487   -0.0535400  0.00    0.0006482   -0.0000026    0.0003481
h     1.8590218    3.5066872   -0.1715198  0.00    0.4762847   -0.1413776    0.1696912
h     2.2327317   -1.6813189   -0.3063000  0.00   -0.0409661   -0.0111419    0.0020327
o     5.7256023    3.1121137   -1.0858861  0.00   -0.0673101   -0.0796500    0.2832079
o     6.2916115    2.8764924    1.1006501  0.00   -0.3290534   -0.1840314    0.3047869
h     5.8692112    2.5853677    1.8308940  0.00  -74.2321581  -42.9014399   42.0098487
    27
 Energy =       5.0298377672
c    -1.3992003    2.5924175   -0.0612237  0.00   -0.0136892    0.0112770    0.0009741
c    -1.2614038    1.2288747   -0.0946762  0.00   -0.0270980   -0.0110112    0.0002873
c    -0.0028152    0.7098892   -0.1632990  0.00   -0.0255459   -0.0615521    0.0003957
c    -0.2954724    3.4083797   -0.1138518  0.00   -0.0070999    0.0208721    0.0015743
c     0.9692835    2.8751454   -0.1915192  0.00    0.0124555    0.0201526    0.0039569
c     1.1070374    1.4941500   -0.1969161  0.00    0.0164182    0.0193064    0.0021853
n     0.3531827   -0.6476937   -0.2170689  0.00    0.0400707    0.0322328   -0.0030257
c     2.2111703    0.6581796   -0.2369407  0.00    0.0486081   -0.0297624   -0.0111242
c     1.7620265   -0.6195458   -0.2490055  0.00   -0.0340270   -0.0233382    0.0021951
h    -0.2653729   -1.4774266   -0.2193863  0.00    0.0127897    0.0142296   -0.0013356
c     3.6764707    1.0210839   -0.3183426  0.00   -0.0002995    0.0131882   -0.0023737
c     4.0720247    2.2544841    0.4957314  0.00    0.0013698   -0.0014573    0.0075915
h     3.9296806    1.1722175   -1.3886043  0.00    0.0030555   -0.0003049    0.0047837
h     4.2844063    0.1604698    0.0343901  0.00   -0.0035930    0.0002648   -0.0012937
c     5.4096533    2.7729852    0.0691189  0.00    0.0444191    0.0312374   -0.0844930
n     4.1098865    1.9581974    1.9449386  0.00    0.3300056    0.1301382   -0.0367565
h     3.3435984    3.0370400    0.3022544  0.00   -0.2488446    0.0540491   -0.0795166
h     5.0658576    2.0308622    2.4333069  0.00   38.2478753   22.1939884  -21.8964081
h     3.5117344    2.6515388    2.4444308  0.00    0.0033386   -0.0017873   -0.0047404
h    -2.3930469    3.0291368    0.0052529  0.00   -0.0005685   -0.0007348    0.0009888
h    -2.1282415    0.5764285   -0.0606895  0.00   -0.0010920    0.0002043    0.0005050
h    -0.4239524    4.4880770   -0.0953397  0.00   -0.0000983   -0.0002133    0.0004370
h     1.8231911    3.5731776   -0.2470862  0.00    0.2457201   -0.0585451    0.0840268
h     2.3722296   -1.5225658   -0.2934121  0.00   -0.0064801   -0.0080555    0.0002458
o     5.6824179    3.0875866   -1.2033114  0.00   -0.0270686   -0.0292773    0.0875490
o     6.3404309    2.8519803    1.0776643  0.00   -0.1503676   -0.0800854    0.1178848
h     5.9515368    2.5449541    1.9258463  0.00  -38.4602541  -22.2350158   21.8054861
    27
 Energy =       3.4092319475
c    -1.3668093    2.6846016   -0.0838460  0.00   -0.0075506    0.0058283    0.0009340
c    -1.2596973    1.3247702   -0.1131390  0.00   -0.0146983   -0.0065064    0.0003918
c    -0.0229580    0.7759458   -0.1950790  0.00   -0.0131278   -0.0326003   -0.0004651
c    -0.2485597    3.4704285   -0.1530103  0.00   -0.0035772    0.0116713    0.0006373
c     0.9989080    2.9101134   -0.2305398  0.00    0.0070774    0.0118267    0.0009895
c     1.1033002    1.5249401   -0.2283709  0.00    0.0088056    0.0114636   -0.0000673
n     0.2764183   -0.6022795   -0.2282694  0.00    0.0224348    0.0165683   -0.0020072
c     2.1758489    0.6535095   -0.2380223  0.00    0.0250904   -0.0163289   -0.0071167
c     1.6922307   -0.6074967   -0.2507193  0.00   -0.0178333   -0.0139054    0.0003854
h    -0.3754808   -1.4133592   -0.2263274  0.00    0.0065792    0.0068724   -0.0008193
c     3.6703320    0.9259658   -0.2629867  0.00    0.0011259    0.0090609   -0.0003620
c     4.0899907    2.1668847    0.5192961  0.00    0.0015355   -0.0009311    0.0010656
h     3.9863702    1.0134644   -1.3298979  0.00    0.0049315   -0.0000080   -0.0010024
h     4.2183544    0.0508304    0.1623831  0.00    0.0004700   -0.0034515    0.0012836
c     5.4379982    2.6782920    0.0761945  0.00    0.0222237    0.0169816   -0.0463534
n     4.0764644    1.9272936    1.9924158  0.00    0.2003655    0.0710952   -0.0185852
h     3.3882212    2.9419939    0.2586926  0.00   -0.1519561    0.0280041   -0.0519524
h     5.0618068    1.9806418    2.4502653  0.00   24.4646231   14.1908462  -13.9971914
h     3.5371032    2.7079463    2.4463939  0.00   -0.0049519    0.0089715    0.0008253
h    -2.3488204    3.1448062   -0.0021185  0.00   -0.0003277   -0.0005901    0.0018393
h    -2.1396032    0.6914723   -0.0585315  0.00   -0.0003790   -0.0004963    0.0013345
h    -0.3516953    4.5533351   -0.1378527  0.00    0.0001261    0.0000761    0.0000883
h     1.8506728    3.6140824   -0.2777530  0.00    0.1496872   -0.0293793    0.0509392
h     2.2890526   -1.5198921   -0.2742240  0.00   -0.0026888   -0.0048238   -0.0004498
o     5.7103566    2.9597893   -1.2300988  0.00   -0.0135870   -0.0152069    0.0481841
o     6.3784230    2.8391274    1.0728599  0.00   -0.0862925   -0.0449822    0.0746353
h     5.9780854    2.5128165    1.9245465  0.00  -24.5981058  -14.2200561   13.9428392
    27
 Energy =       2.7291563039
c    -1.3956369    2.6861755   -0.1292428  0.00   -0.0071734    0.0033703    0.0003496
c    -1.2885096    1.3278490   -0.1618743  0.00   -0.0121712   -0.0041166   -0.0000098
c    -0.0489536    0.7782952   -0.1792757  0.00   -0.0077118   -0.0239302   -0.0004340
c    -0.2723066    3.4673559   -0.1235718  0.00   -0.0016222    0.0098396    0.0002006
c     0.9741566    2.9018519   -0.1406830  0.00    0.0085098    0.0085685    0.0012123
c     1.0771400    1.5241714   -0.1606104  0.00    0.0083625    0.0088933    0.0000021
n     0.2491831   -0.6007250   -0.2317223  0.00    0.0152637    0.0121304   -0.0019790
c     2.1507455    0.6628363   -0.1698240  0.00    0.0175165   -0.0107006   -0.0048823
c     1.6693138   -0.5984699   -0.2152738  0.00   -0.0126357   -0.0096987    0.0005475
h    -0.4048512   -1.4120811   -0.2626142  0.00    0.0039597    0.0046896   -0.0011135
c     3.6470887    0.9380621   -0.2518949  0.00    0.0012869    0.0058856   -0.0007458
c     4.1245430    2.1549912    0.5442094  0.00    0.0014280   -0.0011175   -0.0025703
h     3.9141549    1.0475585   -1.3301033  0.00    0.0041728   -0.0009461   -0.0016152
h     4.2092141    0.0485311    0.1250145  0.00    0.0010548   -0.0038408    0.0022949
c     5.4443529    2.6871737    0.0313854  0.00    0.0134531    0.0086175   -0.0294983
n     4.1985749    1.8463083    2.0031043  0.00    0.1538490    0.0445305   -0.0106275
h     3.4304248    2.9681688    0.3536804  0.00   -0.1159502    0.0234104   -0.0409042
h     5.1858959    1.9931157    2.4010548  0.00   18.8890576   10.9541989  -10.8062253
h     3.6002057    2.5491932    2.5164681  0.00   -0.0100044    0.0140783    0.0048145
h    -2.3809585    3.1499959   -0.1089783  0.00   -0.0020772    0.0003482    0.0007723
h    -2.1734088    0.6965465   -0.1727315  0.00   -0.0024086   -0.0008458    0.0003624
h    -0.3708448    4.5509330   -0.1030126  0.00    0.0004304    0.0004036   -0.0002658
h     1.8204642    3.5926806   -0.1249640  0.00    0.1117900   -0.0218806    0.0384413
h     2.2707328   -1.5061802   -0.2717627  0.00   -0.0023395   -0.0043619   -0.0001593
o     5.6146574    3.0220669   -1.2927197  0.00   -0.0091759   -0.0090328    0.0276743
o     6.4398360    2.8979466    0.9727554  0.00   -0.0580669   -0.0277098    0.0498779
h     6.1210993    2.5356727    1.8654482  0.00  -18.9887977  -10.9807837   10.7744807
    27
 Energy =       1.8542068410
c    -1.4360954    2.6779582   -0.1761801  0.00   -0.0047134    0.0013397   -0.0001234
c    -1.3266872    1.3201478   -0.2116208  0.00   -0.0078524   -0.0012558   -0.0004934
c    -0.0870552    0.7735090   -0.1617211  0.00   -0.0019877   -0.0117932   -0.0005500
c    -0.3129670    3.4554744   -0.1061424  0.00    0.0000583    0.0062883    0.0002585
c     0.9270910    2.8816297   -0.0715808  0.00    0.0106319    0.0037871    0.0019823
c     1.0281461    1.5217922   -0.0924462  0.00    0.0074591    0.0061010   -0.0000855
n     0.2270292   -0.6032322   -0.2341604  0.00    0.0061871    0.0059587   -0.0023391
c     2.1103997    0.6960356   -0.0901910  0.00    0.0077846   -0.0015372   -0.0019657
c     1.6526687   -0.5725247   -0.1754394  0.00   -0.0062188   -0.0038008    0.0002698
h    -0.4171932   -1.4234238   -0.2968149  0.00    0.0011812    0.0021390   -0.0020658
c     3.5924929    1.0188876   -0.2416370  0.00   -0.0013157    0.0024571    0.0000033
c     4.1512589    2.2054015    0.5768070  0.00   -0.0031387   -0.0057276   -0.0029649
h     3.7804071    1.1773798   -1.3327879  0.00    0.0028512   -0.0014156   -0.0047796
h     4.1900794    0.1163144    0.0475341  0.00    0.0031920   -0.0055810    0.0029859
c     5.5050134    2.6334612    0.0126449  0.00   -0.0016705    0.0029684   -0.0158567
n     4.2584800    1.8264853    2.0196919  0.00    0.0910804    0.0239499   -0.0026631
h     3.5340083    3.1203345    0.4481801  0.00   -0.0664893    0.0237463   -0.0228932
h     5.2671986    1.9541522    2.3866053  0.00   11.8516443    6.8680260   -6.7745299
h     3.6714602    2.4923301    2.5856619  0.00   -0.0070522    0.0087560    0.0047445
h    -2.4203003    3.1446339   -0.2125519  0.00   -0.0025632    0.0010558   -0.0001198
h    -2.2093799    0.6891626   -0.2869386  0.00   -0.0032614   -0.0007290   -0.0009921
h    -0.4061125    4.5396046   -0.0842973  0.00    0.0005016    0.0006202    0.0002955
h     1.7797237    3.5263093   -0.0281113  0.00    0.0544771   -0.0176245    0.0204984
h     2.2758861   -1.4612069   -0.2817334  0.00   -0.0011882   -0.0040189   -0.0008016
o     5.6477114    2.9432797   -1.3299199  0.00   -0.0035678   -0.0044630    0.0139668
o     6.5869804    2.7391935    0.8883708  0.00   -0.0055752   -0.0109315    0.0142375
h     6.2360692    2.5169344    1.8310399  0.00  -11.9204544   -6.8883151    6.7739813
    27
 Energy =       1.2682124556
c    -1.4634650    2.6635384   -0.2161345  0.00   -0.0040491   -0.0000342   -0.0007104
c    -1.3397089    1.3084176   -0.2461970  0.00   -0.0050626   -0.0002128   -0.0008122
c    -0.1005860    0.7727704   -0.1408059  0.00   -0.0000314   -0.0063266   -0.0004857
c    -0.3534429    3.4499238   -0.0824258  0.00    0.0003852    0.0038413   -0.0001110
c     0.8887366    2.8884061    0.0072011  0.00    0.0059160    0.0010640    0.0008261
c     1.0042848    1.5296599   -0.0342947  0.00    0.0045782    0.0028864   -0.0001417
n     0.2246241   -0.6027326   -0.2045780  0.00    0.0028384    0.0029939   -0.0015722
c     2.0941510    0.7152400   -0.0293861  0.00    0.0027455   -0.0004816   -0.0007273
c     1.6499000   -0.5560494   -0.1271917  0.00   -0.0030273   -0.0016867    0.0000744
h    -0.4111479   -1.4294328   -0.2806690  0.00    0.0003262    0.0009873   -0.0015978
c     3.5698690    1.0467406   -0.2383795  0.00   -0.0005489    0.0011362    0.0006907
c     4.1748089    2.2096681    0.5759541  0.00   -0.0022749   -0.0026587   -0.0008891
h     3.7053261    1.2335988   -1.3316233  0.00    0.0017943   -0.0010449   -0.0036502
h     4.1806971    0.1401313   -0.0008884  0.00    0.0025211   -0.0038243    0.0025930
c     5.5185712    2.6313850   -0.0265825  0.00   -0.0012654    0.0009481   -0.0075188
n     4.3027222    1.8072071    2.0084747  0.00    0.0483337    0.0121177   -0.0024660
h     3.5724226    3.1292759    0.4663435  0.00   -0.0353735    0.0123786   -0.0144654
h     5.3336558    1.8848843    2.3346834  0.00    7.2608917    4.2032967   -4.1450269
h     3.7705288    2.4930932    2.6014459  0.00   -0.0054390    0.0066673    0.0043346
h    -2.4488137    3.1211946   -0.3024188  0.00   -0.0025274    0.0009874   -0.0009269
h    -2.2114229    0.6696963   -0.3655428  0.00   -0.0026950   -0.0005794   -0.0014177
h    -0.4588875    4.5326780   -0.0514650  0.00    0.0004798    0.0005847   -0.0000788
h     1.7287155    3.5459680    0.1306418  0.00    0.0313278   -0.0075729    0.0138738
h     2.2855488   -1.4321920   -0.2533001  0.00   -0.0005803   -0.0023739   -0.0003849
o     5.6141278    2.9633697   -1.3732404  0.00   -0.0019808   -0.0019354    0.0056181
o     6.6359125    2.7238026    0.8054476  0.00   -0.0010346   -0.0050523    0.0064217
h     6.3391855    2.4697808    1.7571924  0.00   -7.2962478   -4.2161059    4.1485507
    27
 Energy =       1.0429308808
c    -1.4706905    2.6468878   -0.1361100  0.00   -0.0031948    0.0010672   -0.0006362
c    -1.3361034    1.2943299   -0.2219050  0.00   -0.0037107   -0.0010322   -0.0009475
c    -0.0932432    0.7645798   -0.1459033  0.00   -0.0002740   -0.0041207   -0.0004167
c    -0.3671416    3.4367493    0.0223228  0.00    0.0000273    0.0037417   -0.0000506
c     0.8796530    2.8818910    0.0787943  0.00    0.0043426    0.0017403    0.0007929
c     1.0054697    1.5261286   -0.0193514  0.00    0.0029548    0.0020466   -0.0001244
n     0.2425934   -0.6059179   -0.2706736  0.00    0.0027693    0.0007428   -0.0015905
c     2.1019632    0.7219911   -0.0625398  0.00    0.0021817    0.0002149   -0.0000950
c     1.6685365   -0.5489192   -0.2087314  0.00   -0.0024351   -0.0019689   -0.0001090
h    -0.3862723   -1.4357054   -0.3733331  0.00   -0.0000540    0.0001961   -0.0016940
c     3.5693762    1.0752604   -0.2902573  0.00   -0.0010181    0.0007484    0.0009703
c     4.1907876    2.2032514    0.5607323  0.00   -0.0005268   -0.0010014   -0.0011101
h     3.6767561    1.3128970   -1.3770163  0.00    0.0015584   -0.0006040   -0.0041154
h     4.1913774    0.1629317   -0.1089574  0.00    0.0026149   -0.0041616    0.0023291
c     5.5389603    2.6285627   -0.0326954  0.00   -0.0023734    0.0007053   -0.0064688
n     4.3109408    1.7524443    1.9793597  0.00    0.0318855   -0.0075467   -0.0150392
h     3.6020966    3.1344222    0.4807723  0.00   -0.0261336    0.0097817   -0.0113731
h     5.3130915    1.9591247    2.3588587  0.00    5.5557946    3.2115273   -3.1584184
h     3.6560969    2.3343401    2.5796195  0.00   -0.0166554    0.0161727    0.0150681
h    -2.4596955    3.0997982   -0.1977260  0.00   -0.0020371    0.0011394   -0.0009044
h    -2.2023871    0.6531949   -0.3624634  0.00   -0.0020356   -0.0006696   -0.0014960
h    -0.4817616    4.5172092    0.0990118  0.00    0.0001853    0.0015713    0.0001354
h     1.7157939    3.5406830    0.2219668  0.00    0.0228851   -0.0053289    0.0108493
h     2.3115773   -1.4119435   -0.3857137  0.00    0.0002787   -0.0029755   -0.0006959
o     5.6499032    2.9270794   -1.3876302  0.00   -0.0018290   -0.0010262    0.0034011
o     6.6392624    2.7829273    0.8136114  0.00    0.0009496   -0.0035828    0.0063242
h     6.3393723    2.5558259    1.7682189  0.00   -5.5661505   -3.2173770    3.1654145
    27
 Energy =       0.7795773184
c    -1.4758937    2.6337456   -0.1021955  0.00   -0.0023872    0.0005574   -0.0008466
c    -1.3361318    1.2856291   -0.2312862  0.00   -0.0022393   -0.0014186   -0.0011438
c    -0.0949081    0.7568505   -0.1493468  0.00   -0.0002935   -0.0023008   -0.0005006
c    -0.3790383    3.4200862    0.1087667  0.00    0.0009029    0.0029494   -0.0000237
c     0.8672479    2.8670915    0.1691373  0.00    0.0021472    0.0019229    0.0005474
c     0.9994556    1.5165605    0.0184676  0.00    0.0016733    0.0009852   -0.0001273
n     0.2447511   -0.6081980   -0.3163593  0.00    0.0017156   -0.0002565   -0.0014556
c     2.0989560    0.7187815   -0.0484238  0.00    0.0013116    0.0012016    0.0003228
c     1.6698452   -0.5475957   -0.2421005  0.00   -0.0016841   -0.0013909   -0.0002370
h    -0.3805980   -1.4365407   -0.4527350  0.00   -0.0005785   -0.0005748   -0.0017101
c     3.5626356    1.0780252   -0.2927594  0.00   -0.0005752   -0.0003088    0.0008137
c     4.2089844    2.2089879    0.5346944  0.00   -0.0003440   -0.0007943    0.0004852
h     3.6520871    1.3103582   -1.3804117  0.00    0.0010007   -0.0005892   -0.0021795
h     4.1860262    0.1676278   -0.1185012  0.00    0.0014886   -0.0023684    0.0017359
c     5.5729458    2.5838217   -0.0634786  0.00   -0.0030920   -0.0002132   -0.0012651
n     4.3055270    1.7889383    1.9634645  0.00    0.0167750   -0.0070432   -0.0103135
h     3.6513435    3.1556215    0.4260127  0.00   -0.0130335    0.0060747   -0.0071458
h     5.2810154    2.0529841    2.3698480  0.00    3.5832135    2.0703526   -2.0312733
h     3.6084785    2.3432891    2.5314688  0.00   -0.0106972    0.0107081    0.0103720
h    -2.4639891    3.0858103   -0.1689501  0.00   -0.0011049    0.0007333   -0.0010665
h    -2.1969132    0.6472070   -0.4118665  0.00   -0.0016703   -0.0008669   -0.0017149
h    -0.4988033    4.4966183    0.2252014  0.00    0.0003218    0.0017838    0.0001534
h     1.6961947    3.5220194    0.3646377  0.00    0.0115874   -0.0018375    0.0075719
h     2.3170500   -1.3983578   -0.4579782  0.00    0.0003872   -0.0025017   -0.0007255
o     5.7166212    2.7683263   -1.4418410  0.00   -0.0007386    0.0005994   -0.0068825
o     6.6520549    2.8221806    0.7919713  0.00    0.0030352   -0.0014743    0.0043168
h     6.3413690    2.6701557    1.7568247  0.00   -3.5871217   -2.0739293    2.0422920
    27
 Energy =       0.6711351176
c    -1.4686753    2.6261570   -0.0803567  0.00   -0.0018911    0.0004123   -0.0009129
c    -1.3313438    1.2800488   -0.2262549  0.00   -0.0017030   -0.0011537   -0.0011305
c    -0.0925212    0.7471696   -0.1433216  0.00   -0.0002453   -0.0017918   -0.0005249
c    -0.3722182    3.4059666    0.1522329  0.00    0.0008393    0.0023535   -0.0001415
c     0.8718901    2.8490579    0.2147903  0.00    0.0014611    0.0015765    0.0003775
c     1.0029189    1.5015109    0.0399793  0.00    0.0012265    0.0006153   -0.0001551
n     0.2433000   -0.6166886   -0.3237162  0.00    0.0012954   -0.0002268   -0.0012278
c     2.1008161    0.7020652   -0.0364061  0.00    0.0010055    0.0009611    0.0005263
c     1.6681300   -0.5603059   -0.2459532  0.00   -0.0013180   -0.0011224   -0.0002152
h    -0.3838136   -1.4415725   -0.4720623  0.00   -0.0005237   -0.0005029   -0.0014928
c     3.5665199    1.0534880   -0.2840118  0.00   -0.0008751   -0.0008006    0.0006996
c     4.2147061    2.2162752    0.4971458  0.00   -0.0001047   -0.0004074   -0.0004192
h     3.6620024    1.2435429   -1.3795684  0.00    0.0008546   -0.0004549   -0.0023627
h     4.1864597    0.1488534   -0.0707789  0.00    0.0014089   -0.0025538    0.0016184
c     5.5965747    2.5417617   -0.0912563  0.00   -0.0043576   -0.0011626    0.0004742
n     4.2759419    1.8670713    1.9477011  0.00    0.0128142   -0.0081352   -0.0063846
h     3.6764390    3.1669331    0.3256153  0.00   -0.0089337    0.0061015   -0.0057895
h     5.2294423    2.1746722    2.3706819  0.00    2.7875432    1.6102421   -1.5770072
h     3.5473342    2.4254969    2.4678428  0.00   -0.0097358    0.0095251    0.0093531
h    -2.4548405    3.0815273   -0.1486900  0.00   -0.0007911    0.0006160   -0.0011495
h    -2.1921070    0.6463338   -0.4209063  0.00   -0.0013012   -0.0006665   -0.0016483
h    -0.4907743    4.4804115    0.2857255  0.00    0.0003083    0.0015191   -0.0000070
h     1.6985698    3.4977314    0.4370688  0.00    0.0072622   -0.0009037    0.0061026
h     2.3135706   -1.4089963   -0.4729964  0.00    0.0002821   -0.0019628   -0.0005175
o     5.7822490    2.6095731   -1.4798413  0.00   -0.0001149    0.0008269   -0.0146734
o     6.6461120    2.8681225    0.7754978  0.00    0.0058773   -0.0000979    0.0022040
h     6.3096308    2.8038167    1.7441001  0.00   -2.7902836   -1.6128067    1.5944040
    27
 Energy =       0.5586763576
c    -1.4557499    2.6208239   -0.0286882  0.00   -0.0019579    0.0008260   -0.0009616
c    -1.3224181    1.2818392   -0.2365634  0.00   -0.0012720   -0.0022692   -0.0013246
c    -0.0872648    0.7400263   -0.1666379  0.00   -0.0004487   -0.0018239   -0.0005875
c    -0.3596636    3.3838419    0.2569386  0.00    0.0013793    0.0028222    0.0000022
c     0.8810605    2.8188148    0.3084968  0.00    0.0005660    0.0027457    0.0003805
c     1.0100261    1.4804578    0.0624419  0.00    0.0009217   -0.0002195   -0.0004030
n     0.2421401   -0.6174877   -0.4026658  0.00    0.0014256   -0.0012386   -0.0011527
c     2.1048123    0.6786511   -0.0438711  0.00    0.0011145    0.0017360    0.0013010
c     1.6662198   -0.5714924   -0.3118482  0.00   -0.0015259   -0.0019705   -0.0003992
h    -0.3879362   -1.4323389   -0.5933303  0.00   -0.0012124   -0.0015616   -0.0014822
c     3.5776197    1.0204728   -0.2684667  0.00   -0.0013233   -0.0003353    0.0004461
c     4.2130276    2.2213133    0.4641410  0.00    0.0003341   -0.0001948   -0.0014996
h     3.6987182    1.1574821   -1.3701522  0.00    0.0006991   -0.0003147   -0.0030221
h     4.1894382    0.1250856    0.0031789  0.00    0.0019095   -0.0031504    0.0016903
c     5.6092321    2.5149046   -0.1080012  0.00   -0.0045198   -0.0016756    0.0006937
n     4.2368580    1.9462578    1.9319114  0.00    0.0095330   -0.0075234   -0.0020338
h     3.6838388    3.1640051    0.2249774  0.00   -0.0038429    0.0054643   -0.0047622
h     5.1690802    2.2873794    2.3669676  0.00    1.9768241    1.1417047   -1.1159590
h     3.4837767    2.5119170    2.4030135  0.00   -0.0081284    0.0076465    0.0075258
h    -2.4390044    3.0833523   -0.0865543  0.00   -0.0005114    0.0006609   -0.0011776
h    -2.1834503    0.6609086   -0.4690573  0.00   -0.0013071   -0.0010832   -0.0016872
h    -0.4762075    4.4513554    0.4444786  0.00    0.0003564    0.0025905    0.0000926
h     1.7041687    3.4520790    0.5867450  0.00    0.0029453    0.0010867    0.0053298
h     2.3091264   -1.4130091   -0.5706879  0.00    0.0002275   -0.0019468   -0.0004612
o     5.8302181    2.4887409   -1.4934303  0.00    0.0000390    0.0005181   -0.0156931
o     6.6319856    2.9212939    0.7579307  0.00    0.0066596    0.0007285    0.0010917
h     6.2766613    2.9333489    1.7209946  0.00   -1.9788847   -1.1432225    1.1340527
    27
 Energy =       0.5376702005
c    -1.4505220    2.6380351    0.0895313  0.00   -0.0023687    0.0012191   -0.0008732
c    -1.3301208    1.3027517   -0.1492512  0.00   -0.0018884   -0.0019527   -0.0012686
c    -0.0955024    0.7537006   -0.1292833  0.00   -0.0002281   -0.0017410   -0.0004713
c    -0.3419263    3.3900034    0.3557940  0.00    0.0006253    0.0031844    0.0000539
c     0.8976162    2.8179867    0.3575927  0.00    0.0012033    0.0024713    0.0004188
c     1.0123661    1.4839814    0.0810926  0.00    0.0010564   -0.0002924   -0.0003183
n     0.2196631   -0.6010132   -0.4010667  0.00    0.0009190   -0.0015070   -0.0011297
c     2.0994035    0.6780827   -0.0723843  0.00    0.0017871    0.0010899    0.0011882
c     1.6466026   -0.5642690   -0.3516391  0.00   -0.0005088   -0.0020895   -0.0003774
h    -0.4201489   -1.4088756   -0.5888774  0.00   -0.0012133   -0.0015355   -0.0014058
c     3.5702948    1.0129750   -0.3189454  0.00   -0.0011007   -0.0004120    0.0004082
c     4.2200396    2.2094237    0.4067730  0.00    0.0003376   -0.0001676   -0.0012395
h     3.6771278    1.1526359   -1.4216378  0.00    0.0006313   -0.0003135   -0.0028953
h     4.1809124    0.1141025   -0.0572257  0.00    0.0018146   -0.0029530    0.0015845
c     5.6194492    2.4860138   -0.1658497  0.00   -0.0041595   -0.0015818    0.0007862
n     4.2411433    1.9404292    1.8748422  0.00    0.0088148   -0.0069851   -0.0018710
h     3.6988369    3.1556246    0.1617541  0.00   -0.0031483    0.0050417   -0.0045291
h     5.1724422    2.2819072    2.3082276  0.00    1.8336811    1.0590003   -1.0352024
h     3.4885351    2.5080731    2.3428183  0.00   -0.0075728    0.0070811    0.0069332
h    -2.4333691    3.1063108    0.0721988  0.00   -0.0012357    0.0010558   -0.0011067
h    -2.2013651    0.6904853   -0.3663342  0.00   -0.0014749   -0.0009962   -0.0016095
h    -0.4475707    4.4542244    0.5679450  0.00    0.0001289    0.0027871    0.0001363
h     1.7325583    3.4419415    0.6219088  0.00    0.0026416    0.0010835    0.0051288
h     2.2777774   -1.4054003   -0.6404107  0.00    0.0005637   -0.0021869   -0.0005550
o     5.8442504    2.4363280   -1.5495292  0.00    0.0001285    0.0004756   -0.0148558
o     6.6416059    2.9027228    0.6958518  0.00    0.0062428    0.0006675    0.0008868
h     6.2862139    2.9318425    1.6583659  0.00   -1.8356768   -1.0604433    1.0521840
    27
 Energy =       0.5155922736
c    -1.4524220    2.6027474    0.2081245  0.00   -0.0025669    0.0018583   -0.0006679
c    -1.3282738    1.2752469   -0.0707808  0.00   -0.0022983   -0.0017652   -0.0011807
c    -0.0890581    0.7353864   -0.1002757  0.00    0.0000555   -0.0016688   -0.0003572
c    -0.3425606    3.3557155    0.4652319  0.00   -0.0002502    0.0034920    0.0001270
c     0.9012650    2.7931970    0.4183666  0.00    0.0016333    0.0023495    0.0004749
c     1.0188335    1.4680545    0.1010821  0.00    0.0010512   -0.0005146   -0.0003214
n     0.2286313   -0.6099180   -0.4154895  0.00    0.0008148   -0.0019686   -0.0011326
c     2.1073107    0.6735696   -0.1009298  0.00    0.0023494    0.0002916    0.0010331
c     1.6563972   -0.5643113   -0.4012550  0.00    0.0002710   -0.0023368   -0.0004359
h    -0.4100503   -1.4172779   -0.6087116  0.00   -0.0010971   -0.0014574   -0.0012956
c     3.5738194    1.0192169   -0.3587659  0.00   -0.0010241   -0.0004651    0.0002336
c     4.2142416    2.2310385    0.3483979  0.00    0.0005231   -0.0001635   -0.0012152
h     3.6747558    1.1478208   -1.4632361  0.00    0.0005508   -0.0002673   -0.0027236
h     4.1926555    0.1286832   -0.0889333  0.00    0.0016899   -0.0027941    0.0014831
c     5.6140330    2.5078524   -0.2237117  0.00   -0.0038660   -0.0014781    0.0007612