    27
 Energy =       0.2720736653
c    -1.4235396    2.6054793   -0.0667700  0.00   -0.0462375    0.0383181    0.0027757
c    -1.3072796    1.2134697   -0.1072300  0.00   -0.0851684   -0.0325726    0.0020333
c    -0.0178900    0.6711998   -0.1697000  0.00   -0.0885256   -0.1879378   -0.0012188
c    -0.2940599    3.4190890   -0.0891300  0.00   -0.0230297    0.0690904    0.0029641
c     0.9872197    2.8590292   -0.1560400  0.00    0.0104905    0.0643241    0.0010838
c     1.1340797    1.4562096   -0.1970299  0.00    0.0534124    0.0515241    0.0020465
n     0.3879399   -0.6395298   -0.2140799  0.00    0.1419492    0.1098317   -0.0028981
c     2.2666594    0.5727398   -0.2659299  0.00    0.1404618   -0.0572155   -0.0206366
c     1.7555995   -0.7123598   -0.2706899  0.00   -0.0941276   -0.0976775    0.0034999
h    -0.2400399   -1.4313496   -0.2047299  0.00    0.0365108    0.0476245   -0.0006275
c     3.7030089    1.0223397   -0.3320099  0.00    0.0202102    0.0106919    0.0228613
c     4.7465686   -0.0024900    0.1378100  0.00   -0.1126498    0.0783747    0.0778448
h     3.7978489    1.9290294    0.2803699  0.00    0.0074504   -0.0133410   -0.0090652
h     3.9233889    1.3348996   -1.3618196  0.00   -0.0049583   -0.0013265    0.0137449
c     6.0911583    0.7171698    0.3515799  0.00    0.3768713   -0.0389322   -0.1484666
n     4.9813086   -1.1161597   -0.8485798  0.00    0.0419191   -0.0750032   -0.0336376
h     4.4627987   -0.4486599    1.0982597  0.00    0.0073562   -0.0123434   -0.0272862
h     4.8172486   -1.9976894   -0.3514999  0.00   -0.0052786    0.0369109   -0.0109493
h     4.2259388   -1.0808397   -1.5421496  0.00    0.0123311    0.0071358    0.0353238
h    -2.4108593    3.0588691   -0.0157800  0.00   -0.0008387    0.0002477    0.0000205
h    -2.1896094    0.5822398   -0.0890100  0.00   -0.0036232    0.0037181    0.0000484
h    -0.4052699    4.5000487   -0.0535400  0.00    0.0008356    0.0002046    0.0002471
h     1.8590495    3.5066790   -0.1715100  0.00   -0.0007641    0.0026533    0.0006010
h     2.2327294   -1.6813195   -0.3062999  0.00   -0.0367041   -0.0107199    0.0010989
o     7.1486880    0.4175409   -0.1773389  0.00   -0.2646111    0.0706171    0.1280373
o     5.9603183    1.7554495    1.2207397  0.00   -0.0586507   -0.0337832   -0.0208374
h     6.8636980    2.1628694    1.2710096  0.00   -0.0246313   -0.0304142   -0.0186080
    27
 Energy =       0.2081334285
c    -1.4092782    2.4948814   -0.0445151  0.00   -0.0206757    0.0179981    0.0012511
c    -1.2775912    1.1224948   -0.0862631  0.00   -0.0402092   -0.0151143    0.0009343
c    -0.0095584    0.5994276   -0.1449237  0.00   -0.0418266   -0.0893951    0.0006319
c    -0.2969378    3.3090512   -0.0673382  0.00   -0.0107448    0.0322435    0.0014209
c     0.9685864    2.7630400   -0.1333538  0.00    0.0062595    0.0301176    0.0004619
c     1.1017517    1.3883379   -0.1695735  0.00    0.0228008    0.0265215    0.0010256
n     0.3786086   -0.7421740   -0.2151668  0.00    0.0627865    0.0507025   -0.0028957
c     2.2240240    0.5753213   -0.2404662  0.00    0.0679308   -0.0263239   -0.0096457
c     1.7818834   -0.7148251   -0.2616630  0.00   -0.0467435   -0.0411399    0.0030153
h    -0.2296591   -1.5730164   -0.2225210  0.00    0.0173229    0.0211282   -0.0008213
c     3.6497378    1.0737620   -0.3478256  0.00    0.0107366    0.0058669    0.0112742
c     4.7361460    0.0835260    0.1255276  0.00   -0.0531054    0.0364437    0.0372633
h     3.7300972    1.9962503    0.2583782  0.00    0.0037247   -0.0059356   -0.0041398
h     3.8456418    1.3749512   -1.3940248  0.00   -0.0024952   -0.0004818    0.0060876
c     6.0424392    0.8404671    0.3736111  0.00    0.1787134   -0.0194358   -0.0693264
n     4.9804930   -1.0050111   -0.8651889  0.00    0.0236790   -0.0330453   -0.0140540
h     4.4507150   -0.3597035    1.0973459  0.00    0.0035032   -0.0060801   -0.0133311
h     4.8674652   -1.9202841   -0.3894216  0.00   -0.0033320    0.0151686   -0.0041040
h     4.2690285   -0.9806101   -1.6219905  0.00    0.0031184    0.0028790    0.0138085
h    -2.4008616    2.9386183    0.0044189  0.00   -0.0004301    0.0001831    0.0000150
h    -2.1492926    0.4766955   -0.0750259  0.00   -0.0018490    0.0017207   -0.0000074
h    -0.4162766    4.3893811   -0.0347846  0.00    0.0004265    0.0001264    0.0001204
h     1.8400401    3.4105132   -0.1545706  0.00    0.0002417    0.0006312    0.0003428
h     2.3673679   -1.6277585   -0.3218643  0.00   -0.0131080   -0.0094007    0.0001924
o     7.1789137    0.5265778   -0.1953535  0.00   -0.1268517    0.0347880    0.0609266
o     5.9583879    1.9142026    1.2286719  0.00   -0.0285036   -0.0150046   -0.0105685
h     6.8748298    2.3198374    1.2667826  0.00   -0.0113691   -0.0151618   -0.0098781
    27
 Energy =       0.2038161625
c    -1.3682619    2.5814628   -0.0287741  0.00   -0.0191178    0.0159836    0.0011574
c    -1.2627053    1.2078793   -0.0370465  0.00   -0.0362056   -0.0142702    0.0007839
c    -0.0088194    0.6604785   -0.1125078  0.00   -0.0366580   -0.0778117    0.0000016
c    -0.2417597    3.3726924   -0.0976630  0.00   -0.0091313    0.0294248    0.0013112
c     1.0104024    2.8011228   -0.1807643  0.00    0.0060647    0.0274309    0.0004726
c     1.1146251    1.4253320   -0.1863495  0.00    0.0206242    0.0240702    0.0009502
n     0.3448940   -0.6946204   -0.1270497  0.00    0.0532251    0.0436114   -0.0017927
c     2.2156992    0.5907247   -0.2683143  0.00    0.0605829   -0.0234286   -0.0077088
c     1.7488503   -0.6908215   -0.2496089  0.00   -0.0386787   -0.0362350    0.0019846
h    -0.2839420   -1.5131432   -0.0712559  0.00    0.0130611    0.0159028   -0.0003487
c     3.6540034    1.0452718   -0.4269126  0.00    0.0093808    0.0044906    0.0103774
c     4.7042591    0.0413526    0.1038123  0.00   -0.0477265    0.0323268    0.0333963
h     3.7755673    2.0066287    0.1168541  0.00    0.0033008   -0.0019834   -0.0024190
h     3.8493074    1.2684634   -1.4961561  0.00   -0.0011915    0.0001012    0.0024159
c     6.0248990    0.7635285    0.3677217  0.00    0.1582836   -0.0185094   -0.0628531
n     4.9379790   -1.0856081   -0.8457875  0.00    0.0238485   -0.0285467   -0.0141791
h     4.3824738   -0.3599632    1.0851836  0.00    0.0024775   -0.0058920   -0.0105419
h     4.7681826   -1.9830074   -0.3465486  0.00   -0.0034656    0.0106410   -0.0018603
h     4.2587411   -1.0556560   -1.6337846  0.00    0.0015763    0.0030671    0.0110217
h    -2.3502784    3.0449978    0.0338397  0.00   -0.0007721    0.0001955    0.0000359
h    -2.1454983    0.5777810    0.0187242  0.00   -0.0025918    0.0007274    0.0000610
h    -0.3396013    4.4561340   -0.0891634  0.00    0.0004836    0.0006871    0.0001070
h     1.8937981    3.4310707   -0.2401252  0.00    0.0009913    0.0011989    0.0002602
h     2.3187631   -1.6130091   -0.3185570  0.00   -0.0114861   -0.0085692    0.0001334
o     7.1613933    0.4216169   -0.2069673  0.00   -0.1121209    0.0306221    0.0538592
o     5.9765350    1.8121603    1.2589663  0.00   -0.0294067   -0.0139511   -0.0089125
h     6.9171952    2.1610843    1.3471363  0.00   -0.0053478   -0.0112843   -0.0077134
    27
 Energy =       0.1907954460
c    -1.3562867    2.5159293   -0.0423041  0.00   -0.0030451    0.0027869    0.0002032
c    -1.2412938    1.1553217   -0.0400354  0.00   -0.0065084   -0.0025016   -0.0000935
c    -0.0017918    0.6176056   -0.1147644  0.00   -0.0068251   -0.0144536    0.0001823
c    -0.2398103    3.3038624   -0.1241588  0.00   -0.0015721    0.0051527    0.0004702
c     1.0011795    2.7374863   -0.2049116  0.00    0.0014524    0.0048783    0.0003297
c     1.0976257    1.3779698   -0.1947409  0.00    0.0030235    0.0051147    0.0004602
n     0.3370592   -0.7561606   -0.1388327  0.00    0.0085625    0.0078666   -0.0009474
c     2.1883164    0.5806567   -0.2670201  0.00    0.0116237   -0.0041337   -0.0017380
c     1.7606280   -0.7014381   -0.2466358  0.00   -0.0076004   -0.0056670    0.0007073
h    -0.2890207   -1.5897583   -0.0917417  0.00    0.0025430    0.0027258   -0.0002190
c     3.6220395    1.0587223   -0.4359310  0.00    0.0011024    0.0013211    0.0015843
c     4.6997636    0.0964654    0.1353356  0.00   -0.0086658    0.0058354    0.0072790
h     3.7214518    2.0354505    0.0893886  0.00    0.0003104    0.0003514   -0.0002350
h     3.8201449    1.2592749   -1.5114422  0.00   -0.0002924    0.0000956    0.0001614
c     5.9981335    0.8513262    0.3999826  0.00    0.0295719   -0.0046123   -0.0114454
n     4.9391869   -1.0513412   -0.7724143  0.00    0.0106103   -0.0068696    0.0025649
h     4.3742831   -0.2634452    1.1384278  0.00    0.0005093   -0.0013007   -0.0012636
h     4.7435140   -1.9478650   -0.2710736  0.00   -0.0014908    0.0018009    0.0003165
h     4.3372695   -1.0213674   -1.6330723  0.00   -0.0048299    0.0012823   -0.0048459
h    -2.3399188    2.9751971    0.0188897  0.00   -0.0001442    0.0000614    0.0000062
h    -2.1171956    0.5178099    0.0199170  0.00   -0.0005161    0.0001152   -0.0000096
h    -0.3409363    4.3867871   -0.1278077  0.00    0.0001089    0.0002056    0.0000374
h     1.8812229    3.3690235   -0.2766185  0.00    0.0006652   -0.0001085    0.0001337
h     2.3831224   -1.5882997   -0.3134524  0.00   -0.0007563   -0.0027310   -0.0000457
o     7.1854054    0.4946700   -0.2007798  0.00   -0.0212924    0.0059331    0.0100950
o     5.9776751    1.9402334    1.2616137  0.00   -0.0071484   -0.0019361   -0.0017555
h     6.9149345    2.3198374    1.3130841  0.00    0.0006042   -0.0012130   -0.0019325
    27
 Energy =       0.1906631545
c    -1.3501832    2.5118395   -0.0167120  0.00   -0.0025464    0.0017799    0.0001779
c    -1.2357483    1.1521876    0.0095783  0.00   -0.0048367   -0.0020950   -0.0000811
c     0.0006719    0.6123736   -0.0810165  0.00   -0.0049688   -0.0103655    0.0000389
c    -0.2353437    3.2967276   -0.1379029  0.00   -0.0007105    0.0039706    0.0003046
c     1.0027449    2.7279732   -0.2340514  0.00    0.0012622    0.0037379    0.0002265
c     1.0981425    1.3692751   -0.1990925  0.00    0.0023181    0.0036580    0.0003129
n     0.3354344   -0.7635200   -0.0868676  0.00    0.0054194    0.0055155   -0.0005116
c     2.1851428    0.5702963   -0.2812491  0.00    0.0081325   -0.0031841   -0.0008141
c     1.7572173   -0.7102596   -0.2317679  0.00   -0.0050049   -0.0040817    0.0003290
h    -0.2913422   -1.5956827   -0.0090733  0.00    0.0012973    0.0013182   -0.0000656
c     3.6173986    1.0383709   -0.4954815  0.00   -0.0000103    0.0005520    0.0011862
c     4.6981340    0.1151141    0.1373960  0.00   -0.0057920    0.0056134    0.0066673
h     3.7231506    2.0510744   -0.0391297  0.00    0.0004906    0.0029474    0.0009706
h     3.8073911    1.1653401   -1.5861585  0.00    0.0000378    0.0006129   -0.0025974
c     5.9917453    0.8901679    0.3664027  0.00    0.0207059   -0.0036599   -0.0085415
n     4.9455851   -1.0855989   -0.6997911  0.00    0.0095380   -0.0069078   -0.0005648
h     4.3690562   -0.1858416    1.1607357  0.00    0.0000934   -0.0013792    0.0009793
h     4.7274611   -1.9532909   -0.1551445  0.00   -0.0013997   -0.0009260    0.0017234
h     4.3721562   -1.0945976   -1.5801191  0.00   -0.0045018    0.0009609   -0.0053256
h    -2.3321848    2.9729302    0.0564270  0.00   -0.0002157    0.0000007    0.0000140
h    -2.1105507    0.5161995    0.1003524  0.00   -0.0007492   -0.0002338    0.0000309
h    -0.3357563    4.3796198   -0.1608671  0.00    0.0001767    0.0003560    0.0000140
h     1.8803106    3.3587962   -0.3377975  0.00    0.0009079    0.0002569    0.0000354
h     2.3782593   -1.5968044   -0.3053458  0.00   -0.0005406   -0.0019128   -0.0000151
o     7.1824388    0.5145433   -0.2258264  0.00   -0.0146851    0.0038032    0.0068634
o     5.9698541    2.0155303    1.1829293  0.00   -0.0050266    0.0002595   -0.0001065
h     6.9055164    2.4011900    1.2184747  0.00    0.0006084   -0.0005973   -0.0012509
    27
 Energy =       0.1906396856
c    -1.3390414    2.5092202    0.0509444  0.00   -0.0019621    0.0017500    0.0001183
c    -1.2282830    1.1494139    0.0437715  0.00   -0.0035782   -0.0015654   -0.0000422
c     0.0040619    0.6077289   -0.0791271  0.00   -0.0035750   -0.0068593    0.0001090
c    -0.2240970    3.2926635   -0.0701083  0.00   -0.0008844    0.0031191    0.0002244
c     1.0100578    2.7222061   -0.1989282  0.00    0.0010096    0.0028103    0.0001178
c     1.1017228    1.3627739   -0.1969259  0.00    0.0014112    0.0025795    0.0001816
n     0.3314445   -0.7702694   -0.1288375  0.00    0.0040017    0.0031924   -0.0003885
c     2.1832541    0.5615892   -0.3182620  0.00    0.0060088   -0.0023736   -0.0001908
c     1.7511622   -0.7177618   -0.2986495  0.00   -0.0034357   -0.0030424    0.0001422
h    -0.2979906   -1.6019094   -0.0625067  0.00    0.0008744    0.0007977   -0.0000384
c     3.6157401    1.0218895   -0.5488423  0.00   -0.0007212    0.0001487    0.0006060
c     4.6920436    0.1272158    0.1339110  0.00   -0.0039539    0.0046022    0.0056602
h     3.7223392    2.0540425   -0.1395022  0.00    0.0004125    0.0031877    0.0012121
h     3.8101786    1.1012182   -1.6433670  0.00    0.0001188    0.0006235   -0.0029221
c     5.9784407    0.9145868    0.3600220  0.00    0.0140092   -0.0028340   -0.0061377
n     4.9579923   -1.1022657   -0.6537315  0.00    0.0099572   -0.0051155   -0.0003127
h     4.3475150   -0.1383129    1.1623627  0.00   -0.0000411   -0.0010848    0.0014282
h     4.6871617   -1.9502653   -0.0994711  0.00   -0.0014303   -0.0025631    0.0030774
h     4.4422105   -1.1205357   -1.5698926  0.00   -0.0050571    0.0010680   -0.0070233
h    -2.3183551    2.9717966    0.1501615  0.00   -0.0004354    0.0002469    0.0000407
h    -2.1035377    0.5140702    0.1324696  0.00   -0.0005249   -0.0001802    0.0000274
h    -0.3214589    4.3763281   -0.0667770  0.00   -0.0000080    0.0006095    0.0000223
h     1.8861736    3.3542092   -0.3027013  0.00    0.0005847    0.0002343   -0.0000235
h     2.3673171   -1.6033157   -0.4168730  0.00   -0.0000263   -0.0021931   -0.0000438
o     7.1844888    0.5192435   -0.1954888  0.00   -0.0093348    0.0018808    0.0042233
o     5.9406128    2.0659759    1.1404984  0.00   -0.0039229    0.0013600    0.0008355
h     6.8755485    2.4524182    1.1847528  0.00    0.0005033   -0.0003993   -0.0009036
    27
 Energy =       0.1905423077
c    -1.3271410    2.5189600    0.0264148  0.00   -0.0011102    0.0009947    0.0000641
c    -1.2225963    1.1596900    0.0012704  0.00   -0.0019208   -0.0009813   -0.0000086
c     0.0066390    0.6141527   -0.1242047  0.00   -0.0019336   -0.0036770    0.0001163
c    -0.2084183    3.2981814   -0.0793577  0.00   -0.0004109    0.0017733    0.0000973
c     1.0228999    2.7238188   -0.2098590  0.00    0.0005581    0.0016597    0.0000414
c     1.1076355    1.3647976   -0.2260369  0.00    0.0008009    0.0013879    0.0000567
n     0.3258169   -0.7655337   -0.1921321  0.00    0.0021670    0.0015500   -0.0002451
c     2.1846309    0.5608981   -0.3513563  0.00    0.0030916   -0.0011084    0.0000163
c     1.7473042   -0.7159046   -0.3523811  0.00   -0.0019608   -0.0017734    0.0000947
h    -0.3087128   -1.5949712   -0.1414696  0.00    0.0003366    0.0002438   -0.0000157
c     3.6233992    1.0125023   -0.5597632  0.00   -0.0009153    0.0003127    0.0002346
c     4.6775216    0.1255633    0.1667310  0.00   -0.0023406    0.0025606    0.0034114
h     3.7263602    2.0511537   -0.1709613  0.00   -0.0000173    0.0019677    0.0007333
h     3.8429355    1.0688908   -1.6500796  0.00    0.0001462    0.0003986   -0.0021116
c     5.9567130    0.9116487    0.4364505  0.00    0.0046812   -0.0006481   -0.0024939
n     4.9682053   -1.1091660   -0.6002962  0.00    0.0062993   -0.0030586    0.0000420
h     4.2965974   -0.1311766    1.1845748  0.00   -0.0002330   -0.0006106    0.0014668
h     4.6809470   -1.9527868   -0.0493398  0.00   -0.0007537   -0.0015293    0.0018844
h     4.4869876   -1.1377930   -1.5328876  0.00   -0.0033267    0.0005650   -0.0048275
h    -2.3045408    2.9846845    0.1276890  0.00   -0.0002399    0.0001431    0.0000217
h    -2.1009381    0.5272084    0.0774892  0.00   -0.0003357   -0.0001757    0.0000217
h    -0.3005883    4.3820333   -0.0618499  0.00    0.0000065    0.0004462    0.0000072
h     1.9017032    3.3536863   -0.3004375  0.00    0.0003741    0.0002061   -0.0000290
h     2.3622200   -1.6005643   -0.4785387  0.00   -0.0001287   -0.0012272   -0.0000180
o     7.1937090    0.4853092   -0.0367357  0.00   -0.0001242   -0.0009407    0.0005791
o     5.8902577    2.0811830    1.1884620  0.00   -0.0046906    0.0013003    0.0013654
h     6.8271544    2.4574884    1.2775066  0.00    0.0019806    0.0002206   -0.0005049
    27
 Energy =       0.1909120659
c    -1.3306380    2.4976217    0.1048960  0.00   -0.0011633    0.0011577    0.0000792
c    -1.2209644    1.1393351    0.0559799  0.00   -0.0019285   -0.0008934    0.0000144
c     0.0083816    0.6008127   -0.0976639  0.00   -0.0017370   -0.0032449    0.0001197
c    -0.2167901    3.2829800   -0.0055963  0.00   -0.0006466    0.0018181    0.0001208
c     1.0147149    2.7157813   -0.1647447  0.00    0.0006650    0.0015417    0.0000131
c     1.1047379    1.3574068   -0.2047204  0.00    0.0006680    0.0012000    0.0000574
n     0.3315822   -0.7765837   -0.1939842  0.00    0.0019036    0.0011478   -0.0002203
c     2.1826314    0.5596652   -0.3613171  0.00    0.0029841   -0.0012052    0.0000207
c     1.7502470   -0.7186085   -0.3768868  0.00   -0.0015152   -0.0016901    0.0000466
h    -0.2989731   -1.6093070   -0.1468376  0.00    0.0002924    0.0001839   -0.0000136
c     3.6167085    1.0182546   -0.5868333  0.00   -0.0007367    0.0002953    0.0001299
c     4.6824418    0.1383179    0.1326925  0.00   -0.0016386    0.0016202    0.0029565
h     3.7184382    2.0593982   -0.2063784  0.00    0.0003061    0.0017933    0.0007820
h     3.8242198    1.0714061   -1.6793975  0.00    0.0001359    0.0003666   -0.0019639
c     5.9626844    0.9273332    0.3952331  0.00   -0.0064566   -0.0001038   -0.0019002
n     4.9717917   -1.0948768   -0.6368931  0.00    0.0054346   -0.0029434   -0.0000440
h     4.3104822   -0.1204441    1.1530250  0.00   -0.0001755   -0.0005187    0.0013512
h     4.6865825   -1.9396054   -0.0867983  0.00   -0.0006720   -0.0013628    0.0016908
h     4.4909787   -1.1230872   -1.5692610  0.00   -0.0029812    0.0005063   -0.0043300
h    -2.3083155    2.9577444    0.2289803  0.00   -0.0004563    0.0002936    0.0000511
h    -2.0955505    0.5020875    0.1354608  0.00   -0.0003394   -0.0001567    0.0000240
h    -0.3130277    4.3661408    0.0310907  0.00   -0.0000831    0.0005980    0.0000225
h     1.8891505    3.3511435   -0.2585465  0.00    0.0003338    0.0002235   -0.0000331
h     2.3666005   -1.5983890   -0.5297060  0.00    0.0001337   -0.0013953   -0.0000710
o     7.2224942    0.4064545    0.0666131  0.00    0.0152760   -0.0117261   -0.0056665
o     5.8822697    2.1717446    1.0301491  0.00   -0.0102233    0.0123026    0.0073079
h     6.8238238    2.5312273    1.1403464  0.00    0.0026202    0.0001921   -0.0005450
    27
 Energy =       0.1906361286
c    -1.3194534    2.5402091   -0.0090533  0.00   -0.0004878    0.0009817    0.0000815
c    -1.2195509    1.1804941   -0.0132387  0.00   -0.0005688   -0.0005572    0.0000350
c     0.0067997    0.6281809   -0.1323456  0.00   -0.0004538   -0.0001204    0.0000080
c    -0.1983201    3.3129796   -0.1286154  0.00   -0.0005903    0.0009694    0.0001200
c     1.0302837    2.7314110   -0.2512474  0.00    0.0002537    0.0007549    0.0000088
c     1.1094839    1.3723277   -0.2460807  0.00   -0.0002184    0.0001917    0.0000671
n     0.3204812   -0.7552102   -0.1752806  0.00    0.0006194   -0.0008164   -0.0000663
c     2.1832003    0.5632706   -0.3543946  0.00    0.0007958   -0.0002557    0.0000112
c     1.7434371   -0.7120681   -0.3326701  0.00   -0.0000658   -0.0006453   -0.0000365
h    -0.3173293   -1.5816723   -0.1110427  0.00   -0.0000867   -0.0002696    0.0000077
c     3.6259577    1.0053853   -0.5567777  0.00   -0.0000134    0.0000131   -0.0001126
c     4.6686703    0.1132614    0.1781085  0.00   -0.0002897   -0.0001097    0.0002609
h     3.7324928    2.0436219   -0.1729307  0.00    0.0002119    0.0002626    0.0001332
h     3.8523516    1.0557599   -1.6444074  0.00    0.0000308    0.0001199   -0.0005174
c     5.9488159    0.8888125    0.4749552  0.00   -0.0008921   -0.0002086   -0.0004674
n     4.9628518   -1.1150666   -0.5935295  0.00    0.0014664    0.0001028    0.0000591
h     4.2720637   -0.1487844    1.1875180  0.00   -0.0001353   -0.0001673    0.0005695
h     4.7108219   -1.9643338   -0.0350486  0.00   -0.0004302   -0.0010143    0.0007809
h     4.4626846   -1.1596651   -1.5126196  0.00   -0.0007130    0.0001537   -0.0013709
h    -2.2950361    3.0115152    0.0867029  0.00   -0.0004523    0.0004067    0.0000587
h    -2.0997413    0.5524416    0.0748180  0.00   -0.0001101   -0.0001460    0.0000088
h    -0.2864861    4.3976306   -0.1276625  0.00   -0.0001865    0.0007964    0.0000359
h     1.9115098    3.3561160   -0.3519439  0.00   -0.0000014    0.0002572   -0.0000354
h     2.3593594   -1.6001878   -0.4340220  0.00    0.0008231   -0.0014048   -0.0001641
o     7.2027761    0.3843796    0.1365691  0.00    0.0026780   -0.0023764   -0.0008222
o     5.8740783    2.1103820    1.1404416  0.00   -0.0019921    0.0027910    0.0013536
h     6.8144996    2.4627632    1.2726993  0.00    0.0008086    0.0002905   -0.0000071
    27
 Energy =       0.1905591030
c    -1.3166212    2.5490457   -0.0295420  0.00   -0.0004693    0.0009076    0.0000774
c    -1.2185656    1.1893647   -0.0018364  0.00   -0.0004182   -0.0007870    0.0000394
c     0.0063850    0.6328831   -0.1134859  0.00   -0.0003990   -0.0000905    0.0000249
c    -0.1950721    3.3174849   -0.1727498  0.00   -0.0002788    0.0009909    0.0000706
c     1.0320659    2.7316087   -0.2872013  0.00    0.0001891    0.0009313   -0.0000005
c     1.1093280    1.3729196   -0.2499211  0.00   -0.0000874    0.0001446    0.0000429
n     0.3181886   -0.7516349   -0.1241372  0.00    0.0006147   -0.0009915   -0.0000623
c     2.1814767    0.5606093   -0.3428301  0.00    0.0006571    0.0001288    0.0000218
c     1.7405294   -0.7135728   -0.2880765  0.00   -0.0002370   -0.0007889   -0.0000081
h    -0.3202932   -1.5757652   -0.0373053  0.00   -0.0002891   -0.0005412    0.0000393
c     3.6235925    0.9975627   -0.5602665  0.00    0.0000436    0.0000969   -0.0000698
c     4.6696921    0.1121700    0.1764317  0.00   -0.0003491    0.0000432    0.0003703
h     3.7349442    2.0393943   -0.1866836  0.00    0.0002650    0.0002463    0.0001569
h     3.8426212    1.0353929   -1.6499511  0.00    0.0000349    0.0000943   -0.0004648
c     5.9504930    0.8925202    0.4535319  0.00   -0.0050312    0.0006996    0.0005284
n     4.9573516   -1.1253027   -0.5828029  0.00    0.0012129    0.0002118    0.0000904
h     4.2803223   -0.1374224    1.1918460  0.00   -0.0001067   -0.0001261    0.0005026
h     4.7199412   -1.9679039   -0.0080408  0.00   -0.0003976   -0.0010406    0.0007740
h     4.4402352   -1.1859613   -1.4916040  0.00   -0.0007180    0.0000486   -0.0014263
h    -2.2910565    3.0237050    0.0596847  0.00   -0.0003321    0.0003330    0.0000510
h    -2.0990990    0.5645621    0.1054682  0.00   -0.0001939   -0.0002878    0.0000289
h    -0.2817654    4.4020615   -0.1970743  0.00   -0.0001151    0.0008946    0.0000231
h     1.9138814    3.3524152   -0.4067549  0.00    0.0000968    0.0003719   -0.0000427
h     2.3553066   -1.6044117   -0.3685029  0.00    0.0006127   -0.0012309   -0.0001294
o     7.1965819    0.4369718    0.0155990  0.00    0.0084216   -0.0050993   -0.0033664
o     5.8833812    2.0801001    1.1805520  0.00   -0.0041772    0.0045857    0.0028135
h     6.8228572    2.4451569    1.2845548  0.00    0.0014512    0.0002547   -0.0000850
    27
 Energy =       0.1903714651
c    -1.3158269    2.5487953   -0.0645629  0.00   -0.0004107    0.0005972    0.0000645
c    -1.2163636    1.1915214    0.0212231  0.00   -0.0000355   -0.0013161    0.0000881
c     0.0075111    0.6319454   -0.0795953  0.00   -0.0002637   -0.0000895    0.0000699
c    -0.1966715    3.3115587   -0.2533785  0.00    0.0005726    0.0009661   -0.0000846
c     1.0294025    2.7224462   -0.3555204  0.00    0.0000368    0.0012939   -0.0000525
c     1.1079785    1.3666909   -0.2599915  0.00    0.0002744    0.0000316   -0.0000182
n     0.3203114   -0.7516106   -0.0325748  0.00    0.0004982   -0.0012592   -0.0000141
c     2.1795349    0.5527743   -0.3278938  0.00    0.0002655    0.0010093    0.0000117
c     1.7407781   -0.7185308   -0.2122492  0.00   -0.0006190   -0.0010884    0.0000983
h    -0.3163747   -1.5721561    0.0969238  0.00   -0.0007985   -0.0012006    0.0001598
c     3.6187371    0.9826709   -0.5764460  0.00   -0.0000127    0.0002325    0.0000656
c     4.6721580    0.1246312    0.1801499  0.00   -0.0004051    0.0008255    0.0006947
h     3.7340084    2.0372116   -0.2394152  0.00    0.0003217    0.0006730    0.0002917
h     3.8265196    0.9812572   -1.6693936  0.00    0.0000542    0.0000943   -0.0007851
c     5.9510747    0.9191998    0.4169168  0.00   -0.0071178    0.0022223    0.0023952
n     4.9560565   -1.1385900   -0.5374726  0.00    0.0006566    0.0000410   -0.0003027
h     4.2927200   -0.0898588    1.2076153  0.00   -0.0000756   -0.0001097    0.0006558
h     4.7376806   -1.9610038    0.0731780  0.00   -0.0003186   -0.0012967    0.0007852
h     4.4206163   -1.2385686   -1.4320753  0.00   -0.0006495   -0.0003148   -0.0013932
h    -2.2894967    3.0259425    0.0148131  0.00    0.0000013    0.0000967    0.0000341
h    -2.0950127    0.5709243    0.1655537  0.00   -0.0004198   -0.0006397    0.0001063
h    -0.2844897    4.3941554   -0.3237253  0.00    0.0000864    0.0010468   -0.0000319
h     1.9094705    3.3382534   -0.5112933  0.00    0.0003707    0.0006368   -0.0000738
h     2.3560983   -1.6107131   -0.2573250  0.00    0.0000437   -0.0006334   -0.0000289
o     7.1731554    0.5346226   -0.1431541  0.00    0.0105087   -0.0043843   -0.0043615
o     5.9011717    2.0667472    1.2038218  0.00   -0.0044980    0.0022912    0.0017743
h     6.8359544    2.4536374    1.2647730  0.00    0.0019339    0.0002742   -0.0001488
    27
 Energy =       0.1901511091
c    -1.3116443    2.5640128   -0.0729958  0.00   -0.0001901    0.0001773    0.0000614
c    -1.2153335    1.2094648    0.0427315  0.00   -0.0000469   -0.0004780    0.0000540
c     0.0061906    0.6441190   -0.0544569  0.00   -0.0001076   -0.0000529    0.0000435
c    -0.1917932    3.3182547   -0.2872846  0.00    0.0002220    0.0003631   -0.0000015
c     1.0318522    2.7233194   -0.3849987  0.00    0.0000333    0.0004651    0.0000000
c     1.1072700    1.3706706   -0.2592875  0.00    0.0001227    0.0000228   -0.0000015
n     0.3157399   -0.7381282    0.0220717  0.00    0.0001278   -0.0004280    0.0000019
c     2.1762285    0.5528079   -0.3156663  0.00    0.0000975    0.0003976    0.0000135
c     1.7350532   -0.7134821   -0.1678330  0.00   -0.0001944   -0.0003872    0.0000157
h    -0.3221163   -1.5531030    0.1746850  0.00   -0.0003024   -0.0004619    0.0000596
c     3.6147354    0.9737008   -0.5820978  0.00    0.0001095    0.0001291   -0.0000046
c     4.6721795    0.1190162    0.1708549  0.00   -0.0002208    0.0002331    0.0000313
h     3.7374106    2.0298576   -0.2539255  0.00    0.0001983    0.0001085    0.0001440
h     3.8120898    0.9615591   -1.6764399  0.00    0.0000141    0.0000113   -0.0001654
c     5.9557940    0.9107420    0.3820570  0.00   -0.0077923    0.0003372    0.0022359
n     4.9436252   -1.1529041   -0.5346887  0.00   -0.0000002   -0.0001437   -0.0001075
h     4.3035662   -0.0820139    1.2046908  0.00   -0.0000265    0.0000096    0.0001696
h     4.7304211   -1.9666028    0.0880516  0.00   -0.0000557   -0.0002348    0.0001141
h     4.3953905   -1.2612578   -1.4197601  0.00   -0.0001288   -0.0000680   -0.0003480
h    -2.2833503    3.0457195    0.0028628  0.00   -0.0000189    0.0000231    0.0000557
h    -2.0945673    0.5955064    0.2076980  0.00   -0.0001809   -0.0002550    0.0000685
h    -0.2771474    4.3986420   -0.3814449  0.00    0.0000300    0.0003699    0.0000254
h     1.9127167    3.3318976   -0.5611495  0.00    0.0001606    0.0002516   -0.0000180
h     2.3479025   -1.6077010   -0.1953541  0.00    0.0000091   -0.0002294   -0.0000163
o     7.1356945    0.5962368   -0.3019072  0.00    0.0116713   -0.0057041   -0.0072139
o     5.9438276    2.0024200    1.2493931  0.00   -0.0050861    0.0054091    0.0050365
h     6.8749663    2.4011995    1.2730961  0.00    0.0015552    0.0001346   -0.0002541
    27
 Energy =       0.1899366340
c    -1.3428539    2.5028091   -0.1104706  0.00   -0.0007441    0.0012112   -0.0000157
c    -1.2205351    1.1560964    0.0722262  0.00   -0.0001426   -0.0020988    0.0003334
c     0.0102459    0.6081784   -0.0098547  0.00   -0.0004047   -0.0001653    0.0001295
c    -0.2391478    3.2664409   -0.3748911  0.00    0.0006273    0.0016808   -0.0002659
c     0.9942550    2.6888941   -0.4560795  0.00    0.0001047    0.0021075   -0.0002760
c     1.0956907    1.3443042   -0.2631151  0.00    0.0003752   -0.0000264   -0.0000258
n     0.3461221   -0.7642189    0.1329520  0.00    0.0009097   -0.0021620    0.0001481
c     2.1791354    0.5435763   -0.2896735  0.00    0.0004913    0.0013553   -0.0002012
c     1.7629648   -0.7231158   -0.0732402  0.00   -0.0008805   -0.0018901    0.0003067
h    -0.2750649   -1.5829861    0.3334381  0.00   -0.0012107   -0.0018859    0.0004021
c     3.6065464    0.9789471   -0.5926604  0.00   -0.0001788    0.0004538   -0.0004988
c     4.6906972    0.1703490    0.1743596  0.00   -0.0005795    0.0005913    0.0008935
h     3.7155811    2.0487966   -0.3033497  0.00    0.0003889    0.0009010    0.0002720
h     3.7878051    0.9307304   -1.6894921  0.00   -0.0001082    0.0001247   -0.0008664
c     5.9652764    0.9905252    0.3280296  0.00   -0.0059326    0.0017516    0.0032412