    24
 Energy =       0.1892111544
c    -0.3750178    1.6472058    0.7948734  0.00   -0.0659157    0.0168907    0.0567460
c     0.0303172    2.8109335    0.1570437  0.00   -0.0625013    0.0787850    0.0427676
c     1.0081136    2.7718125   -0.8262434  0.00    0.0134339    0.0924207   -0.0298756
c     0.2069418    0.4293490    0.4310970  0.00   -0.0250195   -0.0535501    0.0326500
c     1.2047783    0.3610782   -0.5608861  0.00    0.0997895   -0.0591246   -0.0624063
c     1.5988173    1.5541349   -1.1780186  0.00    0.0384980   -0.0134322   -0.0414758
o    -0.5069839    4.0230167    0.4710260  0.00    0.0145482    0.0063388   -0.0809721
h    -0.9503011    4.3787342   -0.3165291  0.00    0.0299476   -0.0427183    0.0550821
h     2.3707231    1.5818724   -1.9364796  0.00   -0.0011270    0.0159023    0.0049928
h    -0.1206493   -0.4779662    0.9373943  0.00   -0.0006668   -0.0021947    0.0025415
h    -1.1350442    1.6632136    1.5694669  0.00    0.0001753   -0.0117307    0.0025658
h     1.3163936    3.6907012   -1.3176857  0.00   -0.0001074    0.0014068   -0.0023786
c     1.7669373   -1.0073413   -0.8964724  0.00   -0.0783245    0.0072335    0.0076675
c     0.8861134   -2.0194266   -1.6556448  0.00    0.0511167   -0.0550079    0.0822517
h     2.1212937   -1.4658931    0.0371405  0.00   -0.0048704    0.0107910   -0.0080111
h     2.6645729   -0.8285312   -1.5058794  0.00   -0.0136390    0.0098505    0.0073864
c     0.2877588   -1.3395944   -2.9073099  0.00   -0.1245086    0.3157480   -0.0957741
o    -0.0664180   -0.1744118   -2.9918994  0.00    0.1030570   -0.2713941    0.0299486
o     0.1608327   -2.2305444   -3.9280651  0.00    0.2009513   -0.2167929    0.1992478
h    -0.8152750   -2.3380565   -4.0597500  0.00    0.0320938   -0.0013129    0.0271477
n     1.5974427   -3.2508470   -2.1301054  0.00   -0.0591054   -0.0671629   -0.1116106
h     0.0358579   -2.3311629   -1.0380560  0.00    0.0169909   -0.0105811   -0.0162132
h     1.2905400   -4.0382287   -1.5473940  0.00    0.0021398    0.0275840   -0.0197829
h     1.2573657   -3.4835548   -3.0659095  0.00   -0.1669563    0.2220511   -0.0824949
    24
 Energy =       0.1651250800
c    -0.3289724    1.6444789    0.7767264  0.00   -0.0547109    0.0135848    0.0473453
c     0.0556992    2.7978361    0.1194671  0.00   -0.0489919    0.0610080    0.0354583
c     1.0516425    2.7575976   -0.8382103  0.00    0.0120217    0.0763844   -0.0250761
c     0.2673659    0.4331426    0.4387494  0.00   -0.0208502   -0.0454780    0.0270576
c     1.2598821    0.3640245   -0.5478382  0.00    0.0830901   -0.0494906   -0.0518728
c     1.6529422    1.5476029   -1.1692302  0.00    0.0322725   -0.0114509   -0.0349466
o    -0.5646351    3.9981141    0.3589975  0.00    0.0102988    0.0108616   -0.0616348
h    -0.9962763    4.2870002   -0.4752822  0.00    0.0226228   -0.0345695    0.0409268
h     2.4228265    1.5647591   -1.9308303  0.00   -0.0009340    0.0133023    0.0041396
h    -0.0592400   -0.4719407    0.9485482  0.00   -0.0005497   -0.0019188    0.0020536
h    -1.1095915    1.6659321    1.5306725  0.00   -0.0002343   -0.0095765    0.0023910
h     1.3448003    3.6713767   -1.3480877  0.00   -0.0000931    0.0015513   -0.0020584
c     1.8101328   -1.0020802   -0.9112101  0.00   -0.0652602    0.0071097    0.0073257
c     0.8653658   -1.9894255   -1.6244456  0.00    0.0416514   -0.0448026    0.0679511
h     2.2009123   -1.4695749    0.0063792  0.00   -0.0035807    0.0089653   -0.0060152
h     2.6808926   -0.8386433   -1.5685760  0.00   -0.0102090    0.0083203    0.0052019
c     0.2587156   -1.3235189   -2.8749430  0.00   -0.1042557    0.2649527   -0.0798470
o    -0.0966419   -0.1303595   -2.9583377  0.00    0.0864254   -0.2273362    0.0251059
o     0.0914228   -2.2147092   -3.8958108  0.00    0.1755745   -0.1845286    0.1681934
h    -0.8938301   -2.3553547   -3.9638266  0.00    0.0223439   -0.0017067    0.0228969
n     1.5311034   -3.2539675   -2.0702628  0.00   -0.0475871   -0.0564849   -0.0958522
h     0.0197638   -2.2475953   -0.9696981  0.00    0.0126629   -0.0090043   -0.0123402
h     1.1756289   -4.0235644   -1.4829099  0.00    0.0009454    0.0213161   -0.0154133
h     1.1952012   -3.4846375   -3.0143273  0.00   -0.1426527    0.1889913   -0.0709905
    24
 Energy =       0.1578229086
c    -0.2785355    1.6334131    0.8020838  0.00   -0.0516726    0.0130293    0.0446324
c     0.1033694    2.7929059    0.1580088  0.00   -0.0449884    0.0543978    0.0324981
c     1.0645085    2.7564588   -0.8332277  0.00    0.0120147    0.0716037   -0.0244065
c     0.2979037    0.4233584    0.4336587  0.00   -0.0196855   -0.0433727    0.0256421
c     1.2661549    0.3611181   -0.5745456  0.00    0.0786740   -0.0469450   -0.0491401
c     1.6476521    1.5475445   -1.1945893  0.00    0.0309261   -0.0112322   -0.0333007
o    -0.4661895    4.0042829    0.4753153  0.00    0.0098216    0.0127541   -0.0516768
h    -0.9474387    4.3444962   -0.3165291  0.00    0.0186614   -0.0305865    0.0341341
h     2.3967090    1.5668769   -1.9774369  0.00   -0.0005539    0.0124843    0.0035770
h    -0.0202316   -0.4851852    0.9424017  0.00   -0.0005803   -0.0018375    0.0019922
h    -1.0309998    1.6545716    1.5851996  0.00   -0.0008361   -0.0087967    0.0028618
h     1.3562703    3.6762226   -1.3328135  0.00   -0.0001037    0.0015867   -0.0019622
c     1.8079711   -1.0006314   -0.9658142  0.00   -0.0618165    0.0070164    0.0069960
c     0.8345996   -1.9834685   -1.6440247  0.00    0.0390049   -0.0421618    0.0639241
h     2.2347539   -1.4721581   -0.0650106  0.00   -0.0030009    0.0082517   -0.0050441
h     2.6534221   -0.8353720   -1.6574729  0.00   -0.0089770    0.0078823    0.0043381
c     0.2191727   -1.3290154   -2.8949793  0.00   -0.0984822    0.2504573   -0.0755660
o    -0.1379415   -0.1285794   -2.9815530  0.00    0.0816876   -0.2148601    0.0237515
o     0.0435925   -2.2230778   -3.9143922  0.00    0.1668311   -0.1746328    0.1590809
h    -0.9415812   -2.3815909   -3.9614282  0.00    0.0204715   -0.0017157    0.0216433
n     1.4808812   -3.2622398   -2.0742712  0.00   -0.0446176   -0.0534610   -0.0910924
h    -0.0032057   -2.2169585   -0.9687567  0.00    0.0115706   -0.0085825   -0.0113243
h     1.1053239   -4.0215188   -1.4838859  0.00    0.0007447    0.0198051   -0.0143325
h     1.1489491   -3.4949600   -3.0202235  0.00   -0.1350935    0.1789158   -0.0672262
    24
 Energy =       0.1385394274
c    -0.2065133    1.6118526    0.8332008  0.00   -0.0416425    0.0107505    0.0355446
c     0.1646375    2.7732841    0.1991621  0.00   -0.0355096    0.0413394    0.0247611
c     1.0861779    2.7422813   -0.8223403  0.00    0.0100686    0.0569922   -0.0202370
c     0.3474021    0.4076175    0.4370235  0.00   -0.0160197   -0.0348872    0.0207513
c     1.2811194    0.3544917   -0.5943387  0.00    0.0631273   -0.0375090   -0.0390774
c     1.6481570    1.5394681   -1.2133703  0.00    0.0252279   -0.0093876   -0.0266678
o    -0.3665207    3.9876481    0.5854769  0.00    0.0100533    0.0107066   -0.0346826
h    -0.9134085    4.3629104   -0.1577759  0.00    0.0111468   -0.0219635    0.0227300
h     2.3693547    1.5559460   -2.0236517  0.00    0.0000728    0.0098414    0.0022725
h     0.0402045   -0.5043670    0.9454068  0.00   -0.0005752   -0.0014899    0.0016813
h    -0.9295196    1.6348899    1.6441448  0.00   -0.0012601   -0.0068214    0.0029159
h     1.3715988    3.6670138   -1.3154978  0.00   -0.0000679    0.0013347   -0.0016114
c     1.8111986   -0.9988890   -1.0288360  0.00   -0.0491249    0.0058384    0.0054531
c     0.7938528   -1.9566168   -1.6756123  0.00    0.0305553   -0.0332774    0.0505951
h     2.2684770   -1.4902327   -0.1507960  0.00   -0.0018516    0.0063100   -0.0033998
h     2.6319327   -0.8354819   -1.7540428  0.00   -0.0065792    0.0062232    0.0028241
c     0.1731731   -1.3137264   -2.9251351  0.00   -0.0791901    0.2005557   -0.0604039
o    -0.1849098   -0.0858408   -3.0077379  0.00    0.0654727   -0.1718921    0.0191992
o    -0.0292373   -2.2027190   -3.9502523  0.00    0.1452450   -0.1421350    0.1286854
h    -1.0106283   -2.4272352   -3.9245706  0.00    0.0082546   -0.0028949    0.0182082
n     1.4148154   -3.2520836   -2.0785611  0.00   -0.0351356   -0.0429857   -0.0737316
h    -0.0384397   -2.1541110   -0.9775388  0.00    0.0086556   -0.0069462   -0.0084966
h     1.0218272   -3.9982126   -1.4772796  0.00    0.0003685    0.0154928   -0.0111501
h     1.0903589   -3.4913943   -3.0313641  0.00   -0.1112921    0.1468049   -0.0561635
    24
 Energy =       0.1138997051
c    -0.1120763    1.5761159    0.8794823  0.00   -0.0222728    0.0057813    0.0179423
c     0.2299900    2.7347447    0.2477600  0.00   -0.0185612    0.0206196    0.0116373
c     1.1034907    2.7126168   -0.8014892  0.00    0.0055476    0.0291690   -0.0108359
c     0.4175544    0.3845929    0.4573865  0.00   -0.0092470   -0.0175461    0.0112628
c     1.2982363    0.3455463   -0.6026051  0.00    0.0329791   -0.0186211   -0.0193850
c     1.6416797    1.5239664   -1.2228411  0.00    0.0135109   -0.0051997   -0.0132297
o    -0.2940535    3.9428050    0.6811235  0.00    0.0161031    0.0015158   -0.0063779
h    -0.9593797    4.2956958    0.0009772  0.00   -0.0056331   -0.0066874    0.0017442
h     2.3226443    1.5329299   -2.0701367  0.00    0.0009704    0.0047531   -0.0000084
h     0.1295344   -0.5316979    0.9676747  0.00   -0.0005468   -0.0007838    0.0011434
h    -0.8029098    1.6025628    1.7176174  0.00   -0.0013072   -0.0033328    0.0021450
h     1.3690516    3.6416182   -1.2963688  0.00    0.0001350    0.0008040   -0.0010272
c     1.8183184   -0.9917913   -1.0953775  0.00   -0.0240746    0.0027839    0.0016537
c     0.7509487   -1.8977686   -1.7366175  0.00    0.0145831   -0.0169191    0.0246393
h     2.2827583   -1.5259661   -0.2411590  0.00   -0.0003461    0.0025790   -0.0010743
h     2.6291808   -0.8309320   -1.8367239  0.00   -0.0033088    0.0030423    0.0011905
c     0.1330128   -1.2581505   -2.9808169  0.00   -0.0438893    0.1022012   -0.0295728
o    -0.2313493    0.0231918   -3.0386865  0.00    0.0333437   -0.0875360    0.0113034
o    -0.1246216   -2.1222021   -4.0268049  0.00    0.1597906   -0.0601114    0.0536561
h    -1.0548209   -2.5671703   -3.8004145  0.00   -0.0626729   -0.0303306    0.0314125
n     1.3549763   -3.2021251   -2.1048106  0.00   -0.0173715   -0.0205480   -0.0390634
h    -0.0827942   -2.0602802   -1.0231462  0.00    0.0039980   -0.0036772   -0.0040301
h     0.9787069   -3.9385299   -1.4714654  0.00   -0.0001370    0.0072923   -0.0048502
h     1.0370325   -3.4632791   -3.0668444  0.00   -0.0715934    0.0907516   -0.0402756
    24
 Energy =       0.1029678745
c    -0.0592342    1.5539400    0.9068211  0.00   -0.0134842    0.0037364    0.0108927
c     0.2750877    2.7146198    0.2838302  0.00   -0.0123196    0.0124005    0.0058663
c     1.1258944    2.7000798   -0.7769030  0.00    0.0029463    0.0178859   -0.0066393
c     0.4541187    0.3684928    0.4645053  0.00   -0.0057602   -0.0105404    0.0069554
c     1.3072016    0.3390732   -0.6104874  0.00    0.0201800   -0.0112231   -0.0116667
c     1.6446024    1.5180074   -1.2227735  0.00    0.0083946   -0.0034271   -0.0079489
o    -0.2407070    3.9205613    0.7376078  0.00    0.0376472   -0.0065959    0.0184965
h    -1.0592890    4.1838136    0.1597303  0.00   -0.0302918    0.0034050   -0.0200750
h     2.3060551    1.5280343   -2.0856003  0.00    0.0007882    0.0027448   -0.0002524
h     0.1735103   -0.5520385    0.9704679  0.00   -0.0003724   -0.0004879    0.0007468
h    -0.7332722    1.5782169    1.7578614  0.00   -0.0009746   -0.0019207    0.0014576
h     1.3849084    3.6337995   -1.2657101  0.00    0.0000446    0.0005656   -0.0006286
c     1.8209861   -0.9894461   -1.1319289  0.00   -0.0142658    0.0015428    0.0008050
c     0.7333665   -1.8750057   -1.7692119  0.00    0.0086177   -0.0099260    0.0145985
h     2.2904106   -1.5413174   -0.2901553  0.00   -0.0000962    0.0013998   -0.0005181
h     2.6260467   -0.8274133   -1.8810107  0.00   -0.0019672    0.0017888    0.0006450
c     0.1126287   -1.2363761   -3.0110947  0.00   -0.0265934    0.0607642   -0.0171665
o    -0.2298507    0.0739020   -3.0664063  0.00    0.0206411   -0.0517192    0.0069524
o    -0.1857956   -2.0831974   -4.0645507  0.00    0.1011810   -0.0416675    0.0357165
h    -1.1148572   -2.4972025   -3.8597260  0.00   -0.0376704   -0.0193196    0.0194229
n     1.3293414   -3.1858975   -2.1151681  0.00   -0.0103187   -0.0120090   -0.0238267
h    -0.1002973   -2.0196295   -1.0487804  0.00    0.0022867   -0.0022302   -0.0023312
h     0.9562763   -3.9140205   -1.4670451  0.00   -0.0001569    0.0042351   -0.0027235
h     1.0179788   -3.4645029   -3.0785579  0.00   -0.0484561    0.0605975   -0.0287786
    24
 Energy =       0.1008676266
c     0.0424305    1.5384256    0.9805673  0.00   -0.0144282    0.0018541    0.0135395
c     0.3061631    2.6975657    0.3188031  0.00   -0.0133880    0.0126804    0.0050548
c     1.0824416    2.6872821   -0.8024706  0.00    0.0045088    0.0180151   -0.0098076
c     0.5443474    0.3576906    0.5140499  0.00   -0.0072891   -0.0103923    0.0092493
c     1.3246119    0.3328411   -0.6177522  0.00    0.0198611   -0.0117251   -0.0118130
c     1.5976527    1.5108826   -1.2663135  0.00    0.0089925   -0.0019779   -0.0094812
o    -0.2091421    3.8951210    0.7972304  0.00    0.0518489   -0.0129317    0.0362672
h    -0.9269078    4.2546623    0.1229208  0.00   -0.0438944    0.0094314   -0.0360231
h     2.1985243    1.5224244   -2.1756528  0.00    0.0023446    0.0031395   -0.0028207
h     0.3130572   -0.5633137    1.0467405  0.00   -0.0011329   -0.0014914    0.0020897
h    -0.5745191    1.5600971    1.8769255  0.00   -0.0024802   -0.0021829    0.0037368
h     1.2885394    3.6193277   -1.3222923  0.00    0.0007803    0.0019459   -0.0019862
c     1.8183610   -0.9924412   -1.1664970  0.00   -0.0131238    0.0017592    0.0002742
c     0.7039225   -1.8656972   -1.7751056  0.00    0.0078378   -0.0090333    0.0135206
h     2.3116739   -1.5541071   -0.3441825  0.00    0.0002526    0.0011524   -0.0000854
h     2.6015582   -0.8275067   -1.9385956  0.00   -0.0015036    0.0016353    0.0002488
c     0.0759805   -1.2284860   -3.0145815  0.00   -0.0251852    0.0574377   -0.0163342
o    -0.2515073    0.0871870   -3.0737266  0.00    0.0196987   -0.0487582    0.0067534
o    -0.2344710   -2.0729230   -4.0664714  0.00    0.0960025   -0.0395573    0.0338366
h    -1.1649804   -2.4792758   -3.8599650  0.00   -0.0357547   -0.0183516    0.0184175
n     1.2711858   -3.1922889   -2.1120098  0.00   -0.0092308   -0.0114999   -0.0231685
h    -0.1205326   -1.9843671   -1.0383286  0.00    0.0017388   -0.0020907   -0.0019187
h     0.8701028   -3.9104058   -1.4684731  0.00   -0.0003850    0.0034297   -0.0021636
h     0.9666178   -3.4662012   -3.0791060  0.00   -0.0460705    0.0575116   -0.0273861
    24
 Energy =       0.0928260182
c     0.1531126    1.5009161    1.0523017  0.00   -0.0102871    0.0009773    0.0103214
c     0.3664645    2.6623603    0.3813570  0.00   -0.0094185    0.0082185    0.0033577
c     1.0800181    2.6610114   -0.7797884  0.00    0.0036418    0.0118107   -0.0077386
c     0.6306582    0.3267495    0.5514827  0.00   -0.0058164   -0.0065703    0.0074823
c     1.3427213    0.3124699   -0.6216222  0.00    0.0134464   -0.0074011   -0.0083595
c     1.5761397    1.4927578   -1.2753947  0.00    0.0064043   -0.0013458   -0.0069652
o    -0.1455830    3.8511779    0.8915823  0.00    0.0394780   -0.0099319    0.0306151
h    -0.7835064    4.2864972    0.1932992  0.00   -0.0343818    0.0079515   -0.0294555
h     2.1247077    1.5086602   -2.2180241  0.00    0.0024678    0.0019298   -0.0034800
h     0.4315985   -0.5987590    1.0889066  0.00   -0.0010841   -0.0012110    0.0019267
h    -0.4157659    1.5166354    1.9802384  0.00   -0.0025478   -0.0013639    0.0037866
h     1.2510173    3.5950519   -1.3079666  0.00    0.0008353    0.0016569   -0.0017964
c     1.8066141   -1.0056490   -1.2136121  0.00   -0.0074632    0.0010906   -0.0006962
c     0.6585889   -1.8443348   -1.8123512  0.00    0.0044349   -0.0051556    0.0080049
h     2.3095780   -1.5951171   -0.4155061  0.00    0.0006102    0.0003713    0.0004144
h     2.5755795   -0.8376566   -2.0000073  0.00   -0.0008057    0.0008887   -0.0000574
c     0.0329396   -1.1920428   -3.0464655  0.00   -0.0157567    0.0339803   -0.0089013
o    -0.2310258    0.1510535   -3.1092984  0.00    0.0129061   -0.0270196    0.0045507
o    -0.3372440   -2.0149288   -4.0987915  0.00    0.0635029   -0.0273565    0.0217240
h    -1.2796998   -2.3715518   -3.8994466  0.00   -0.0237029   -0.0130184    0.0118423
n     1.1902241   -3.1883687   -2.1366392  0.00   -0.0050034   -0.0075834   -0.0151046
h    -0.1621784   -1.9332014   -1.0652596  0.00    0.0006294   -0.0012814   -0.0009847
h     0.7625823   -3.8940170   -1.4943298  0.00   -0.0005100    0.0015865   -0.0009322
h     0.8975694   -3.4632206   -3.1089511  0.00   -0.0315795    0.0387768   -0.0195547
    24
 Energy =       0.0888729496
c     0.2464079    1.4552147    1.1138575  0.00   -0.0080694    0.0013690    0.0084715
c     0.4393758    2.6243930    0.4531689  0.00   -0.0073176    0.0060432    0.0025585
c     1.1106737    2.6350291   -0.7321069  0.00    0.0027883    0.0090246   -0.0061986
c     0.6935663    0.2857394    0.5767679  0.00   -0.0045604   -0.0049943    0.0060372
c     1.3588736    0.2844656   -0.6216067  0.00    0.0104146   -0.0052901   -0.0066009
c     1.5802934    1.4722815   -1.2622258  0.00    0.0051383   -0.0014261   -0.0056127
o    -0.0552171    3.8069858    0.9993130  0.00    0.0331628   -0.0094512    0.0288299
h    -0.6247533    4.3146131    0.2952798  0.00   -0.0297776    0.0086589   -0.0271116
h     2.0941514    1.4973254   -2.2239188  0.00    0.0021780    0.0012046   -0.0033175
h     0.5054515   -0.6469977    1.1048799  0.00   -0.0008688   -0.0009762    0.0015575
h    -0.2888352    1.4615347    2.0613726  0.00   -0.0023220   -0.0008442    0.0034667
h     1.2690098    3.5746813   -1.2532128  0.00    0.0006659    0.0013185   -0.0013914
c     1.7840884   -1.0276232   -1.2569812  0.00   -0.0045598    0.0007113   -0.0012895
c     0.6042619   -1.8212888   -1.8596248  0.00    0.0025648   -0.0034842    0.0055299
h     2.2845845   -1.6511416   -0.4823990  0.00    0.0009491   -0.0001751    0.0008459
h     2.5460342   -0.8572278   -2.0498492  0.00   -0.0005479    0.0005494   -0.0001239
c    -0.0069708   -1.1372887   -3.0856969  0.00   -0.0112005    0.0229453   -0.0051146
o    -0.1919691    0.2260951   -3.1475491  0.00    0.0094693   -0.0152951    0.0035579
o    -0.4401714   -1.9318943   -4.1375421  0.00    0.0474936   -0.0219713    0.0147434
h    -1.3885562   -2.2518264   -3.9256670  0.00   -0.0183182   -0.0101632    0.0086899
n     1.0916464   -3.1815500   -2.1888733  0.00   -0.0023655   -0.0058679   -0.0113809
h    -0.2160064   -1.8861247   -1.1086182  0.00    0.0000764   -0.0008971   -0.0006579
h     0.6266204   -3.8792537   -1.5622532  0.00   -0.0008981    0.0000400    0.0000470
h     0.8125508   -3.4396488   -3.1708012  0.00   -0.0240950    0.0289710   -0.0155359
    24
 Energy =       0.0867007229
c     0.3263824    1.4063072    1.1641343  0.00   -0.0067036    0.0017509    0.0072613
c     0.5196731    2.5851507    0.5225135  0.00   -0.0059203    0.0047962    0.0020815
c     1.1632343    2.6083979   -0.6772152  0.00    0.0021317    0.0076418   -0.0049770
c     0.7398480    0.2407993    0.5926045  0.00   -0.0035838   -0.0043439    0.0048808
c     1.3737718    0.2530624   -0.6211806  0.00    0.0085962   -0.0041675   -0.0053369
c     1.6014833    1.4497255   -1.2408793  0.00    0.0044026   -0.0014915   -0.0047610
o     0.0508158    3.7635097    1.1033695  0.00    0.0284836   -0.0087646    0.0268471
h    -0.4660002    4.3294532    0.4067912  0.00   -0.0262796    0.0091236   -0.0248394
h     2.0927171    1.4853191   -2.2136617  0.00    0.0019020    0.0007952   -0.0029894
h     0.5480753   -0.6997182    1.1050755  0.00   -0.0006872   -0.0009673    0.0012728
h    -0.1862285    1.4024895    2.1236521  0.00   -0.0020531   -0.0005166    0.0030811
h     1.3240855    3.5550772   -1.1841150  0.00    0.0005162    0.0012140   -0.0011008
c     1.7564287   -1.0528074   -1.2973529  0.00   -0.0027381    0.0004430   -0.0015927
c     0.5463807   -1.7968910   -1.9071824  0.00    0.0012923   -0.0024506    0.0044811
h     2.2484022   -1.7112242   -0.5455537  0.00    0.0012681   -0.0006340    0.0012247
h     2.5143981   -0.8819589   -2.0939873  0.00   -0.0003847    0.0003550   -0.0001380
c    -0.0525866   -1.0699607   -3.1165562  0.00   -0.0087581    0.0178800   -0.0029221
o    -0.1834432    0.3039612   -3.1535189  0.00    0.0073883   -0.0096931    0.0028781
o    -0.5353679   -1.8240867   -4.1777781  0.00    0.0376342   -0.0189234    0.0098272
h    -1.4760313   -2.1428398   -3.9431034  0.00   -0.0149330   -0.0080339    0.0070874
n     0.9891032   -3.1677257   -2.2589011  0.00   -0.0007198   -0.0053423   -0.0090072
h    -0.2702937   -1.8471846   -1.1507603  0.00   -0.0001854   -0.0006294   -0.0005298
h     0.4939545   -3.8621390   -1.6509712  0.00   -0.0010962   -0.0008837    0.0004900
h     0.7163078   -3.4002232   -3.2497096  0.00   -0.0195724    0.0228420   -0.0132190
    24
 Energy =       0.0856415109
c     0.4018670    1.3596283    1.2040744  0.00   -0.0059785    0.0020298    0.0066507
c     0.6100407    2.5465357    0.5827541  0.00   -0.0050689    0.0041782    0.0018008
c     1.2352692    2.5787514   -0.6259898  0.00    0.0016935    0.0071904   -0.0041257
c     0.7783260    0.1963444    0.6026125  0.00   -0.0029449   -0.0042394    0.0040954
c     1.3908114    0.2184274   -0.6211303  0.00    0.0075811   -0.0035886   -0.0044210
c     1.6378031    1.4219105   -1.2192268  0.00    0.0040772   -0.0014773   -0.0042760
o     0.1731405    3.7234266    1.1934536  0.00    0.0253808   -0.0078487    0.0252126
h    -0.3072470    4.3317761    0.5093158  0.00   -0.0239393    0.0092702   -0.0230006
h     2.1130761    1.4653598   -2.1993036  0.00    0.0017461    0.0005807   -0.0027521
h     0.5720854   -0.7500647    1.0984596  0.00   -0.0005807   -0.0011516    0.0011184
h    -0.0955851    1.3485079    2.1711446  0.00   -0.0018609   -0.0003257    0.0028046
h     1.4090089    3.5312496   -1.1174600  0.00    0.0004254    0.0013157   -0.0009522
c     1.7250914   -1.0824271   -1.3338258  0.00   -0.0014273    0.0001730   -0.0017372
c     0.4838510   -1.7728827   -1.9476396  0.00    0.0002986   -0.0015161    0.0044670
h     2.2047343   -1.7748727   -0.6040755  0.00    0.0016148   -0.0010654    0.0015739
h     2.4793352   -0.9157722   -2.1348965  0.00   -0.0002311    0.0002169   -0.0001401
c    -0.1091169   -0.9942916   -3.1298130  0.00   -0.0075134    0.0153066   -0.0016301
o    -0.2148315    0.3842212   -3.1171902  0.00    0.0060474   -0.0063690    0.0023479
o    -0.6227599   -1.6982132   -4.2117689  0.00    0.0320048   -0.0171685    0.0059959
h    -1.5528500   -2.0333945   -3.9635857  0.00   -0.0132340   -0.0068342    0.0065285
n     0.8802788   -3.1491510   -2.3368511  0.00    0.0005492   -0.0059264   -0.0074972
h    -0.3239532   -1.8161452   -1.1810582  0.00   -0.0003663   -0.0003536   -0.0004178
h     0.3624415   -3.8436582   -1.7476417  0.00   -0.0011949   -0.0014830    0.0006448
h     0.6042938   -3.3487722   -3.3346445  0.00   -0.0170788    0.0190858   -0.0122905
    24
 Energy =       0.0855421289
c     0.3280283    1.4054094    1.1709030  0.00   -0.0064424    0.0024244    0.0073169
c     0.5047674    2.5874602    0.5295574  0.00   -0.0052007    0.0046223    0.0017252
c     1.1368500    2.6167300   -0.6759774  0.00    0.0015355    0.0084194   -0.0040636
c     0.7460061    0.2426510    0.5940647  0.00   -0.0028573   -0.0051079    0.0040748
c     1.3686631    0.2610516   -0.6249369  0.00    0.0079211   -0.0036771   -0.0040917
c     1.5799822    1.4611577   -1.2448754  0.00    0.0045774   -0.0013098   -0.0045364
o     0.0305359    3.7620414    1.1178368  0.00    0.0264428   -0.0074075    0.0269985
h    -0.4613995    4.3487520    0.4210752  0.00   -0.0253262    0.0100556   -0.0243667
h     2.0637520    1.5013443   -2.2211733  0.00    0.0018845    0.0005772   -0.0029371
h     0.5678631   -0.7009222    1.1071832  0.00   -0.0006049   -0.0018145    0.0012860
h    -0.1754045    1.3967167    2.1350873  0.00   -0.0019656   -0.0002918    0.0029608
h     1.2857130    3.5656783   -1.1832753  0.00    0.0004260    0.0018638   -0.0010837
c     1.7622572   -1.0429358   -1.3040730  0.00   -0.0002503   -0.0000509   -0.0019251
c     0.5557138   -1.7989503   -1.9137380  0.00   -0.0009077   -0.0004217    0.0058740
h     2.2632104   -1.6984598   -0.5530667  0.00    0.0023707   -0.0017593    0.0022983
h     2.5179419   -0.8648074   -2.1014597  0.00   -0.0000176    0.0001570   -0.0001430
c    -0.0432712   -1.0865312   -3.1358510  0.00   -0.0079529    0.0155681   -0.0007820
o    -0.1578298    0.2918251   -3.1979627  0.00    0.0057459   -0.0032077    0.0019848
o    -0.5452321   -1.8543368   -4.1827946  0.00    0.0329311   -0.0192931    0.0025618
h    -1.4863770   -2.1584979   -3.9326552  0.00   -0.0145929   -0.0071329    0.0075330
n     1.0069007   -3.1747043   -2.2473191  0.00    0.0029514   -0.0078292   -0.0070156
h    -0.2647610   -1.8431815   -1.1606045  0.00   -0.0006581   -0.0000044   -0.0003226
h     0.5211946   -3.8658468   -1.6258807  0.00   -0.0018182   -0.0031575    0.0013643
h     0.7300061   -3.4251505   -3.2343505  0.00   -0.0181917    0.0187775   -0.0147107
    24
 Energy =       0.0849569379
c     0.3189708    1.3855633    1.1717325  0.00   -0.0060202    0.0022415    0.0069087
c     0.4829782    2.5750241    0.5410919  0.00   -0.0048426    0.0043263    0.0015378
c     1.1120200    2.6210829   -0.6653074  0.00    0.0014380    0.0079372   -0.0038374
c     0.7463254    0.2321351    0.5835882  0.00   -0.0026790   -0.0048448    0.0038506
c     1.3658505    0.2676601   -0.6362097  0.00    0.0073445   -0.0034139   -0.0038310
c     1.5648196    1.4752631   -1.2451672  0.00    0.0043295   -0.0011847   -0.0043012
o    -0.0011657    3.7393933    1.1420300  0.00    0.0246881   -0.0068766    0.0255662
h    -0.4759727    4.3424942    0.4494444  0.00   -0.0237055    0.0095078   -0.0229823
h     2.0477977    1.5291187   -2.2211119  0.00    0.0017889    0.0005379   -0.0028193
h     0.5793678   -0.7175250    1.0890306  0.00   -0.0005826   -0.0017834    0.0012523
h    -0.1817315    1.3635787    2.1369879  0.00   -0.0018694   -0.0002726    0.0028345
h     1.2516683    3.5757062   -1.1643865  0.00    0.0004077    0.0018158   -0.0010497
c     1.7771597   -1.0251286   -1.3258765  0.00   -0.0001782   -0.0001005   -0.0018556
c     0.5816472   -1.8003287   -1.9332183  0.00   -0.0014067    0.0004131    0.0054276
h     2.2949730   -1.6757821   -0.5823215  0.00    0.0022803   -0.0017886    0.0022150
h     2.5240811   -0.8290266   -2.1276592  0.00    0.0001504    0.0001918   -0.0002500
c    -0.0472935   -1.0909876   -3.1420253  0.00   -0.0060657    0.0153746    0.0010843
o    -0.1181101    0.2901443   -3.2289925  0.00    0.0055468   -0.0013588    0.0024829
o    -0.6232844   -1.8632277   -4.1496031  0.00    0.0312231   -0.0196401   -0.0014114
h    -1.5645073   -2.1288966   -3.8562790  0.00   -0.0160928   -0.0073981    0.0077129
n     1.0621592   -3.1604444   -2.2884483  0.00    0.0119155    0.0008202   -0.0061414
h    -0.2313841   -1.8733662   -1.1738562  0.00   -0.0010832    0.0001247   -0.0000365
h     0.6799477   -3.8616068   -1.5976183  0.00   -0.0060982   -0.0108287    0.0099673
h     0.6887936   -3.4443504   -3.2401111  0.00   -0.0204887    0.0162001   -0.0223244
    24
 Energy =       0.0822396475
c     0.2743336    1.4021003    1.1643453  0.00   -0.0045102    0.0011701    0.0057744
c     0.3865655    2.5907024    0.5207577  0.00   -0.0037647    0.0039439    0.0004456
c     0.9921666    2.6459399   -0.6969039  0.00    0.0010307    0.0069378   -0.0032969
c     0.7320695    0.2588161    0.5817872  0.00   -0.0020545   -0.0043663    0.0030505
c     1.3312802    0.3040948   -0.6461902  0.00    0.0052970   -0.0026624   -0.0023146
c     1.4746924    1.5109564   -1.2719523  0.00    0.0035796    0.0004300   -0.0034450
o    -0.1256005    3.7427251    1.1240693  0.00    0.0204922   -0.0069747    0.0233386
h    -0.5349993    4.3855896    0.4291915  0.00   -0.0196839    0.0094011   -0.0209746
h     1.9447706    1.5718756   -2.2532657  0.00    0.0014150    0.0006036   -0.0022886
h     0.6098097   -0.6909519    1.1009447  0.00   -0.0005617   -0.0023711    0.0014315
h    -0.2081385    1.3724110    2.1381217  0.00   -0.0015080   -0.0003964    0.0023689
h     1.0929152    3.5993139   -1.2081973  0.00    0.0003938    0.0021673   -0.0011409
c     1.7979895   -0.9791324   -1.3172347  0.00    0.0007258   -0.0004920   -0.0008847
c     0.6374377   -1.8093679   -1.9199543  0.00   -0.0022081    0.0023999    0.0062659
h     2.3368882   -1.5986534   -0.5619766  0.00    0.0021722   -0.0018350    0.0020872
h     2.5435070   -0.7641706   -2.1157654  0.00    0.0004459    0.0000893   -0.0002327
c     0.0287433   -1.1714418   -3.1811784  0.00   -0.0051058    0.0106676    0.0008153
o    -0.0326000    0.2052584   -3.3510732  0.00    0.0036562    0.0031080    0.0007463
o    -0.5367576   -1.9956903   -4.1545617  0.00    0.0225407   -0.0164405   -0.0034100
h    -1.4771162   -2.2504398   -3.8586865  0.00   -0.0121794   -0.0055847    0.0059209
n     1.1609324   -3.1738440   -2.1918440  0.00    0.0122818   -0.0023037   -0.0029276
h    -0.1956848   -1.8645616   -1.1803971  0.00   -0.0011991    0.0006152    0.0005245
h     0.7787504   -3.8488469   -1.4779672  0.00   -0.0047719   -0.0090786    0.0080737
h     0.8231556   -3.5161896   -3.1363557  0.00   -0.0164836    0.0109716   -0.0199277
    24
 Energy =       0.0790182582
c     0.2320191    1.3844715    1.1699487  0.00   -0.0021950    0.0002854    0.0037171
c     0.2925049    2.5773927    0.5292923  0.00   -0.0021243    0.0028237   -0.0010358