24
 energy: -4.198374910339 gnorm: 0.227882209856 xtb: 6.4.0 (d4b70c2)
C        -0.37501793078280    1.64720631944869    0.79487361696088
C         0.03031721338845    2.81093430866966    0.15704376299413
C         1.00811385061755    2.77181329259988   -0.82624368074725
C         0.20694180936898    0.42934916331787    0.43109716913915
C         1.20477867250000    0.36107833640000   -0.56088623010000
C         1.59881779311262    1.55413535598635   -1.17801889972152
O        -0.50698405910005    4.02301780667781    0.47102617785173
H        -0.95030140804950    4.37873546932281   -0.31652915076270
H         2.37072373795897    1.58187285954512   -1.93648019075476
H        -0.12064934235402   -0.47796632978407    0.93739455414968
H        -1.13504455675908    1.66321408978542    1.56946735398846
H         1.31639397636571    3.69070226729081   -1.31768607614051
C         1.76693781090000   -1.00734158430000   -0.89647263510000
C         0.88611368860000   -2.01942717790000   -1.65564529290000
H         2.12129426150000   -1.46589347050000    0.03714050690000
H         2.66457368570000   -0.82853140130000   -1.50587978960000
C        -0.25507066839690   -2.49934081062408   -0.73138986996588
O        -0.85878937920802   -3.55625293555004   -0.82470881375795
O        -0.54571697108092   -1.55823700768495    0.20759504537234
H         0.15268656922513   -0.86309485518544    0.10417197866957
N         0.24106167948034   -1.49156713134165   -2.90174778898299
H         1.46421695155770   -2.91223073159061   -1.92065314680380
H        -0.75138898942574   -1.75285050784769   -2.87972267313931
H         0.23279047303833   -0.47007054788766   -2.85689931659057
24
 energy: -4.238223444603 gnorm: 0.141157441974 xtb: 6.4.0 (d4b70c2)
C        -0.37397103252638    1.66770160412599    0.80101449573133
C         0.02042497091282    2.81600747277912    0.15488328426447
C         1.01160288612553    2.76594268484931   -0.83940107508256
C         0.21993013314615    0.41922110522696    0.43909556666765
C         1.23955922687991    0.37744934519957   -0.57359192833751
C         1.60566154519898    1.55015627152286   -1.19150523185428
O        -0.53257319810471    4.04034688590420    0.47383605867732
H        -0.95697065870221    4.41950673083527   -0.32581683480207
H         2.37454578356242    1.57161978110400   -1.94464950099241
H        -0.05619561145714   -0.45149564368392    1.05481349006578
H        -1.13292880804185    1.69025424059128    1.56762081818788
H         1.31658448693868    3.68028682516426   -1.32447058170764
C         1.79544678662498   -0.99518236172461   -0.91460504013179
C         0.86987557553641   -2.01285592176543   -1.63943651811753
H         2.14490592453807   -1.45571889535435    0.01914156336942
H         2.68585068478298   -0.83499715918233   -1.52686189235535
C        -0.27486365744922   -2.53408255363682   -0.74634692837192
O        -0.84488282770720   -3.59349693851568   -0.89661721698044
O        -0.65822625061561   -1.62459351098660    0.18571600784928
H         0.10844321515051   -0.87415324920765    0.16717569265048
N         0.24858632046565   -1.48391516600695   -2.88267823306789
H         1.45555626974122   -2.90139753045108   -1.92161596529783
H        -0.73312245551732   -1.75747512681377   -2.89052086644770
H         0.23355955867407   -0.46987411242540   -2.84433255295798
24
 energy: -4.262039087397 gnorm: 0.089379113277 xtb: 6.4.0 (d4b70c2)
C        -0.39636841743325    1.65051455576800    0.78470769047786
C        -0.00114967860399    2.79571461194361    0.15094364405122
C         1.01018674633803    2.74440402177953   -0.85173427461967
C         0.21740528659723    0.35641438522692    0.41216486535167
C         1.28518439108328    0.38137984756493   -0.60041434681359
C         1.61295422387199    1.53643584727088   -1.21244061131140
O        -0.57490676195107    4.03286471786627    0.48547150955545
H        -0.94948281238784    4.46181297684898   -0.33053400506218
H         2.38737810848615    1.55618921104973   -1.95212968579218
H         0.00531316346100   -0.49825612197486    1.13770063575657
H        -1.14154838156881    1.68564377666979    1.55497206845112
H         1.31502493306227    3.66173192291279   -1.31681750953670
C         1.83930072560519   -0.98352056225260   -0.94433449811441
C         0.85075732478526   -1.99338346338093   -1.61808847192958
H         2.17709289177780   -1.44582601049394   -0.00834961795391
H         2.72267437736706   -0.84825801656597   -1.55906885272252
C        -0.29414169026262   -2.49823166027313   -0.73289839924698
O        -0.83238834424991   -3.56364000097062   -0.91869009005634
O        -0.74408970402895   -1.60240189426143    0.18488690238649
H         0.06118065713323   -0.83383919122513    0.24237670907410
N         0.25992393632241   -1.47013956405994   -2.85826065867988
H         1.42780579308388   -2.89119753566387   -1.91118203733000
H        -0.70869145188758   -1.76153333574801   -2.90497496400435
H         0.23738355155602   -0.46362374048275   -2.83245939097210
24
 energy: -4.273276358502 gnorm: 0.075712235402 xtb: 6.4.0 (d4b70c2)
C        -0.40787587089403    1.64541546082289    0.76957880752892
C        -0.01478110909971    2.79072538902095    0.13900846181805
C         1.00469002756505    2.73919481652340   -0.86316691113754
C         0.22223312614971    0.33219877530328    0.39671681582915
C         1.31401465982881    0.38213347188950   -0.61257675515194
C         1.62391959643553    1.53837659758832   -1.22537451520931
O        -0.60298079577505    4.02721712369137    0.47978033788501
H        -0.93434012041999    4.48800137584387   -0.33898793702577
H         2.40158338413110    1.55568777153270   -1.96413443520354
H         0.05979753932449   -0.52803635394771    1.19443233673720
H        -1.15117823305401    1.68830745243905    1.54072588841544
H         1.30835650069037    3.66130447951387   -1.31821177713299
C         1.86105883828534   -0.98026593565449   -0.95524555031766
C         0.83564301456072   -1.97627657977592   -1.60109555477550
H         2.20953582935634   -1.44132654314440   -0.02451368473366
H         2.73816722205028   -0.86154123849085   -1.58798493501543
C        -0.32115596506807   -2.47720004062076   -0.72822270031872
O        -0.83027891317279   -3.55431790465260   -0.95580606344882
O        -0.78818785204638   -1.62355567804025    0.21704283799320
H         0.01476438882641   -0.86665467417930    0.32674701822112
N         0.27537699565607   -1.44413709307933   -2.84232391835511
H         1.40110787896896   -2.87923349797933   -1.90155749058453
H        -0.68249906207890   -1.76857617248508   -2.93892480921231
H         0.22982778793653   -0.43818622457095   -2.80505885584657
24
 energy: -4.283551700428 gnorm: 0.061150743378 xtb: 6.4.0 (d4b70c2)
C        -0.42702780967117    1.63420550413464    0.73953154444751
C        -0.02877309068678    2.78354698739075    0.12114486487013
C         0.99307793196019    2.72957482583460   -0.87955183582409
C         0.22422273815600    0.30753888674498    0.36926353061631
C         1.33931320785994    0.37455033502970   -0.62479818147113
C         1.63309963739670    1.53790054256538   -1.24385433299452
O        -0.63205917391915    4.01246067174107    0.47182789563632
H        -0.89902482058058    4.51876071138547   -0.34077155216876
H         2.41213325735155    1.54842836510104   -1.98636056911939
H         0.10135473184477   -0.56371638274950    1.23024741052493
H        -1.16464450230309    1.68797142070189    1.51722086656028
H         1.29986732577742    3.65896194077265   -1.32088184282344
C         1.88325912287311   -0.98042647556079   -0.96336932432020
C         0.82616223815023   -1.95043117791046   -1.58574743450731
H         2.25551751644101   -1.43961710459947   -0.04326290093746
H         2.74957179680989   -0.87467934741590   -1.62394824328679
C        -0.34259696863022   -2.43567738779764   -0.72194448434047
O        -0.82024742077381   -3.51886931015207   -1.02283846094252
O        -0.83023723593372   -1.64519013303621    0.27062131610359
H        -0.02950953307793   -0.91201120143211    0.50178875595226
N         0.29307808810053   -1.40804171813367   -2.82449935337501
H         1.36930056914026   -2.86432913200567   -1.89040596298929
H        -0.64251069480355   -1.78990192883009   -2.98281828078699
H         0.20347195667518   -0.40175411423038   -2.76574681386530
24
 energy: -4.287092310559 gnorm: 0.057369045714 xtb: 6.4.0 (d4b70c2)
C        -0.42037063258200    1.62095145990442    0.74001532686909
C        -0.03935650018521    2.77175192176611    0.10765437029507
C         0.98113708372073    2.71907715655271   -0.88376141948285
C         0.23563193048083    0.30542809321538    0.37938954309384
C         1.33086698838176    0.36039950916778   -0.61759909733912
C         1.63418214420786    1.53137114629021   -1.23407808030932
O        -0.65044631483638    3.99099987975017    0.45172554294893
H        -0.88701658639829    4.50812673511177   -0.35770111011731
H         2.40821862041264    1.53870991660563   -1.98399171800480
H         0.16944035006778   -0.55745144997696    1.30189757340446
H        -1.17001348104926    1.67337830666897    1.50748046690621
H         1.28303729507179    3.64822092010407   -1.33211591490397
C         1.87940976511484   -0.98853926705418   -0.95926984673230
C         0.82692946626984   -1.94149644969214   -1.59166688094212
H         2.26830694602263   -1.44949311001935   -0.04612664861262
H         2.73873928835040   -0.87543885498648   -1.63034430287547
C        -0.35691289770356   -2.40192818044035   -0.73127400019277
O        -0.83628893978375   -3.47575204732119   -1.04560695214064
O        -0.82762468351320   -1.62762653765886    0.27975913677915
H        -0.04011924103481   -0.91018643180439    0.53174284300972
N         0.30683628318434   -1.38823295091578   -2.83302283828689
H         1.35405371456356   -2.86647121705853   -1.88494713123113
H        -0.61409916545332   -1.79372095062618   -3.01655004587773
H         0.19225743484757   -0.38282282003461   -2.75076220529879
24
 energy: -4.290932729741 gnorm: 0.031953229368 xtb: 6.4.0 (d4b70c2)
C        -0.42024019683993    1.60219810719476    0.74009717275499
C        -0.04961216614871    2.75511160010320    0.09821064328218
C         0.96855852878668    2.70284143673496   -0.88594447860575
C         0.24487376135829    0.30254203972472    0.39944083839898
C         1.32088448118360    0.34315442651815   -0.60233389047639
C         1.63099232218576    1.51756049425505   -1.22064008472166
O        -0.66840157489969    3.96459440214376    0.43249652369308
H        -0.85602303525937    4.50083321540911   -0.37995285910381
H         2.39681838934144    1.52097715980569   -1.97989054972364
H         0.19378982094621   -0.55089204596816    1.33629706833455
H        -1.18207049886670    1.65386381395243    1.49612558901507
H         1.26454326697762    3.62927332425203   -1.34582380099190
C         1.88063766308843   -0.99581541170652   -0.95644588798306
C         0.83486830052147   -1.93101210588201   -1.60126007446465
H         2.29114899276451   -1.46195552854432   -0.05412452296802
H         2.72822715446925   -0.86774298163865   -1.64049237954620
C        -0.35647905452896   -2.36355494045463   -0.73834293052327
O        -0.85382750588530   -3.41835083749928   -1.06932763798686
O        -0.81163075087022   -1.59731448967368    0.28390004594185
H        -0.02781690910715   -0.89406223055234    0.58089518196617
N         0.31343439261560   -1.36899825576850   -2.83957039268413
H         1.34360119296303   -2.86800726672289   -1.88509906637477
H        -0.58861102844171   -1.79812439147886   -3.03501882684864
H         0.16913332180263   -0.36786475665583   -2.73234906942547
24
 energy: -4.293407193070 gnorm: 0.026316380137 xtb: 6.4.0 (d4b70c2)
C        -0.41747038313668    1.58122866978540    0.74360240196569
C        -0.06376140707276    2.73380221047466    0.08870745893683
C         0.95433258095396    2.68187367669574   -0.89005530248191
C         0.26542053645615    0.30352994170743    0.43183571950229
C         1.31659013664820    0.32519224517238   -0.58321390355125
C         1.62826480457266    1.49828559889486   -1.20458541355990
O        -0.69842456635501    3.93037933585800    0.40703938258225
H        -0.81862375899194    4.48786791499737   -0.40500233865773
H         2.38166184737151    1.49784375411538   -1.97467429004507
H         0.23066023857782   -0.53329773477129    1.38581025011375
H        -1.19482248422412    1.62916530107623    1.48426444697593
H         1.23855980898100    3.60263559994595   -1.36880669660942
C         1.88513197399684   -1.00174610553807   -0.95595982925080
C         0.84128847338459   -1.91651817105968   -1.61099345859370
H         2.31394831480122   -1.47688073422766   -0.06661121584891
H         2.71907281872834   -0.85769324929613   -1.65206895883105
C        -0.35861066083103   -2.31720850873660   -0.74529065407880
O        -0.88994847232735   -3.34542812395257   -1.10776205697282
O        -0.79655653801300   -1.55960583516582    0.29079759450253
H        -0.01197909907866   -0.87595064986315    0.65528920954275
N         0.32736089108171   -1.34417976876026   -2.84934374366713
H         1.33096462649452   -2.86606638872232   -1.88553608507427
H        -0.54784266409595   -1.81346400939124   -3.07813642414771
H         0.13158185023476   -0.35451019169038   -2.70845948179295
24
 energy: -4.294629326582 gnorm: 0.024234617167 xtb: 6.4.0 (d4b70c2)
C        -0.41312047476299    1.56592901975581    0.75160948350445
C        -0.07626298860060    2.71723105357778    0.08514511500472
C         0.94610323447071    2.66926815066898   -0.89033395183542
C         0.29160361632163    0.30614254220170    0.46423099091295
C         1.32243389530862    0.31659059349126   -0.56866442298189
C         1.62897984325832    1.48737304885342   -1.19195221835311
O        -0.72922980398351    3.90443957198923    0.38638759236349
H        -0.80462794283877    4.46838164801024   -0.42302648642512
H         2.37417056803808    1.48835494553156   -1.96801600783808
H         0.26806159168374   -0.51671525246167    1.41629304256236
H        -1.20479559497688    1.60582951328570    1.47792688424554
H         1.21674965283248    3.58508260394527   -1.38571292767860
C         1.89002418927185   -1.00535401817009   -0.95842382174737
C         0.84062204797696   -1.90998732560629   -1.61628887128179
H         2.32275341165942   -1.48953248722272   -0.07644034461597
H         2.71748132621597   -0.85375731687766   -1.65825529574319
C        -0.36843733890979   -2.28503775204336   -0.74977084198602
O        -0.93495651072294   -3.29013523160165   -1.12539276095456
O        -0.77955728134618   -1.52821974356020    0.29753325246456
H         0.00303930264018   -0.85872920449840    0.68521094428723
N         0.33736709241111   -1.33387389912501   -2.85814276384729
H         1.31797285712766   -2.86817136876210   -1.88367095001929
H        -0.52051122053259   -1.80904121791717   -3.10237956128406
H         0.12093539561431   -0.35681309591641   -2.70701946779494
24
 energy: -4.295997147782 gnorm: 0.029905308168 xtb: 6.4.0 (d4b70c2)
C        -0.41073466477979    1.54625160066691    0.75971782718702
C        -0.09659614627513    2.69466236380482    0.07951846115637
C         0.93618956643460    2.65447222461891   -0.89125519703469
C         0.33854288046107    0.30829046165619    0.51202553824594
C         1.34300158862579    0.30866715155154   -0.55152029193249
C         1.63130939068919    1.47634149200336   -1.18207266828829
O        -0.78104881889300    3.86843027405040    0.35641635680951
H        -0.77665597852497    4.45183290702586   -0.44833030094089
H         2.36642414331827    1.48118688166091   -1.96604132766796
H         0.33529964291963   -0.49707851847200    1.46653252079664
H        -1.21888165233273    1.57376821095178    1.46874722262500
H         1.18658036156555    3.56447265367525   -1.40678062916387
C         1.90029279428721   -1.00906116797444   -0.96169812090415
C         0.83496716548244   -1.89749581341875   -1.61844379564361
H         2.33121750697391   -1.50788892644797   -0.08840930910876
H         2.72172630922634   -0.85441181890088   -1.66521069850681
C        -0.38909062818172   -2.23923764725736   -0.75727922168560
O        -1.00614892359277   -3.20869771460609   -1.16106639744216
O        -0.76236341913262   -1.49283012385153    0.31571567427251
H         0.01921098699526   -0.84380714128373    0.74320032666568
N         0.35988681361899   -1.31271054889647   -2.86731249936073
H         1.29780169915782   -2.86461812690322   -1.87979496334671
H        -0.46554520157838   -1.83763573831230   -3.17322838983723
H         0.07141345169182   -0.35364815779300   -2.68258350593615
24
 energy: -4.297166095253 gnorm: 0.021991710794 xtb: 6.4.0 (d4b70c2)
C        -0.41077368105943    1.53406279657396    0.76485148887898
C        -0.11226481399796    2.67805245786703    0.07577259777268
C         0.93249196128757    2.64700846269132   -0.89156737343676
C         0.38993530999512    0.31261247815616    0.55773755841834
C         1.37263948762755    0.30784254838243   -0.54029378287115
C         1.63384940590661    1.47233434094088   -1.18306524795410
O        -0.82508680185415    3.84230677879820    0.32861502511287
H        -0.78281045311178    4.42446575938511   -0.45401558847749
H         2.36350159132315    1.48414412500647   -1.97146706775907
H         0.38751429002133   -0.48310259087981    1.49061153764883
H        -1.23128956425565    1.54757740868640    1.45989888524488
H         1.16590689175359    3.55269085948279   -1.42010032513575
C         1.90992326097537   -1.01307834201246   -0.96537304063300
C         0.82518786696846   -1.89205608314748   -1.61655827188407
H         2.32776906908974   -1.52637329366217   -0.09547602580492
H         2.73257639364530   -0.86382083144631   -1.66647361653395
C        -0.40933025656422   -2.20880432906576   -0.76305208639327
O        -1.07398093146469   -3.14326037306831   -1.18378770899501
O        -0.74866709721391   -1.46894346287685    0.33068115039149
H         0.03475758242168   -0.83532657161658    0.77588394576726
N         0.37282201587188   -1.30587972184579   -2.87045893833401
H         1.27803438329656   -2.86417929635023   -1.87517916886700
H        -0.43051851595203   -1.82298219661867   -3.19676824525573
H         0.06461147344669   -0.36603614583212   -2.68956908994148
24
 energy: -4.297578203913 gnorm: 0.033150687945 xtb: 6.4.0 (d4b70c2)
C        -0.42166578996307    1.52261974303799    0.76080101410524
C        -0.12676548209229    2.66608922842191    0.07297163740767
C         0.93017435598488    2.64610002054906   -0.88471544094459
C         0.41787327161464    0.31349812507876    0.58203182010259
C         1.38854357363045    0.31018726247705   -0.53527866638866
C         1.63154951874264    1.47488456792160   -1.18638159918419
O        -0.85461398958332    3.82341515245462    0.31552213967014
H        -0.74469577000502    4.43983810880872   -0.46546135666491
H         2.36085833071681    1.49253121756279   -1.97627080518425
H         0.41354018114374   -0.48457030613461    1.49333782143025
H        -1.24463988177827    1.52578738890602    1.45154530382841
H         1.15682437690484    3.55201689425996   -1.41368884384489
C         1.91183553734975   -1.01451360271928   -0.96558218843806
C         0.82039099745823   -1.88813437506109   -1.61570619511918
H         2.32110303710345   -1.53678224364341   -0.09631210259807
H         2.73815650173185   -0.87059564792303   -1.66472247093521
C        -0.41257537390768   -2.19588688291034   -0.76456181392265
O        -1.09417777031110   -3.11092896332088   -1.18251538550289
O        -0.73659603835566   -1.45940844472572    0.33626506750107
H         0.04376852588979   -0.82990755075348    0.77754394240660
N         0.37501395442250   -1.30145554011626   -2.86839589479739
H         1.27043169249488   -2.86004765997657   -1.87515673793488
H        -0.40912425702826   -1.83346902075976   -3.21316984400868
H         0.03158936599301   -0.37201269388585   -2.68125279002494
24
 energy: -4.297946271517 gnorm: 0.033797513121 xtb: 6.4.0 (d4b70c2)
C        -0.42131580454455    1.52140604269714    0.75800019492679
C        -0.12441765855850    2.66382812991670    0.06790761522534
C         0.93088473646611    2.64597092663603   -0.88719176549755
C         0.43132474216224    0.31578496120658    0.59189461647374
C         1.39578952006321    0.31225178085812   -0.53261789747434
C         1.62828024060293    1.47554151069273   -1.19648287625394
O        -0.84906149434099    3.82102973353613    0.30645685369252
H        -0.75620693006117    4.43411756625206   -0.44996417164001
H         2.35706853790077    1.49183736254646   -1.98945292445616
H         0.41629117543219   -0.49426289353257    1.48691728138251
H        -1.24115144031739    1.52276908939653    1.45077766839806
H         1.15845965063247    3.55285657517259   -1.41355998231422
C         1.90938885477064   -1.01725379740588   -0.95537866150022
C         0.82039060727988   -1.88273969271064   -1.61327707676365
H         2.31043442390466   -1.54350532052003   -0.08344472436933
H         2.74286727915530   -0.88079648807732   -1.65082553901107
C        -0.41239184150734   -2.18852057764862   -0.76835250026827
O        -1.09691812251423   -3.09387285033927   -1.18227468645241
O        -0.73482604415823   -1.45554505250351    0.33322127974441
H         0.04756767451186   -0.82537229901334    0.76596819095584
N         0.38075572075994   -1.29100637523536   -2.86464222322501
H         1.26944592850895   -2.85449980342082   -1.87356342008045
H        -0.39034029508827   -1.85641842862128   -3.23826126820802
H        -0.00552059290369   -0.36434532233424   -2.66100737232601
24
 energy: -4.298728175643 gnorm: 0.015134398594 xtb: 6.4.0 (d4b70c2)
C        -0.42002356501582    1.51730200488045    0.75460820724118
C        -0.12645331080547    2.66036363406937    0.05978845798569
C         0.92267475047352    2.64185622511066   -0.89500235537819
C         0.43271674928519    0.31330620565456    0.59092341682736
C         1.39500346025589    0.30940085823497   -0.53114305691877
C         1.62300128648914    1.47219222042597   -1.20418909790061
O        -0.84914030013838    3.81626807200329    0.29996849733979
H        -0.75432072238066    4.43957062948013   -0.44847729463890
H         2.34812952582660    1.48421474532316   -2.00218653986343
H         0.42067162930048   -0.50976622597982    1.49995829505699
H        -1.23661274754926    1.52078673421393    1.45129101779010
H         1.15022227893708    3.55110014846971   -1.42017903016431
C         1.91008105542204   -1.02051817049473   -0.94665753513634
C         0.82395084486723   -1.87694173690448   -1.61229124404945
H         2.31419550990027   -1.54537557832234   -0.07440667878324
H         2.74488817887330   -0.88596045351755   -1.64381765707316
C        -0.41182940129263   -2.18113481158894   -0.77244276818637
O        -1.09567524506487   -3.08434197722192   -1.20154359073532
O        -0.73967522594660   -1.46119368040408    0.33602876259931
H         0.04766542513914   -0.82994437589771    0.78113065333760
N         0.37931765479468   -1.28245473193161   -2.85956890317384
H         1.26632035039834   -2.85356142326194   -1.87243472089714
H        -0.39298494108914   -1.82910284370308   -3.21859327334689
H         0.01467562747672   -0.35681069108980   -2.66991695097354
24
 energy: -4.299278460857 gnorm: 0.015793617768 xtb: 6.4.0 (d4b70c2)
C        -0.41771362461932    1.50513338194875    0.75477954942749
C        -0.13601232589313    2.64718603478719    0.05079068009112
C         0.91249706991184    2.63331173337679   -0.90177367974296
C         0.45760149105818    0.31546443333227    0.61390926479799
C         1.40395055701415    0.30727985540283   -0.52181266676343
C         1.61863141530337    1.46532664243477   -1.20835033482174
O        -0.87169519201598    3.79595830245715    0.28089417958497
H        -0.73888678406796    4.44027812610672   -0.45378214058359
H         2.33389881677659    1.47440759440498   -2.01528165144557
H         0.44014493445452   -0.52220361139955    1.51383179069644
H        -1.23595179445680    1.50359098922981    1.45043552798775
H         1.13166929337358    3.54223712123271   -1.43355968099389
C         1.91368354868357   -1.02435138621713   -0.93765154852232
C         0.82437680674727   -1.86733341925318   -1.61150041575180
H         2.31315239474022   -1.55380384192310   -0.06590669405556
H         2.75124225772212   -0.89298482671186   -1.63214464895259
C        -0.41725580245553   -2.15932830103573   -0.77617055898581
O        -1.12623348242411   -3.04248644725137   -1.22253057472365
O        -0.72778092568193   -1.45275891134453    0.34696669414892
H         0.06174699769048   -0.82533445970488    0.79491211874061
N         0.38593085887375   -1.26461343464530   -2.85732473442497
H         1.25725177008460   -2.84906984641642   -1.87141893021919
H        -0.37223763796011   -1.81727183019181   -3.23191998446484
H         0.00478822529739   -0.34937912107088   -2.66454495006487
24
 energy: -4.299999051179 gnorm: 0.021140813508 xtb: 6.4.0 (d4b70c2)
C        -0.41067942967458    1.48922478026206    0.75286672175376
C        -0.14572427163884    2.62917497889071    0.03681197406207
C         0.89967592451932    2.62201856480745   -0.91432805375457
C         0.49135837461773    0.32283945711508    0.64068992899831
C         1.41534985525221    0.30944067492338   -0.51042748530445
C         1.61313566256483    1.45595577291597   -1.21761266909622
O        -0.89960271113399    3.76741341423550    0.25464165191186
H        -0.72290878670325    4.44380902912020   -0.44902018590665
H         2.31084039420828    1.45587093530360   -2.03895023904041
H         0.45027084226672   -0.55715444457809    1.51535250176626
H        -1.22678597924146    1.48103438766532    1.45202350229565
H         1.10979251499941    3.53093923772582   -1.45134682616566
C         1.91551746481553   -1.02853134075452   -0.92144858804305
C         0.82356671360729   -1.85361133903439   -1.60840495697540
H         2.30204305149245   -1.56153226943792   -0.04614420885229
H         2.76260500844540   -0.90702218072820   -1.60574103738782
C        -0.42108004542633   -2.13372957442824   -0.77541089062478
O        -1.15319711587703   -2.98996896553150   -1.23366859402221
O        -0.71419085298698   -1.44631032358449    0.35965878128864
H         0.08098272729407   -0.81833130239160    0.78748674055683
N         0.39286736514778   -1.23583631078569   -2.85113583988111
H         1.24573488204638   -2.83930828941196   -1.87077293243098
H        -0.34678610817913   -1.79191616360151   -3.24718190996680
H        -0.00598661225900   -0.33521395114877   -2.65709077422250
24
 energy: -4.300440272703 gnorm: 0.018658330562 xtb: 6.4.0 (d4b70c2)
C        -0.39793017618809    1.47609197699826    0.75748652678856
C        -0.15405490064529    2.61209304297940    0.02606851551815
C         0.89022878850427    2.60899255221787   -0.92701278524239
C         0.52945917613715    0.32970528573724    0.67379826962074
C         1.43133938184953    0.30848152926530   -0.49498796750339
C         1.61414720527020    1.44549094840676   -1.21900029850447
O        -0.93287139275376    3.73870808417872    0.22568189705966
H        -0.72267403165009    4.42764728764864   -0.45142855748581
H         2.29411207274856    1.43704509024029   -2.05469432316736
H         0.47053771717614   -0.57990744524372    1.53036697891606
H        -1.21779193661050    1.46290234953254    1.45344204563697
H         1.08696256407012    3.51422498461827   -1.47610880571618
C         1.92188960529697   -1.03235696313932   -0.91073458585145
C         0.82176113356171   -1.84012831273759   -1.60664209711131
H         2.29784883303780   -1.57263035311041   -0.03523010947140
H         2.77409658781271   -0.91687679044211   -1.58820234350765
C        -0.43276686789683   -2.10185705476752   -0.77931761863518
O        -1.19143988732706   -2.93000950734765   -1.25565669000264
O        -0.70856068396688   -1.43010766997378    0.36803774164587
H         0.09751480037579   -0.80861205391012    0.79418374065293
N         0.40472212965736   -1.20779204020579   -2.84811303959169
H         1.23213301846326   -2.83047002598693   -1.87050672176816
H        -0.31252311560119   -1.78195640333163   -3.27455675654600
H        -0.02934115316508   -0.31942373407851   -2.63602640477538
24
 energy: -4.300676595367 gnorm: 0.013418762204 xtb: 6.4.0 (d4b70c2)
C        -0.38688506398330    1.47671750115430    0.76246628893118
C        -0.15246735269980    2.60856978467434    0.02453869577210
C         0.89001116463436    2.60379942271879   -0.93484848054637
C         0.53695026026810    0.33559215159535    0.68079663353883
C         1.43650740355375    0.30992419237463   -0.48724948305221
C         1.61720038576209    1.44073045821320   -1.21712524708680
O        -0.94093021770792    3.73045297235255    0.21816692577754
H        -0.73617325723095    4.41447768930136   -0.44714354028462
H         2.28810755249371    1.42490421889418   -2.05824522437522
H         0.45459331679579   -0.59420229274183    1.52220511765884
H        -1.20615697933663    1.46554205214442    1.45881509775379
H         1.08150569058601    3.50468307232006   -1.49047886790118
C         1.92402574786174   -1.03193491092826   -0.90766352803724
C         0.81939827620930   -1.83648134736023   -1.60517353780798
H         2.29294299387258   -1.57455323961197   -0.03108984202141
H         2.77923991929326   -0.91893153093452   -1.57974765159232
C        -0.43663367479346   -2.09611303492853   -0.77745686136356
O        -1.19209792731243   -2.91938922804618   -1.25188753026796
O        -0.70944188098790   -1.42808630554644    0.36910394814885
H         0.10527727692416   -0.80637605046877    0.77772173003895