    13
 Energy =       0.1124823182
c    -3.7133889    1.6950595    0.3173519  0.00   -0.0439008   -0.0166530    0.0167121
c    -2.4962693    2.6345192    0.2419999  0.00    0.0806593    0.3624353    0.1241312
c    -4.9565486    2.3924193   -0.2155699  0.00    0.0183384    0.0013514    0.0007332
h    -5.2099685    3.2528291    0.4143399  0.00    0.0018705   -0.0139331   -0.0106187
h    -5.8205883    1.7190695   -0.2147749  0.00    0.0115355    0.0109226   -0.0018254
h    -4.8083986    2.7651692   -1.2348596  0.00   -0.0081220   -0.0017219    0.0181697
n    -3.4097890    0.4519539   -0.4549189  0.00    0.0507596   -0.0505678   -0.0131688
h    -3.8575589    1.4177196    1.3669296  0.00    0.0060156   -0.0117652   -0.0252130
h    -3.2072391   -0.2948399    0.2179739  0.00   -0.0174257    0.0284409   -0.0178591
h    -4.2689788    0.1396900   -0.9176007  0.00    0.0223669    0.0209644    0.0248984
o    -2.4571893    3.7760389    0.6681628  0.00   -0.0151827   -0.2736305   -0.1134133
o    -1.4389296    2.0221094   -0.3549299  0.00   -0.0704253   -0.0515851    0.0058673
h    -0.7518168    1.9408394    0.3531709  0.00   -0.0364893   -0.0042581   -0.0084136
    13
 Energy =       0.0937639951
c    -3.7144123    1.6969360    0.3260276  0.00   -0.0312044   -0.0105012    0.0129615
c    -2.4773691    2.5978302    0.2312099  0.00    0.0552641    0.2492971    0.0879534
c    -4.9453576    2.4206039   -0.2218492  0.00    0.0188161   -0.0025758    0.0050017
h    -5.2673191    3.2010642    0.4981739  0.00   -0.0001066   -0.0039532   -0.0000782
h    -5.7988437    1.7258805   -0.3720618  0.00    0.0003988   -0.0006866   -0.0031816
h    -4.7209891    2.9239223   -1.1887894  0.00   -0.0018904    0.0042712    0.0023067
n    -3.4517423    0.4351959   -0.4190432  0.00    0.0370556   -0.0347869   -0.0096745
h    -3.8687445    1.4556308    1.3894860  0.00    0.0037452   -0.0081966   -0.0169262
h    -3.2570713   -0.3117482    0.2662062  0.00   -0.0121619    0.0194534   -0.0121253
h    -4.3097713    0.1285871   -0.9021582  0.00    0.0147594    0.0148937    0.0170050
o    -2.4335251    3.7938672    0.6606549  0.00   -0.0100890   -0.1882856   -0.0795768
o    -1.4111547    2.0173736   -0.4000902  0.00   -0.0552645   -0.0344863   -0.0062960
h    -0.7403636    1.8274336    0.3195086  0.00   -0.0193222   -0.0044432    0.0026304
    13
 Energy =       0.0849595616
c    -3.7026738    1.6992684    0.3212441  0.00   -0.0234742   -0.0072996    0.0097644
c    -2.4667892    2.5933937    0.1988428  0.00    0.0423259    0.1876210    0.0670217
c    -4.9478554    2.4246476   -0.1957751  0.00    0.0192148   -0.0046541    0.0059962
h    -5.1836566    3.2874169    0.4746984  0.00   -0.0007205    0.0028132    0.0052516
h    -5.8355232    1.7436113   -0.2133086  0.00   -0.0065809   -0.0062387   -0.0022424
h    -4.7725903    2.8232089   -1.2279777  0.00    0.0008200    0.0054263   -0.0059422
n    -3.4744110    0.4363120   -0.4259392  0.00    0.0288919   -0.0259419   -0.0075668
h    -3.8311911    1.4695276    1.3944154  0.00    0.0027915   -0.0061168   -0.0123043
h    -3.2820627   -0.3216293    0.2533535  0.00   -0.0091949    0.0144623   -0.0091182
h    -4.3391133    0.1458200   -0.9165413  0.00    0.0107755    0.0113278    0.0125227
o    -2.4346913    3.8186527    0.6338678  0.00   -0.0079928   -0.1417226   -0.0600051
o    -1.3804977    2.0296138   -0.4225148  0.00   -0.0458584   -0.0250544   -0.0105748
h    -0.7456082    1.7627335    0.3129096  0.00   -0.0109979   -0.0046226    0.0071972
    13
 Energy =       0.0771128906
c    -3.6787419    1.6992074    0.3123792  0.00   -0.0111776   -0.0024793    0.0051657
c    -2.4442228    2.5832370    0.1391025  0.00    0.0241843    0.0951501    0.0366835
c    -4.9547777    2.4369650   -0.1262767  0.00    0.0097688   -0.0020450    0.0039353
h    -5.1250953    3.3241791    0.5318117  0.00   -0.0006085    0.0029460    0.0046825
h    -5.8509660    1.7717342   -0.0545555  0.00   -0.0068517   -0.0050420   -0.0012737
h    -4.8497187    2.7966322   -1.1813542  0.00    0.0011747    0.0034564   -0.0062132
n    -3.5155643    0.4406830   -0.4522877  0.00    0.0174217   -0.0132210   -0.0050897
h    -3.7496313    1.4730067    1.3982618  0.00    0.0016031   -0.0028521   -0.0044289
h    -3.3291140   -0.3429159    0.2081232  0.00   -0.0047100    0.0064125   -0.0044282
h    -4.3901923    0.1842118   -0.9578246  0.00    0.0044851    0.0054804    0.0055680
o    -2.4249982    3.8542053    0.5758930  0.00   -0.0045943   -0.0720217   -0.0311587
o    -1.3308699    2.0435655   -0.4722281  0.00   -0.0336077   -0.0080898   -0.0207862
h    -0.7527714    1.6478660    0.2662303  0.00    0.0029122   -0.0076944    0.0173436
    13
 Energy =       0.0762107071
c    -3.6968453    1.7160477    0.3178654  0.00   -0.0085887   -0.0014441    0.0048656
c    -2.4377970    2.5717087    0.1789475  0.00    0.0213513    0.0826326    0.0314557
c    -4.9334432    2.4578318   -0.2291447  0.00    0.0053286   -0.0010925    0.0039254
h    -5.1198657    3.3825677    0.3730586  0.00   -0.0015674    0.0044354    0.0052292
h    -5.8461782    1.8154635   -0.1679247  0.00   -0.0064927   -0.0044328   -0.0007499
h    -4.7666402    2.7596592   -1.2967878  0.00    0.0014169    0.0040314   -0.0087614
n    -3.5141668    0.4204655   -0.3805730  0.00    0.0177490   -0.0115969   -0.0085697
h    -3.8378397    1.5420065    1.4104004  0.00    0.0008266   -0.0029539   -0.0001841
h    -3.3762738   -0.3353117    0.3278338  0.00   -0.0032934    0.0024815   -0.0007052
h    -4.3658319    0.1530227   -0.9215298  0.00    0.0026629    0.0043736    0.0038160
o    -2.4072123    3.8472608    0.6197684  0.00   -0.0037528   -0.0624454   -0.0269716
o    -1.3122182    2.0135182   -0.3963835  0.00   -0.0303715   -0.0056778   -0.0214477
h    -0.7823514    1.5683366    0.3517443  0.00    0.0047313   -0.0083112    0.0180977
    13
 Energy =       0.0737424294
c    -3.7001003    1.7296562    0.3151526  0.00   -0.0045549    0.0017757    0.0011561
c    -2.4097954    2.5355067    0.1711395  0.00    0.0045980    0.0257872    0.0111472
c    -4.9034011    2.4918822   -0.2751999  0.00    0.0023149   -0.0014991    0.0018365
h    -5.0467085    3.4629990    0.2609393  0.00   -0.0014363    0.0045827    0.0034967
h    -5.8383054    1.8944014   -0.1662569  0.00   -0.0034810   -0.0030092    0.0002194
h    -4.7285494    2.7128270   -1.3575117  0.00    0.0013408    0.0022499   -0.0054951
n    -3.5672212    0.4000968   -0.3235546  0.00    0.0133190    0.0004096   -0.0068208
h    -3.8654495    1.6117350    1.4133146  0.00   -0.0003450   -0.0010857    0.0017010
h    -3.5350269   -0.3471180    0.4166538  0.00   -0.0005342   -0.0067807    0.0065940
h    -4.3866907    0.1740273   -0.9405642  0.00   -0.0052064    0.0015370   -0.0028059
o    -2.3621429    3.8495714    0.5840164  0.00   -0.0011287   -0.0171468   -0.0086053
o    -1.2585318    1.9442926   -0.3336605  0.00   -0.0096361   -0.0025057   -0.0121191
h    -0.7947407    1.4526996    0.4228066  0.00    0.0047498   -0.0043149    0.0096953
    13
 Energy =       0.0738240300
c    -3.6972698    1.7289642    0.3111567  0.00   -0.0040747    0.0015177    0.0010040
c    -2.4063313    2.5314979    0.1536159  0.00    0.0035917    0.0227085    0.0101320
c    -4.9055407    2.4902883   -0.2701402  0.00    0.0020690   -0.0013508    0.0016538
h    -5.0427627    3.4631666    0.2632401  0.00   -0.0012944    0.0041399    0.0031663
h    -5.8395769    1.8942049   -0.1504180  0.00   -0.0031838   -0.0027344    0.0001978
h    -4.7408211    2.7072240   -1.3542922  0.00    0.0012190    0.0020332   -0.0049997
n    -3.5732557    0.3971441   -0.3236993  0.00    0.0120773    0.0004327   -0.0062018
h    -3.8523410    1.6153775    1.4111034  0.00   -0.0003206   -0.0009638    0.0015947
h    -3.5540884   -0.3490926    0.4172570  0.00   -0.0004590   -0.0062148    0.0060190
h    -4.3875421    0.1776092   -0.9494727  0.00   -0.0047887    0.0013719   -0.0025854
o    -2.3650814    3.8614017    0.5209765  0.00   -0.0012091   -0.0139976   -0.0073364
o    -1.2465472    1.9237794   -0.3122778  0.00   -0.0086830   -0.0022171   -0.0127817
h    -0.7855055    1.4710119    0.4702257  0.00    0.0050564   -0.0047255    0.0101374
    13
 Energy =       0.0739823610
c    -3.6928608    1.7301385    0.3054305  0.00   -0.0037849    0.0014991    0.0011692
c    -2.3889349    2.5064509    0.1193767  0.00    0.0020697    0.0192898    0.0093510
c    -4.9002044    2.5112022   -0.2520700  0.00    0.0016886   -0.0012653    0.0013567
h    -5.0112328    3.4863342    0.2827674  0.00   -0.0012324    0.0039960    0.0030443
h    -5.8412391    1.9304932   -0.1141069  0.00   -0.0031546   -0.0025635    0.0001776
h    -4.7531982    2.7250004   -1.3389805  0.00    0.0011279    0.0018106   -0.0046631
n    -3.6076586    0.3945799   -0.3280037  0.00    0.0111764   -0.0001405   -0.0059004
h    -3.8265563    1.6225602    1.4087559  0.00   -0.0003313   -0.0007105    0.0017056
h    -3.6035666   -0.3514000    0.4128560  0.00   -0.0004103   -0.0058262    0.0054633
h    -4.4280100    0.1948372   -0.9523947  0.00   -0.0045823    0.0010981   -0.0025309
o    -2.3319834    3.8569104    0.4147644  0.00   -0.0013453   -0.0090044   -0.0057228
o    -1.2302030    1.8559316   -0.2932521  0.00   -0.0068205   -0.0028652   -0.0149334
h    -0.7810156    1.4495385    0.5221321  0.00    0.0055988   -0.0053181    0.0114828
    13
 Energy =       0.0736099352
c    -3.6987395    1.7385253    0.3218017  0.00   -0.0028054    0.0019271    0.0021358
c    -2.4096736    2.5425597    0.1524962  0.00   -0.0025882    0.0140813    0.0082619
c    -4.9055104    2.4807744   -0.2896053  0.00    0.0004067   -0.0011476    0.0008416
h    -5.0446774    3.4706153    0.2118931  0.00   -0.0013252    0.0045124    0.0032369
h    -5.8398398    1.8892150   -0.1543317  0.00   -0.0029885   -0.0023111    0.0001079
h    -4.7376237    2.6614705   -1.3797262  0.00    0.0009467    0.0017408   -0.0049720
n    -3.5679103    0.3882951   -0.2742452  0.00    0.0111075   -0.0014476   -0.0059487
h    -3.8610796    1.6571233    1.4242501  0.00   -0.0002119   -0.0003546    0.0023325
h    -3.5571443   -0.3372485    0.4865679  0.00   -0.0003039   -0.0058453    0.0053708
h    -4.3742451    0.1503839   -0.9043506  0.00   -0.0050901    0.0005044   -0.0031979
o    -2.3573888    3.8658171    0.5735175  0.00   -0.0027345    0.0014317   -0.0012452
o    -1.2603719    1.9454737   -0.3699960  0.00   -0.0031506   -0.0044609   -0.0239543
h    -0.7824594    1.4595724    0.3890035  0.00    0.0087374   -0.0086306    0.0170307
    13
 Energy =       0.0727945283
c    -3.7068461    1.7536147    0.3447322  0.00    0.0002655    0.0036840    0.0029532
c    -2.4277630    2.5700537    0.1786855  0.00   -0.0048818    0.0035111    0.0021761
c    -4.8994287    2.4391796   -0.3567043  0.00   -0.0023574   -0.0010597    0.0003144
h    -5.0564959    3.4642948    0.0626591  0.00   -0.0011776    0.0050875    0.0027235
h    -5.8313412    1.8530231   -0.1998270  0.00   -0.0010988   -0.0011648    0.0001257
h    -4.7050659    2.5349185   -1.4534086  0.00    0.0004710    0.0012225   -0.0054576
n    -3.5365299    0.3688489   -0.1571718  0.00    0.0096242   -0.0025021   -0.0064826
h    -3.9094690    1.7406735    1.4452124  0.00   -0.0001131    0.0002453    0.0039294
h    -3.5971157   -0.3097309    0.6453210  0.00    0.0003499   -0.0062547    0.0078218
h    -4.2846502    0.0976549   -0.8456227  0.00   -0.0064976   -0.0004434   -0.0054590
o    -2.3657507    3.8607511    0.6985637  0.00   -0.0022906    0.0065099    0.0025698
o    -1.2978594    2.0298247   -0.4374562  0.00    0.0026859   -0.0037565   -0.0152192
h    -0.7783481    1.5094705    0.2622915  0.00    0.0050204   -0.0050790    0.0100044
    13
 Energy =       0.0719215954
c    -3.7228862    1.7709909    0.3719337  0.00    0.0022197    0.0026245    0.0015934
c    -2.4403469    2.5831751    0.2284574  0.00   -0.0085269    0.0017405    0.0038629
c    -4.8775519    2.4129256   -0.4285985  0.00   -0.0039552    0.0000295    0.0003359
h    -5.0490961    3.4625475   -0.0838715  0.00   -0.0013336    0.0046343    0.0020858
h    -5.8184667    1.8412027   -0.2775633  0.00   -0.0006356   -0.0003935    0.0002647
h    -4.6314137    2.4362586   -1.5191260  0.00    0.0006277    0.0007595   -0.0057439
n    -3.5222047    0.3617125   -0.0415987  0.00    0.0073023   -0.0035732   -0.0052426
h    -3.9842940    1.8180935    1.4603333  0.00   -0.0005297    0.0005469    0.0049180
h    -3.6278064   -0.2712408    0.7913192  0.00    0.0002786   -0.0047206    0.0061444
h    -4.2286080    0.0490837   -0.7543753  0.00   -0.0045318   -0.0009302   -0.0043726
o    -2.3452080    3.8292891    0.8474880  0.00   -0.0024085    0.0094287    0.0047540
o    -1.3553056    2.1013798   -0.5106619  0.00    0.0040559   -0.0025819   -0.0193084
h    -0.7934754    1.5171589    0.1035384  0.00    0.0074372   -0.0075644    0.0107086
    13
 Energy =       0.0709255259
c    -3.7412981    1.7902361    0.3925014  0.00    0.0029610    0.0025249    0.0008260
c    -2.4523723    2.5938835    0.2751825  0.00   -0.0055991   -0.0000857    0.0031751
c    -4.8465156    2.3824118   -0.5104238  0.00   -0.0048182    0.0008750    0.0002134
h    -5.0321078    3.4513308   -0.2426246  0.00   -0.0014858    0.0043019    0.0015501
h    -5.7974116    1.8234789   -0.3764691  0.00   -0.0006371    0.0000000    0.0002920
h    -4.5393471    2.3359438   -1.5849227  0.00    0.0009462    0.0002951   -0.0059345
n    -3.5151492    0.3606349    0.0736925  0.00    0.0064246   -0.0041222   -0.0043194
h    -4.0664889    1.8988641    1.4600012  0.00   -0.0010240    0.0008213    0.0054542
h    -3.6604072   -0.2218173    0.9361744  0.00   -0.0000056   -0.0037692    0.0052544
h    -4.1846592    0.0012531   -0.6514931  0.00   -0.0031359   -0.0013810   -0.0036519
o    -2.3260598    3.7956638    0.9688506  0.00   -0.0016065    0.0075663    0.0038966
o    -1.4079239    2.1673102   -0.5462317  0.00    0.0020269   -0.0009300   -0.0144269
h    -0.8269229    1.5333836   -0.0069625  0.00    0.0059533   -0.0060963    0.0076710
    13
 Energy =       0.0699950292
c    -3.7563130    1.8091633    0.4140163  0.00    0.0023192    0.0027186    0.0003607
c    -2.4646218    2.6073538    0.3111408  0.00   -0.0060959   -0.0027415    0.0032894
c    -4.8153180    2.3425769   -0.5742761  0.00   -0.0038414    0.0007826   -0.0000811
h    -5.0139922    3.4238382   -0.3801725  0.00   -0.0011930    0.0034243    0.0010122
h    -5.7710106    1.7889652   -0.4550984  0.00   -0.0004210    0.0001338    0.0001475
h    -4.4550966    2.2336892   -1.6264017  0.00    0.0008806   -0.0000760   -0.0045547
n    -3.5100940    0.3660633    0.1890940  0.00    0.0053168   -0.0037273   -0.0032243
h    -4.1338911    1.9760770    1.4556510  0.00   -0.0009724    0.0008124    0.0043120
h    -3.6998988   -0.1660567    1.0745894  0.00   -0.0002890   -0.0028154    0.0045924
h    -4.1406453   -0.0377228   -0.5468573  0.00   -0.0022693   -0.0013141   -0.0030487
o    -2.2909601    3.7445263    1.1000594  0.00   -0.0015250    0.0094124    0.0063220
o    -1.4754849    2.2541883   -0.6087544  0.00    0.0011031    0.0009939   -0.0158817
h    -0.8693372    1.5699151   -0.1657156  0.00    0.0069873   -0.0076038    0.0067542
    13
 Energy =       0.0692008275
c    -3.7712605    1.8335081    0.4304536  0.00    0.0016963    0.0039048    0.0009980
c    -2.4799817    2.6310956    0.3323789  0.00   -0.0018990   -0.0032936    0.0001174
c    -4.7826828    2.2846205   -0.6442206  0.00   -0.0033149    0.0002567   -0.0006050
h    -4.9980446    3.3746898   -0.5389256  0.00   -0.0011188    0.0034358    0.0005480
h    -5.7387838    1.7301084   -0.5345140  0.00   -0.0002085    0.0001430   -0.0000285
h    -4.3686584    2.1052201   -1.6658004  0.00    0.0009424   -0.0004656   -0.0037023
n    -3.5035442    0.3810671    0.3198024  0.00    0.0057098   -0.0039363   -0.0023835
h    -4.2010512    2.0690311    1.4376589  0.00   -0.0010349    0.0010058    0.0036299
h    -3.7509243   -0.0909727    1.2251901  0.00   -0.0007068   -0.0022856    0.0049852
h    -4.0817891   -0.0771197   -0.4276818  0.00   -0.0022962   -0.0016935   -0.0035340
o    -2.2580613    3.7007082    1.1956063  0.00   -0.0007049    0.0055224    0.0038947
o    -1.5387748    2.3442602   -0.6514403  0.00   -0.0002348    0.0009261   -0.0067109
h    -0.9231070    1.6263604   -0.2912325  0.00    0.0031703   -0.0035199    0.0027910
    13
 Energy =       0.0688147867
c    -3.7764540    1.8484924    0.4438332  0.00    0.0001101    0.0013621    0.0006638
c    -2.4890184    2.6511621    0.3404982  0.00   -0.0033691   -0.0047272   -0.0014227
c    -4.7656324    2.2392194   -0.6696206  0.00   -0.0005773   -0.0000425   -0.0003038
h    -4.9924461    3.3281523   -0.6191446  0.00   -0.0002079    0.0008660    0.0001798
h    -5.7180630    1.6788769   -0.5574872  0.00   -0.0000330   -0.0000246   -0.0000424
h    -4.3265592    2.0207174   -1.6697412  0.00    0.0001366   -0.0000689   -0.0006517
n    -3.4942533    0.3985556    0.4033987  0.00    0.0015611   -0.0009596   -0.0003353
h    -4.2315626    2.1225213    1.4268679  0.00   -0.0001682    0.0001099    0.0007264
h    -3.7788546   -0.0384988    1.3126690  0.00   -0.0001161   -0.0004736    0.0011758
h    -4.0343986   -0.0953483   -0.3475009  0.00   -0.0008551   -0.0005086   -0.0011984
o    -2.2041092    3.6346260    1.2871209  0.00   -0.0001754    0.0072052    0.0076036
o    -1.6035587    2.4400540   -0.7136325  0.00   -0.0011849    0.0031034   -0.0088627
h    -0.9817537    1.6840469   -0.4499857  0.00    0.0048793   -0.0058417    0.0024675
    13
 Energy =       0.0686697575
c    -3.7865869    1.8675915    0.4452410  0.00    0.0008815    0.0027152    0.0007478
c    -2.5047588    2.6790031    0.3395734  0.00   -0.0001015   -0.0008679   -0.0001852
c    -4.7473540    2.1870328   -0.7175137  0.00   -0.0018941   -0.0001813   -0.0007477
h    -4.9878022    3.2753186   -0.7327670  0.00   -0.0006724    0.0021655   -0.0000157
h    -5.6966045    1.6217658   -0.6030399  0.00   -0.0000939    0.0000047   -0.0000755
h    -4.2766812    1.9203339   -1.6925893  0.00    0.0005806   -0.0004959   -0.0018737
n    -3.4859800    0.4199493    0.4896875  0.00    0.0033264   -0.0026592   -0.0000661
h    -4.2747834    2.1878462    1.3994431  0.00   -0.0006640    0.0008984    0.0018193
h    -3.8000820    0.0263019    1.4098835  0.00   -0.0005233   -0.0008204    0.0023331
h    -3.9912935   -0.1192673   -0.2553344  0.00   -0.0011907   -0.0015414   -0.0021666
o    -2.2065755    3.6394525    1.2982877  0.00   -0.0001054    0.0012095    0.0010262
o    -1.6275692    2.4839627   -0.7195237  0.00   -0.0002196    0.0003356   -0.0012516
h    -1.0105926    1.7232861   -0.4740732  0.00    0.0006765   -0.0007629    0.0004556
    13
 Energy =       0.0686231512
c    -3.7859198    1.8696891    0.4493440  0.00   -0.0000161    0.0000787    0.0000852
c    -2.5046449    2.6817583    0.3418676  0.00   -0.0007459   -0.0010014   -0.0005938
c    -4.7438887    2.1778178   -0.7153056  0.00   -0.0000149    0.0000036   -0.0000158
h    -4.9848624    3.2636688   -0.7397444  0.00   -0.0000074    0.0000381    0.0000176
h    -5.6924605    1.6120016   -0.5980452  0.00   -0.0000020   -0.0000039   -0.0000003
h    -4.2713472    1.9054568   -1.6857917  0.00    0.0000112    0.0000049   -0.0000277
n    -3.4843596    0.4253936    0.5051114  0.00    0.0001084   -0.0000299   -0.0000575
h    -4.2767393    2.1951259    1.3982807  0.00   -0.0000192   -0.0000142    0.0000340
h    -3.8076483    0.0365271    1.4225952  0.00   -0.0000030   -0.0000281    0.0000899
h    -3.9801992   -0.1189829   -0.2402587  0.00   -0.0000721   -0.0000176   -0.0000738
o    -2.1758170    3.6002625    1.3317879  0.00    0.0001220    0.0014523    0.0018074
o    -1.6517210    2.5196712   -0.7427144  0.00   -0.0003872    0.0007968   -0.0016517
h    -1.0370557    1.7441875   -0.5398519  0.00    0.0010262   -0.0012794    0.0003866
    13
 Energy =       0.0686182941
c    -3.7886101    1.8748180    0.4489760  0.00    0.0000619    0.0001950    0.0000465
c    -2.5093638    2.6899203    0.3398599  0.00    0.0000203    0.0000042    0.0000106
c    -4.7391603    2.1624174   -0.7272223  0.00   -0.0001326   -0.0000214   -0.0000573
h    -4.9835431    3.2470553   -0.7697159  0.00   -0.0000480    0.0001568   -0.0000096
h    -5.6866811    1.5951679   -0.6083875  0.00   -0.0000066   -0.0000023   -0.0000054
h    -4.2587625    1.8772075   -1.6902278  0.00    0.0000403   -0.0000390   -0.0001293
n    -3.4821211    0.4325194    0.5279344  0.00    0.0002258   -0.0001897    0.0000263
h    -4.2877807    2.2122228    1.3894587  0.00   -0.0000450    0.0000704    0.0001203
h    -3.8120059    0.0555488    1.4480830  0.00   -0.0000375   -0.0000507    0.0001485
h    -3.9692120   -0.1244619   -0.2139653  0.00   -0.0000759   -0.0001235   -0.0001490
o    -2.1796495    3.6064849    1.3294384  0.00   -0.0000022    0.0000031    0.0000002
o    -1.6569880    2.5292714   -0.7443187  0.00   -0.0000008   -0.0000020   -0.0000041
h    -1.0427856    1.7544054   -0.5426379  0.00    0.0000003   -0.0000009    0.0000023
    13
 Energy =       0.0686181749
c    -3.7886279    1.8747826    0.4489731  0.00   -0.0000000   -0.0000000   -0.0000000
c    -2.5093711    2.6898811    0.3399931  0.00   -0.0000002   -0.0000002   -0.0000001
c    -4.7390100    2.1623456   -0.7271134  0.00    0.0000000   -0.0000000    0.0000000
h    -4.9833038    3.2468472   -0.7696115  0.00    0.0000000   -0.0000000    0.0000000
h    -5.6865510    1.5951211   -0.6083434  0.00    0.0000000   -0.0000000   -0.0000000
h    -4.2585560    1.8772161   -1.6899666  0.00    0.0000000   -0.0000000   -0.0000000
n    -3.4822332    0.4326601    0.5279135  0.00    0.0000000    0.0000000   -0.0000001
h    -4.2878669    2.2120793    1.3893070  0.00   -0.0000000   -0.0000000    0.0000000
h    -3.8122958    0.0556475    1.4478769  0.00    0.0000000    0.0000000    0.0000000
h    -3.9691763   -0.1242554   -0.2139659  0.00   -0.0000000    0.0000000   -0.0000000
o    -2.1793178    3.6058046    1.3300508  0.00    0.0000000    0.0000003    0.0000004
o    -1.6572407    2.5297649   -0.7444578  0.00   -0.0000001    0.0000002   -0.0000003
h    -1.0431134    1.7546828   -0.5433807  0.00    0.0000002   -0.0000003    0.0000001
    13
 Energy =       0.0686181749
c    -3.7886280    1.8747825    0.4489730  0.00    0.0000000   -0.0000000   -0.0000000
c    -2.5093712    2.6898809    0.3399936  0.00   -0.0000000   -0.0000000   -0.0000000
c    -4.7390095    2.1623454   -0.7271140  0.00   -0.0000000    0.0000000    0.0000000
h    -4.9833029    3.2468471   -0.7696125  0.00   -0.0000000    0.0000000    0.0000000
h    -5.6865508    1.5951213   -0.6083442  0.00   -0.0000000    0.0000000    0.0000000
h    -4.2585552    1.8772154   -1.6899668  0.00    0.0000000    0.0000000   -0.0000000
n    -3.4822334    0.4326600    0.5279138  0.00    0.0000000    0.0000000   -0.0000000
h    -4.2878675    2.2120794    1.3893066  0.00   -0.0000000   -0.0000000    0.0000000
h    -3.8122945    0.0556480    1.4478779  0.00   -0.0000000   -0.0000000    0.0000000
h    -3.9691778   -0.1242559   -0.2139644  0.00   -0.0000000   -0.0000000   -0.0000000
o    -2.1793167    3.6058023    1.3300526  0.00    0.0000000    0.0000000    0.0000000
o    -1.6572415    2.5297666   -0.7444580  0.00   -0.0000000    0.0000000   -0.0000000
h    -1.0431144    1.7546841   -0.5433827  0.00    0.0000000   -0.0000000    0.0000000
