    27
 Energy =       0.3526040160
c    -1.4235396    2.6054793   -0.0667700  0.00   -0.0462899    0.0383778    0.0026363
c    -1.3072796    1.2134697   -0.1072300  0.00   -0.0852191   -0.0325850    0.0019396
c    -0.0178900    0.6711998   -0.1697000  0.00   -0.0888935   -0.1882248   -0.0007713
c    -0.2940599    3.4190890   -0.0891300  0.00   -0.0233428    0.0689939    0.0028340
c     0.9872197    2.8590292   -0.1560400  0.00    0.0254529    0.0656719   -0.0093386
c     1.1340797    1.4562096   -0.1970299  0.00    0.0547618    0.0524933    0.0010865
n     0.3879399   -0.6395298   -0.2140799  0.00    0.1430216    0.1098031   -0.0036437
c     2.2666594    0.5727398   -0.2659299  0.00    0.1494398   -0.0826893    0.0090814
c     1.7555995   -0.7123598   -0.2706899  0.00   -0.1008767   -0.0973893    0.0042821
h    -0.2400399   -1.4313496   -0.2047299  0.00    0.0367773    0.0479059   -0.0004060
c     3.7030089    1.0223397   -0.3320099  0.00    0.0096069    0.0149683   -0.0217620
c     4.2197688    1.4064496   -1.7267995  0.00   -0.0484245   -0.0257123    0.0235207
h     4.3261788    0.2093419    0.0639454  0.00   -0.0057366    0.0151573   -0.0087979
h     3.8370289    1.8640295    0.3610799  0.00   -0.0047178   -0.0108391   -0.0088924
c     5.7571784    1.4848496   -1.6848495  0.00    0.2692496   -0.1943672    0.1208379
n     3.7117889    2.7395892   -2.2095194  0.00    0.0614760    0.0951286   -0.0348192
h     3.9553389    0.6476998   -2.4727493  0.00   -0.0006956    0.0190058    0.0074105
h     3.0482891    3.0810591   -1.5064896  0.00   -0.0485712   -0.0045620    0.0735803
h     4.4902887    3.4059490   -2.1568694  0.00    0.3065079   -0.1811382    0.0250108
h    -2.4108593    3.0588691   -0.0157800  0.00   -0.0007720    0.0002042    0.0001310
h    -2.1896094    0.5822398   -0.0890100  0.00   -0.0035863    0.0037883    0.0001477
h    -0.4052699    4.5000487   -0.0535400  0.00    0.0006636    0.0002725    0.0004733
h     1.8590495    3.5066790   -0.1715100  0.00    0.0626951   -0.0196002   -0.0703125
h     2.2327294   -1.6813195   -0.3062999  0.00   -0.0411281   -0.0111628    0.0025675
o     6.5042181    0.5890648   -1.3279196  0.00   -0.1792752    0.2120673   -0.0922836
o     6.1990582    2.7009292   -2.1049194  0.00   -0.4025600    0.1194241   -0.0145841
h     6.7199781    3.0619691   -1.3414296  0.00   -0.0395631   -0.0149919   -0.0099283
    27
 Energy =       0.3455311761
c    -1.4131704    2.5058553    0.0107881  0.00   -0.0460131    0.0379874    0.0026351
c    -1.2871510    1.1132889   -0.0546090  0.00   -0.0848113   -0.0325353    0.0018880
c     0.0071067    0.5845885   -0.1373277  0.00   -0.0884996   -0.1863279   -0.0007576
c    -0.2880469    3.3290290    0.0091058  0.00   -0.0230169    0.0684304    0.0026472
c     0.9945173    2.7752773   -0.0725417  0.00    0.0235245    0.0644718   -0.0086536
c     1.1441246    1.3858868   -0.1675915  0.00    0.0528052    0.0522552    0.0009803
n     0.4441220   -0.7196869   -0.2003981  0.00    0.1388150    0.1097432   -0.0030349
c     2.2899645    0.5434803   -0.2934119  0.00    0.1472287   -0.0818959    0.0093334
c     1.8128785   -0.7535080   -0.3272126  0.00   -0.0975002   -0.0964636    0.0041828
h    -0.1582516   -1.5318649   -0.1727252  0.00    0.0357024    0.0466396   -0.0004373
c     3.6990072    1.0695228   -0.4088207  0.00    0.0104758    0.0163286   -0.0214669
c     4.1650583    1.5250154   -1.8068060  0.00   -0.0460263   -0.0259374    0.0223790
h     4.3672981    0.2709686   -0.0525814  0.00   -0.0038071    0.0138257   -0.0087657
h     3.8216578    1.8935715    0.3076747  0.00   -0.0053868   -0.0101597   -0.0084734
c     5.7038764    1.5836535   -1.7850796  0.00    0.2637201   -0.1992412    0.1215736
n     3.6626241    2.8901068   -2.2243943  0.00    0.0590129    0.0968219   -0.0353279
h     3.8777129    0.8016263   -2.5808740  0.00   -0.0008092    0.0182110    0.0061722
h     3.0034303    3.2398122   -1.5146871  0.00   -0.0361735   -0.0064727    0.0586616
h     4.4549091    3.5441551   -2.1770798  0.00    0.3039351   -0.1791424    0.0248462
h    -2.4033555    2.9511219    0.0777420  0.00   -0.0008900    0.0003570    0.0001439
h    -2.1637015    0.4740246   -0.0404751  0.00   -0.0035902    0.0036991    0.0001331
h    -0.4036507    4.4080619    0.0856865  0.00    0.0006255    0.0011560    0.0004435
h     1.8851544    3.3910463   -0.0250978  0.00    0.0526038   -0.0171335   -0.0548827
h     2.3152513   -1.7061988   -0.4338690  0.00   -0.0388313   -0.0135610    0.0023549
o     6.4359197    0.6820558   -1.4031987  0.00   -0.1774687    0.2105608   -0.0907210
o     6.1579788    2.8241947   -2.1111753  0.00   -0.3989360    0.1222035   -0.0195276
h     6.6815888    3.1186801   -1.3170397  0.00   -0.0366888   -0.0138207   -0.0063265
    27
 Energy =       0.3084839326
c    -1.4428523    2.3863662   -0.0052329  0.00   -0.0360331    0.0301876    0.0020128
c    -1.2699619    1.0057608   -0.0656808  0.00   -0.0665721   -0.0256138    0.0013333
c     0.0304121    0.5216453   -0.1606401  0.00   -0.0695672   -0.1432332   -0.0020964
c    -0.3497327    3.2412611   -0.0136809  0.00   -0.0175157    0.0540085    0.0020646
c     0.9402305    2.7308069   -0.1013541  0.00    0.0190393    0.0500396   -0.0069045
c     1.1288447    1.3574296   -0.2019260  0.00    0.0407910    0.0413923    0.0008755
n     0.5042330   -0.7863189   -0.1767827  0.00    0.1051611    0.0837531    0.0001383
c     2.2947017    0.5744862   -0.3256487  0.00    0.1158085   -0.0629585    0.0070846
c     1.8825588   -0.7348760   -0.3457401  0.00   -0.0742034   -0.0724697    0.0019017
h    -0.0563305   -1.6378201   -0.1131856  0.00    0.0261641    0.0329171    0.0003673
c     3.6994122    1.1356814   -0.4111698  0.00    0.0088177    0.0126928   -0.0169911
c     4.1791000    1.5939699   -1.8089256  0.00   -0.0356447   -0.0204585    0.0168197
h     4.3828063    0.3536008   -0.0364580  0.00   -0.0025785    0.0105779   -0.0067108
h     3.7912044    1.9677086    0.3056416  0.00   -0.0041503   -0.0074844   -0.0063042
c     5.7150551    1.6612102   -1.8016370  0.00    0.2055753   -0.1549380    0.0954866
n     3.6633213    2.9489200   -2.2134296  0.00    0.0462760    0.0748865   -0.0276459
h     3.8958193    0.8651093   -2.5844903  0.00   -0.0006140    0.0141500    0.0047688
h     2.9980383    3.3008599   -1.5095288  0.00   -0.0273438   -0.0045226    0.0455385
h     4.4496564    3.6141667   -2.1447482  0.00    0.2447077   -0.1432943    0.0215537
h    -2.4471188    2.7986837    0.0708560  0.00   -0.0013441    0.0005969    0.0001549
h    -2.1225174    0.3344474   -0.0315484  0.00   -0.0036341    0.0023148    0.0001588
h    -0.4994293    4.3163086    0.0661001  0.00    0.0004816    0.0015219    0.0003922
h     1.7996908    3.3806750   -0.0472055  0.00    0.0408172   -0.0133735   -0.0423172
h     2.4618103   -1.6467652   -0.4383938  0.00   -0.0282923   -0.0132488    0.0013805
o     6.4600185    0.7276741   -1.4057511  0.00   -0.1381516    0.1644138   -0.0697098
o     6.1950465    2.9060382   -2.1094558  0.00   -0.3327759    0.0843688   -0.0607679
h     6.5228357    3.2767352   -1.2059833  0.00   -0.0152187    0.0037735    0.0374161
    27
 Energy =       0.3016313310
c    -1.4860017    2.2917770   -0.0317019  0.00   -0.0343435    0.0287641    0.0018487
c    -1.2725619    0.9168730   -0.0605774  0.00   -0.0627973   -0.0251250    0.0011789
c     0.0383985    0.4690967   -0.1690400  0.00   -0.0649801   -0.1280967   -0.0034559
c    -0.4197848    3.1768952   -0.0734292  0.00   -0.0160622    0.0516080    0.0019637
c     0.8808869    2.7029888   -0.1692276  0.00    0.0182378    0.0474842   -0.0065320
c     1.1097644    1.3355741   -0.2476726  0.00    0.0385466    0.0396729    0.0008115
n     0.5559841   -0.8285311   -0.0920053  0.00    0.0974740    0.0731484    0.0017706
c     2.2969631    0.5878122   -0.3594081  0.00    0.1094740   -0.0572426    0.0064547
c     1.9264928   -0.7324191   -0.3296949  0.00   -0.0668206   -0.0659428    0.0005546
h     0.0312759   -1.7002416    0.0455676  0.00    0.0216351    0.0258102    0.0013300
c     3.6948089    1.1805446   -0.4255163  0.00    0.0085097    0.0117736   -0.0160280
c     4.1972494    1.6511951   -1.8137808  0.00   -0.0333586   -0.0191414    0.0157183
h     4.3901141    0.4142109   -0.0375810  0.00   -0.0021375    0.0097561   -0.0062512
h     3.7558178    2.0140537    0.2946842  0.00   -0.0038830   -0.0066440   -0.0055824
c     5.7333375    1.7378451   -1.7873652  0.00    0.1925903   -0.1449208    0.0894501
n     3.6727085    3.0005277   -2.2158649  0.00    0.0421418    0.0690369   -0.0263257
h     3.9344191    0.9227215   -2.5981770  0.00   -0.0005962    0.0130859    0.0042810
h     2.9975018    3.3406267   -1.5177417  0.00   -0.0244689   -0.0041906    0.0414971
h     4.4473478    3.6745361   -2.1045568  0.00    0.2301524   -0.1333739    0.0205392
h    -2.5009876    2.6758460    0.0550931  0.00   -0.0018071    0.0006713    0.0001858
h    -2.1030461    0.2201479    0.0193729  0.00   -0.0046182    0.0009973    0.0002831
h    -0.5996840    4.2489521   -0.0103826  0.00    0.0004622    0.0020693    0.0004071
h     1.7112771    3.3840673   -0.1295070  0.00    0.0377491   -0.0119421   -0.0380367
h     2.5411541   -1.6242992   -0.3892974  0.00   -0.0262453   -0.0139270    0.0012525
o     6.4884544    0.7992623   -1.3963759  0.00   -0.1292740    0.1537985   -0.0652606
o     6.2121291    2.9901554   -2.0841353  0.00   -0.3115476    0.0789685   -0.0580725
h     6.5728339    3.3435466   -1.1876778  0.00   -0.0140328    0.0039017    0.0360182
    27
 Energy =       0.2975048472
c    -1.4657416    2.3349240   -0.0263327  0.00   -0.0345120    0.0288014    0.0018189
c    -1.2725787    0.9574417   -0.0861664  0.00   -0.0626500   -0.0257692    0.0011492
c     0.0331756    0.4933538   -0.1823483  0.00   -0.0642185   -0.1234999   -0.0037077
c    -0.3854630    3.2057002   -0.0324165  0.00   -0.0156645    0.0519030    0.0019381
c     0.9101989    2.7145955   -0.1179709  0.00    0.0183313    0.0477563   -0.0065649
c     1.1177159    1.3456895   -0.2218121  0.00    0.0386919    0.0400984    0.0008077
n     0.5235015   -0.8185493   -0.1823906  0.00    0.0959569    0.0694567    0.0020410
c     2.2940418    0.5843392   -0.3383609  0.00    0.1097595   -0.0558406    0.0063859
c     1.9064086   -0.7322150   -0.3537197  0.00   -0.0643153   -0.0644168    0.0002025
h    -0.0227899   -1.6878190   -0.1131856  0.00    0.0193304    0.0221654    0.0016132
c     3.6952965    1.1627451   -0.4030533  0.00    0.0084968    0.0117653   -0.0159993
c     4.1889292    1.6290388   -1.7948992  0.00   -0.0332463   -0.0190563    0.0156563
h     4.3841298    0.3877695   -0.0205214  0.00   -0.0020628    0.0096711   -0.0062062
h     3.7680350    1.9950807    0.3174229  0.00   -0.0038749   -0.0065500   -0.0055133
c     5.7239589    1.7061603   -1.7778809  0.00    0.1916944   -0.1443302    0.0890335
n     3.6663531    2.9796688   -2.1975495  0.00    0.0414396    0.0683018   -0.0263296
h     3.9178468    0.8996941   -2.5758715  0.00   -0.0006033    0.0129981    0.0042372
h     2.9951726    3.3276607   -1.4972092  0.00   -0.0241180   -0.0041739    0.0409041
h     4.4484143    3.6514849   -2.1137207  0.00    0.2294293   -0.1322908    0.0204510
h    -2.4766349    2.7320393    0.0504161  0.00   -0.0019812    0.0006452    0.0001935
h    -2.1156613    0.2708476   -0.0483043  0.00   -0.0053504    0.0002308    0.0003166
h    -0.5505579    4.2790632    0.0500530  0.00    0.0005223    0.0023897    0.0004282
h     1.7570299    3.3791556   -0.0543178  0.00    0.0377544   -0.0115244   -0.0372468
h     2.5102250   -1.6306676   -0.4320166  0.00   -0.0262968   -0.0143297    0.0012731
o     6.4748815    0.7642809   -1.3846107  0.00   -0.1286618    0.1530642   -0.0649373
o     6.2084472    2.9520735   -2.0861363  0.00   -0.3098974    0.0786373   -0.0578283
h     6.5725185    3.3102088   -1.1930959  0.00   -0.0139538    0.0038970    0.0358832
    27
 Energy =       0.2888424833
c    -1.4515524    2.3613421   -0.0225461  0.00   -0.0331788    0.0276625    0.0017280
c    -1.2706280    0.9846615   -0.1124863  0.00   -0.0599290   -0.0252662    0.0010881
c     0.0302516    0.5109149   -0.1983058  0.00   -0.0607551   -0.1144251   -0.0032124
c    -0.3633641    3.2217113    0.0041624  0.00   -0.0146955    0.0499851    0.0018210
c     0.9281351    2.7203130   -0.0725839  0.00    0.0176963    0.0460739   -0.0063330
c     1.1212446    1.3527778   -0.2003050  0.00    0.0372284    0.0388795    0.0007609
n     0.5005093   -0.8086642   -0.2730930  0.00    0.0904293    0.0635619    0.0016205
c     2.2892241    0.5857114   -0.3198654  0.00    0.1055780   -0.0524072    0.0060789
c     1.8935410   -0.7266804   -0.3779715  0.00   -0.0592327   -0.0604336    0.0002628
h    -0.0603988   -1.6748429   -0.2719387  0.00    0.0163308    0.0178943    0.0014808
c     3.6931627    1.1535681   -0.3769219  0.00    0.0081446    0.0113166   -0.0153014
c     4.1824445    1.6137537   -1.7717382  0.00   -0.0318012   -0.0182230    0.0149690
h     4.3765003    0.3727058    0.0047845  0.00   -0.0019366    0.0092261   -0.0059199
h     3.7723433    1.9866075    0.3425422  0.00   -0.0037146   -0.0062331   -0.0052531
c     5.7154788    1.6861768   -1.7622188  0.00    0.1830215   -0.1380594    0.0850953
n     3.6578405    2.9619104   -2.1776982  0.00    0.0392504    0.0649644   -0.0252070
h     3.9075401    0.8805101   -2.5484942  0.00   -0.0005889    0.0124013    0.0040408
h     2.9870391    3.3167823   -1.4783287  0.00   -0.0230552   -0.0039911    0.0389178
h     4.4439372    3.6346591   -2.1178197  0.00    0.2198537   -0.1261542    0.0195289
h    -2.4599199    2.7663558    0.0455113  0.00   -0.0019996    0.0005762    0.0001876
h    -2.1210827    0.3051308   -0.1141553  0.00   -0.0057282   -0.0004091    0.0002952
h    -0.5195650    4.2949774    0.1044192  0.00    0.0005533    0.0025034    0.0004258
h     1.7850765    3.3742468    0.0105434  0.00    0.0363344   -0.0107975   -0.0352905
h     2.4959716   -1.6250022   -0.4701130  0.00   -0.0253086   -0.0139640    0.0012602
o     6.4665358    0.7369737   -1.3691769  0.00   -0.1229065    0.1462197   -0.0620515
o     6.2073676    2.9252243   -2.0864560  0.00   -0.2964738    0.0750626   -0.0558872
h     6.5992203    3.2819403   -1.2057459  0.00   -0.0131161    0.0040360    0.0348942
    27
 Energy =       0.2743936311
c    -1.4504034    2.3572669   -0.0271512  0.00   -0.0299121    0.0249429    0.0015445
c    -1.2691051    0.9856625   -0.1487327  0.00   -0.0537384   -0.0232169    0.0010153
c     0.0286295    0.5134445   -0.2268455  0.00   -0.0540446   -0.1001295   -0.0020761
c    -0.3631745    3.2144246    0.0331834  0.00   -0.0128740    0.0451573    0.0015620
c     0.9263221    2.7138558   -0.0359464  0.00    0.0160483    0.0417785   -0.0057716
c     1.1164022    1.3519109   -0.1909004  0.00    0.0335743    0.0353376    0.0006208
n     0.4904532   -0.8071644   -0.3685478  0.00    0.0799632    0.0550608    0.0005992
c     2.2809109    0.5916139   -0.3121330  0.00    0.0952260   -0.0461718    0.0054283
c     1.8910353   -0.7174165   -0.4125799  0.00   -0.0514790   -0.0534400    0.0007094
h    -0.0746625   -1.6723372   -0.4306918  0.00    0.0128741    0.0133365    0.0010095
c     3.6866207    1.1557161   -0.3478457  0.00    0.0074244    0.0102886   -0.0137402
c     4.1818628    1.6181470   -1.7402486  0.00   -0.0284887   -0.0163613    0.0133944
h     4.3656449    0.3702066    0.0347722  0.00   -0.0017030    0.0082710   -0.0053043
h     3.7632082    1.9867474    0.3754376  0.00   -0.0033305   -0.0055781   -0.0046938
c     5.7120537    1.6945857   -1.7302392  0.00    0.1638040   -0.1238471    0.0764949
n     3.6490772    2.9604613   -2.1464973  0.00    0.0351591    0.0581688   -0.0225821
h     3.9130488    0.8816901   -2.5177130  0.00   -0.0005336    0.0111013    0.0036145
h     2.9753044    3.3175743   -1.4494259  0.00   -0.0209125   -0.0035367    0.0350672
h     4.4342393    3.6387496   -2.0989936  0.00    0.1987373   -0.1136260    0.0176986
h    -2.4593047    2.7616415    0.0341208  0.00   -0.0018442    0.0004756    0.0001692
h    -2.1196149    0.3069526   -0.1876997  0.00   -0.0056365   -0.0009054    0.0002365
h    -0.5196376    4.2855825    0.1534251  0.00    0.0005570    0.0024694    0.0003969
h     1.7839658    3.3658957    0.0689069  0.00    0.0330066   -0.0095249   -0.0317575
h     2.5057778   -1.6063797   -0.5139663  0.00   -0.0227562   -0.0127420    0.0012033
o     6.4687444    0.7316954   -1.3420939  0.00   -0.1101516    0.1309962   -0.0557384
o     6.2136905    2.9277026   -2.0705671  0.00   -0.2690016    0.0663316   -0.0543600
h     6.6757643    3.2655352   -1.2170261  0.00   -0.0099678    0.0053636    0.0352593
    27
 Energy =       0.2571856228
c    -1.4672192    2.3101090   -0.0456754  0.00   -0.0255702    0.0212839    0.0013042
c    -1.2697727    0.9479400   -0.2031595  0.00   -0.0454354   -0.0202319    0.0009450
c     0.0287584    0.4916326   -0.2762091  0.00   -0.0456717   -0.0834859   -0.0008670
c    -0.3914096    3.1737238    0.0535271  0.00   -0.0104307    0.0386443    0.0012221
c     0.9000378    2.6879487   -0.0087705  0.00    0.0137153    0.0358930   -0.0049960
c     1.1024998    1.3365667   -0.1993551  0.00    0.0285163    0.0301314    0.0003892
n     0.4982317   -0.8232820   -0.4730091  0.00    0.0667031    0.0452781   -0.0004396
c     2.2712112    0.5979722   -0.3224607  0.00    0.0807623   -0.0382799    0.0045995
c     1.9033385   -0.7096249   -0.4676088  0.00   -0.0427495   -0.0449501    0.0011931
h    -0.0585807   -1.6919735   -0.5894449  0.00    0.0095982    0.0091880    0.0004608
c     3.6758985    1.1697592   -0.3193006  0.00    0.0065599    0.0087426   -0.0115011
c     4.1892319    1.6566505   -1.6988739  0.00   -0.0238662   -0.0138314    0.0110698
h     4.3535314    0.3797062    0.0600640  0.00   -0.0014351    0.0069485   -0.0044668
h     3.7375723    1.9898113    0.4198931  0.00   -0.0027729   -0.0045091   -0.0037355
c     5.7165126    1.7475301   -1.6759180  0.00    0.1382126   -0.1040727    0.0650531
n     3.6418705    2.9932446   -2.0927570  0.00    0.0297812    0.0490796   -0.0191781
h     3.9389842    0.9247311   -2.4891882  0.00   -0.0004582    0.0091815    0.0028631
h     2.9627237    3.3422693   -1.3957627  0.00   -0.0177722   -0.0027750    0.0298310
h     4.4202794    3.6820975   -2.0374547  0.00    0.1705371   -0.0970806    0.0154889
h    -2.4808444    2.7028042    0.0108954  0.00   -0.0016633    0.0004201    0.0001505
h    -2.1118058    0.2617904   -0.2784173  0.00   -0.0052670   -0.0013261    0.0001560
h    -0.5598249    4.2398749    0.2002025  0.00    0.0005418    0.0025549    0.0003815
h     1.7473658    3.3471045    0.1276200  0.00    0.0283520   -0.0077525   -0.0269413
h     2.5436793   -1.5796726   -0.5763701  0.00   -0.0190112   -0.0111736    0.0010778
o     6.4836331    0.7664795   -1.2991932  0.00   -0.0929032    0.1103209   -0.0472272
o     6.2279062    2.9788323   -2.0223940  0.00   -0.2369502    0.0533603   -0.0575553
h     6.8030442    3.2697392   -1.2168784  0.00   -0.0013228    0.0084417    0.0407223
    27
 Energy =       0.2453972278
c    -1.4957848    2.2281582   -0.0840032  0.00   -0.0225678    0.0185247    0.0011336
c    -1.2706755    0.8775337   -0.2784031  0.00   -0.0392819   -0.0181585    0.0008491
c     0.0335921    0.4473804   -0.3455428  0.00   -0.0395830   -0.0715736   -0.0001839
c    -0.4387269    3.1056653    0.0585704  0.00   -0.0084637    0.0339769    0.0010385
c     0.8590161    2.6446099    0.0049080  0.00    0.0118738    0.0315762   -0.0043049
c     1.0870611    1.3066051   -0.2253407  0.00    0.0247092    0.0259696    0.0001929
n     0.5255253   -0.8554897   -0.5853865  0.00    0.0566265    0.0380251   -0.0010269
c     2.2676621    0.5981882   -0.3482035  0.00    0.0695500   -0.0324168    0.0040476
c     1.9312829   -0.7096639   -0.5379266  0.00   -0.0363239   -0.0389284    0.0013907
h    -0.0135392   -1.7306702   -0.7481980  0.00    0.0072301    0.0061487    0.0000166
c     3.6664429    1.1889410   -0.2945586  0.00    0.0059880    0.0071557   -0.0094618
c     4.2041667    1.7243541   -1.6501702  0.00   -0.0200922   -0.0118752    0.0091331
h     4.3469702    0.3951592    0.0746098  0.00   -0.0012924    0.0058129   -0.0037717
h     3.7020978    1.9873165    0.4721090  0.00   -0.0023227   -0.0032405   -0.0025128
c     5.7294930    1.8341179   -1.6037375  0.00    0.1191265   -0.0888561    0.0561069
n     3.6417515    3.0605531   -2.0152662  0.00    0.0253696    0.0418431   -0.0171162
h     3.9791048    1.0098796   -2.4662377  0.00   -0.0004429    0.0073353    0.0018702
h     2.9536501    3.3880103   -1.3161311  0.00   -0.0150343   -0.0019281    0.0255496
h     4.4093343    3.7609614   -1.9288301  0.00    0.1485364   -0.0834814    0.0137920
h    -2.5171815    2.6010299   -0.0325512  0.00   -0.0016809    0.0004465    0.0001450
h    -2.0981870    0.1784920   -0.3894135  0.00   -0.0051092   -0.0017760    0.0000562
h    -0.6281726    4.1640763    0.2353146  0.00    0.0005177    0.0029467    0.0004369
h     1.6883218    3.3151955    0.1819253  0.00    0.0246389   -0.0060621   -0.0226589
h     2.6004143   -1.5575512   -0.6511844  0.00   -0.0159837   -0.0101057    0.0009382
o     6.5068283    0.8404847   -1.2374604  0.00   -0.0797292    0.0945349   -0.0406484
o     6.2450366    3.0713081   -1.9350145  0.00   -0.2090734    0.0454082   -0.0552557
h     6.8913690    3.3191195   -1.1698763  0.00    0.0028147    0.0086981    0.0402441
    27
 Energy =       0.2402419803
c    -1.5297637    2.1309875   -0.1485036  0.00   -0.0214935    0.0171154    0.0010444
c    -1.2716783    0.7921491   -0.3743227  0.00   -0.0364589   -0.0174406    0.0007287
c     0.0414850    0.3921947   -0.4307371  0.00   -0.0367071   -0.0658429    0.0000719
c    -0.4951476    3.0256371    0.0378348  0.00   -0.0073751    0.0320310    0.0010544
c     0.8112904    2.5932023   -0.0018045  0.00    0.0109184    0.0296397   -0.0038250
c     1.0724787    1.2692413   -0.2671743  0.00    0.0228964    0.0238263    0.0000820
n     0.5647297   -0.8945532   -0.7021459  0.00    0.0512119    0.0342433   -0.0013435
c     2.2695577    0.5924935   -0.3823023  0.00    0.0637987   -0.0296381    0.0038336
c     1.9674226   -0.7165242   -0.6107642  0.00   -0.0327364   -0.0361099    0.0014360
h     0.0485858   -1.7766280   -0.9069511  0.00    0.0056970    0.0040264   -0.0003784
c     3.6581039    1.2074840   -0.2703328  0.00    0.0058762    0.0057518   -0.0079707
c     4.2248911    1.8049373   -1.5920638  0.00   -0.0179691   -0.0108198    0.0079657
h     4.3438741    0.4115730    0.0858947  0.00   -0.0012909    0.0050888   -0.0033513
h     3.6594957    1.9767718    0.5287823  0.00   -0.0020977   -0.0019870   -0.0011639
c     5.7484527    1.9355933   -1.5107536  0.00    0.1098310   -0.0814732    0.0515058
n     3.6499701    3.1446555   -1.9198030  0.00    0.0225249    0.0374331   -0.0170143
h     4.0301553    1.1178729   -2.4412568  0.00   -0.0005208    0.0058462    0.0006726
h     2.9479802    3.4408256   -1.2205586  0.00   -0.0134456   -0.0011653    0.0232441
h     4.4040467    3.8537564   -1.7820711  0.00    0.1378317   -0.0750450    0.0130815
h    -2.5599687    2.4806392   -0.1058938  0.00   -0.0019111    0.0005041    0.0001464
h    -2.0816589    0.0784318   -0.5196188  0.00   -0.0052959   -0.0022733   -0.0000616
h    -0.7101560    4.0747634    0.2415959  0.00    0.0004970    0.0034863    0.0005459
h     1.6182469    3.2756035    0.2194674  0.00    0.0227009   -0.0047604   -0.0197416
h     2.6623862   -1.5442026   -0.7195246  0.00   -0.0143031   -0.0096778    0.0008480
o     6.5344004    0.9381926   -1.1504527  0.00   -0.0730765    0.0866630   -0.0372952
o     6.2605716    3.1852595   -1.8094575  0.00   -0.1927183    0.0424429   -0.0523880
h     6.9371017    3.4034076   -1.0630816  0.00    0.0036158    0.0081349    0.0382726
    27
 Energy =       0.2229041399
c    -1.5294665    2.0828497   -0.1099869  0.00   -0.0159698    0.0128277    0.0006613
c    -1.2500609    0.7593122   -0.3704116  0.00   -0.0266920   -0.0134194    0.0004677
c     0.0627033    0.3802958   -0.4268722  0.00   -0.0271385   -0.0483536    0.0003424
c    -0.5110366    2.9839380    0.1082746  0.00   -0.0051571    0.0239722    0.0006215
c     0.7981123    2.5721662    0.0651420  0.00    0.0081390    0.0222432   -0.0028626
c     1.0737023    1.2630426   -0.2331566  0.00    0.0167356    0.0177881   -0.0001354
n     0.5969661   -0.8970657   -0.7314788  0.00    0.0372545    0.0244163   -0.0013414
c     2.2727825    0.6138745   -0.3666064  0.00    0.0467692   -0.0205611    0.0030974
c     2.0003598   -0.6882941   -0.6416157  0.00   -0.0243137   -0.0268367    0.0010529
h     0.0918909   -1.7822694   -0.9558755  0.00    0.0040967    0.0024856   -0.0005062
c     3.6538433    1.2407779   -0.2535174  0.00    0.0043320    0.0040366   -0.0057737
c     4.1986913    1.8307899   -1.5869061  0.00   -0.0132819   -0.0081639    0.0057668
h     4.3488238    0.4524554    0.1066004  0.00   -0.0009083    0.0036867   -0.0023411
h     3.6532350    2.0174373    0.5392537  0.00   -0.0015545   -0.0014243   -0.0007608
c     5.7202002    1.9628184   -1.5380105  0.00    0.0789205   -0.0594201    0.0386762
n     3.6021933    3.1584226   -1.9116768  0.00    0.0152286    0.0264721   -0.0125733
h     3.9932957    1.1335138   -2.4267587  0.00   -0.0004368    0.0043221    0.0004100
h     2.9061392    3.4573388   -1.2045968  0.00   -0.0106660   -0.0007956    0.0177434
h     4.3544375    3.8829475   -1.8214464  0.00    0.1075097   -0.0554661    0.0101662
h    -2.5646712    2.4164355   -0.0671381  0.00   -0.0015706    0.0003530    0.0000209
h    -2.0468068    0.0379848   -0.5430158  0.00   -0.0041671   -0.0021466   -0.0002320
h    -0.7426595    4.0241631    0.3358501  0.00    0.0002690    0.0029501    0.0004377
h     1.5957040    3.2640851    0.2992338  0.00    0.0174648   -0.0033798   -0.0148708
h     2.7240414   -1.4864938   -0.7908178  0.00   -0.0094858   -0.0083135    0.0003820
o     6.5180901    0.9427650   -1.1975698  0.00   -0.0527595    0.0630526   -0.0276452
o     6.2491590    3.1993641   -1.8710611  0.00   -0.1590702    0.0298829   -0.0512532
h     7.0371838    3.3711100   -1.2218347  0.00    0.0164520    0.0097918    0.0404491
    27
 Energy =       0.2196781380
c    -1.5028917    2.1460751   -0.0248018  0.00   -0.0154915    0.0120673    0.0006033
c    -1.2459672    0.8172787   -0.2786600  0.00   -0.0255181   -0.0128937    0.0003815
c     0.0593538    0.4196839   -0.3523867  0.00   -0.0257776   -0.0457786    0.0002796
c    -0.4685954    3.0351150    0.1677228  0.00   -0.0048935    0.0229665    0.0006573
c     0.8342078    2.6058979    0.1039999  0.00    0.0077065    0.0211457   -0.0025736
c     1.0847510    1.2897469   -0.1847863  0.00    0.0157825    0.0168323   -0.0001091
n     0.5682510   -0.8690673   -0.6527660  0.00    0.0346222    0.0229853   -0.0012478
c     2.2705473    0.6238171   -0.3389142  0.00    0.0439479   -0.0197335    0.0030358
c     1.9769108   -0.6758792   -0.6013804  0.00   -0.0224023   -0.0253409    0.0009553
h     0.0454095   -1.7501695   -0.8537585  0.00    0.0034869    0.0017649   -0.0006073
c     3.6613852    1.2339420   -0.2750596  0.00    0.0044017    0.0031532   -0.0048749
c     4.1747307    1.7778821   -1.6403913  0.00   -0.0126753   -0.0075063    0.0052693
h     4.3549268    0.4457799    0.0890169  0.00   -0.0009305    0.0034046   -0.0021221
h     3.6923239    2.0334362    0.4953815  0.00   -0.0013985   -0.0006988    0.0000218
c     5.6975499    1.8947865   -1.6345456  0.00    0.0745125   -0.0564342    0.0366070
n     3.5781214    3.0993524   -1.9885055  0.00    0.0131358    0.0230242   -0.0131247
h     3.9409802    1.0561570   -2.4532089  0.00   -0.0006256    0.0034450   -0.0004040
h     2.9057591    3.4268833   -1.2687147  0.00   -0.0106088   -0.0004137    0.0173331
h     4.3399095    3.8225088   -1.9606868  0.00    0.1039630   -0.0501875    0.0095645
h    -2.5327685    2.4941269    0.0322784  0.00   -0.0017207    0.0003712    0.0000234
h    -2.0551017    0.1052743   -0.4318936  0.00   -0.0041838   -0.0022407   -0.0002681
h    -0.6823524    4.0807955    0.3879179  0.00    0.0002513    0.0030064    0.0004606
h     1.6482652    3.2916518    0.3083747  0.00    0.0168266   -0.0027545   -0.0135891
h     2.6892029   -1.4806761   -0.7716646  0.00   -0.0086725   -0.0080432    0.0003076
o     6.4931136    0.8660889   -1.3036781  0.00   -0.0496130    0.0596069   -0.0262153
o     6.2357243    3.1170048   -2.0043008  0.00   -0.1503005    0.0287017   -0.0490973
h     7.0431061    3.2862721   -1.3805878  0.00    0.0161756    0.0095502    0.0387329
    27
 Energy =       0.2144353831
c    -1.4801440    2.1794938    0.0548475  0.00   -0.0138507    0.0106514    0.0005056
c    -1.2352560    0.8510421   -0.2041564  0.00   -0.0226803   -0.0114329    0.0003008
c     0.0642754    0.4450031   -0.2949855  0.00   -0.0228066   -0.0404374    0.0002091
c    -0.4379459    3.0607350    0.2335764  0.00   -0.0044512    0.0203951    0.0005911
c     0.8603243    2.6237696    0.1495554  0.00    0.0068246    0.0186713   -0.0022115
c     1.0958935    1.3067435   -0.1419194  0.00    0.0138033    0.0149131   -0.0000660
n     0.5566530   -0.8489340   -0.6015960  0.00    0.0301855    0.0203240   -0.0010146
c     2.2719626    0.6349711   -0.3188509  0.00    0.0385815   -0.0176758    0.0027738
c     1.9682696   -0.6607872   -0.5816984  0.00   -0.0193931   -0.0222639    0.0007955
h     0.0233141   -1.7270672   -0.7892876  0.00    0.0029410    0.0013693   -0.0005695
c     3.6675415    1.2347886   -0.2932269  0.00    0.0040742    0.0023743   -0.0039107
c     4.1484298    1.7486935   -1.6818068  0.00   -0.0115146   -0.0064527    0.0045823
h     4.3636081    0.4472946    0.0689243  0.00   -0.0008483    0.0029830   -0.0017998
h     3.7228714    2.0484266    0.4615553  0.00   -0.0011695   -0.0002986    0.0004149
c     5.6710196    1.8543904   -1.7183451  0.00    0.0654845   -0.0498728    0.0325266