    13
 Energy =       0.1026143593
c    -3.7133889    1.6950595    0.3173519  0.00   -0.1124591    0.0623401   -0.0004139
c    -2.4962693    2.6345192    0.2419999  0.00    0.3771781   -0.0527233    0.0883336
c    -4.9565486    2.3924193   -0.2155699  0.00    0.0359444    0.0355207    0.0110789
h    -4.7854386    2.7464192   -1.2386596  0.00    0.0036778    0.0008508    0.0183598
h    -5.2149185    3.2645991    0.3947669  0.00    0.0018026   -0.0126811   -0.0119155
h    -5.8205083    1.7195795   -0.2420919  0.00    0.0073305    0.0151568   -0.0033288
n    -3.4097890    0.4519539   -0.4549189  0.00    0.0788295   -0.0569927   -0.0085819
h    -3.8575589    1.4177196    1.3669296  0.00    0.0060171   -0.0112548   -0.0259543
h    -2.5963493    0.6418898   -1.0496997  0.00   -0.0237384    0.0153782    0.0412761
h    -3.0749291   -0.2623099    0.1989099  0.00   -0.0109988    0.0305959   -0.0236150
o    -1.4040496    2.4172293    0.7380088  0.00   -0.2643564    0.0549388   -0.1118580
o    -2.7835192    3.7545589   -0.4737969  0.00   -0.0714795   -0.0619404    0.0020431
h    -2.2118794    3.7013989   -1.2803496  0.00   -0.0277478   -0.0191889    0.0245759
    13
 Energy =       0.0670987038
c    -3.6606553    1.7054991    0.3095134  0.00   -0.0281473    0.0173071   -0.0000121
c    -2.5144832    2.7015183    0.2253400  0.00    0.1052297   -0.0217509    0.0122341
c    -4.9661728    2.3396415   -0.1630854  0.00    0.0194188    0.0145266    0.0009265
h    -4.8448755    2.7635338   -1.1819193  0.00    0.0038404    0.0037723    0.0031182
h    -5.2753449    3.1625799    0.5167458  0.00   -0.0015623   -0.0003531   -0.0006588
h    -5.7719230    1.5751087   -0.1928432  0.00   -0.0005636   -0.0004129   -0.0005853
n    -3.4010241    0.4971670   -0.5036127  0.00    0.0193762   -0.0103392   -0.0038898
h    -3.7524693    1.4266586    1.3825723  0.00    0.0020746   -0.0031753   -0.0053129
h    -2.5859036    0.6574688   -1.1342758  0.00   -0.0050122    0.0062496    0.0119802
h    -3.1185649   -0.2920328    0.1215408  0.00   -0.0018145    0.0018760   -0.0035609
o    -1.3272309    2.4494286    0.7936966  0.00   -0.0740894    0.0144592   -0.0287639
o    -2.7358669    3.8823699   -0.4529492  0.00   -0.0553660    0.0057573    0.0700257
h    -2.3706325    3.7060951   -1.4178428  0.00    0.0166157   -0.0279168   -0.0555010
    13
 Energy =       0.0659271734
c    -3.6454244    1.6848830    0.2917601  0.00   -0.0247870    0.0180929    0.0013575
c    -2.5203194    2.7081681    0.2427716  0.00    0.0932493   -0.0182720    0.0107051
c    -4.9762731    2.3236498   -0.1050105  0.00    0.0161279    0.0127866    0.0010831
h    -4.8946593    2.7988691   -1.1076048  0.00    0.0034656    0.0043027    0.0008161
h    -5.2734692    3.1090674    0.6256104  0.00   -0.0021389    0.0010859    0.0006316
h    -5.7719835    1.5491104   -0.1454640  0.00   -0.0005998   -0.0005540   -0.0003854
n    -3.3883226    0.5337928   -0.6065756  0.00    0.0167503   -0.0108460   -0.0088204
h    -3.7032012    1.3359161    1.3504578  0.00    0.0015005   -0.0037347   -0.0016813
h    -2.5663842    0.7310005   -1.2205580  0.00   -0.0034322    0.0059164    0.0094794
h    -3.1224616   -0.3059249   -0.0372123  0.00   -0.0005571   -0.0023299   -0.0004997
o    -1.3264253    2.4612403    0.8123358  0.00   -0.0653504    0.0127589   -0.0253762
o    -2.7508493    3.8994706   -0.4168439  0.00   -0.0489886    0.0056032    0.0620069
h    -2.3853737    3.7457933   -1.3807862  0.00    0.0147604   -0.0248100   -0.0493166
    13
 Energy =       0.0624802984
c    -3.6621088    1.6999364    0.2959617  0.00   -0.0145528    0.0133996    0.0031346
c    -2.5475655    2.7374440    0.2570149  0.00    0.0588934   -0.0115275    0.0058464
c    -4.9874348    2.2916505   -0.1938380  0.00    0.0086254    0.0063395    0.0005358
h    -4.8718871    2.6888882   -1.2300068  0.00    0.0023256    0.0042273   -0.0032264
h    -5.3159158    3.1296915    0.4668573  0.00   -0.0026027    0.0038755    0.0028390
h    -5.7730787    1.5055030   -0.2029118  0.00   -0.0005557   -0.0010627   -0.0003751
n    -3.3549776    0.5109410   -0.5358681  0.00    0.0088782   -0.0074246   -0.0097244
h    -3.7669151    1.4038861    1.3695135  0.00    0.0010132   -0.0026488    0.0014851
h    -2.4974339    0.6742691   -1.1157843  0.00    0.0003629    0.0031398    0.0042868
h    -3.1210025   -0.3014937    0.0879198  0.00    0.0006345   -0.0044976    0.0018764
o    -1.3561424    2.5019469    0.8722475  0.00   -0.0408827    0.0081269   -0.0148628
o    -2.7545327    3.9262834   -0.4199795  0.00   -0.0325718    0.0052174    0.0455890
h    -2.3161518    3.8060899   -1.3482457  0.00    0.0104327   -0.0171648   -0.0374044
    13
 Energy =       0.0607594691
c    -3.6785432    1.6955301    0.2767823  0.00   -0.0099777    0.0089065    0.0057492
c    -2.6046021    2.7816490    0.3235282  0.00    0.0329694   -0.0059205    0.0002580
c    -4.9963200    2.2229380   -0.3069615  0.00    0.0022517    0.0021148   -0.0014511
h    -4.8326174    2.5894707   -1.3476625  0.00    0.0012998    0.0027103   -0.0036551
h    -5.3892242    3.0692068    0.3081041  0.00   -0.0027500    0.0044871    0.0035660
h    -5.7541749    1.4098919   -0.3363491  0.00   -0.0012704   -0.0010806   -0.0006149
n    -3.2687523    0.5206263   -0.5326790  0.00   -0.0041702   -0.0071981   -0.0095223
h    -3.8485780    1.3982096    1.3428971  0.00    0.0000778   -0.0010877    0.0031595
h    -2.3410630    0.6892389   -1.0087354  0.00    0.0115041    0.0026845   -0.0038436
h    -3.1102461   -0.2988010    0.1082725  0.00    0.0008152   -0.0056529    0.0052536
o    -1.4406506    2.5835080    1.0299283  0.00   -0.0185314    0.0059401   -0.0046602
o    -2.8032206    3.9818470   -0.3398799  0.00   -0.0247627    0.0062470    0.0417534
h    -2.2571544    3.9317211   -1.2143647  0.00    0.0125443   -0.0121505   -0.0359925
    13
 Energy =       0.0608041478
c    -3.6751176    1.6978860    0.2774346  0.00   -0.0091612    0.0080991    0.0051948
c    -2.6185032    2.8005067    0.3270784  0.00    0.0277596   -0.0057436   -0.0008574
c    -5.0003682    2.2053420   -0.3059489  0.00    0.0019536    0.0019851   -0.0013258
h    -4.8435140    2.5671250   -1.3490155  0.00    0.0011610    0.0024628   -0.0033224
h    -5.4015633    3.0504500    0.3043207  0.00   -0.0024797    0.0040838    0.0032241
h    -5.7483192    1.3830459   -0.3284291  0.00   -0.0012196   -0.0010526   -0.0005601
n    -3.2480599    0.5300659   -0.5319031  0.00   -0.0037789   -0.0066677   -0.0086220
h    -3.8420510    1.3973617    1.3429636  0.00    0.0000565   -0.0009881    0.0028528
h    -2.3202615    0.7088024   -1.0023842  0.00    0.0104537    0.0024154   -0.0035114
h    -3.0863044   -0.2897824    0.1069883  0.00    0.0007366   -0.0050966    0.0047363
o    -1.4820859    2.6455198    1.0933437  0.00   -0.0136401    0.0045055   -0.0018491
o    -2.8077535    3.9762341   -0.3838319  0.00   -0.0234508    0.0069265    0.0369981
h    -2.2512450    3.9024795   -1.2477362  0.00    0.0116092   -0.0109296   -0.0329580
    13
 Energy =       0.0610634219
c    -3.6705920    1.6982299    0.2749606  0.00   -0.0086020    0.0074686    0.0047008
c    -2.6336893    2.8186577    0.3386112  0.00    0.0236647   -0.0051924   -0.0017159
c    -5.0019179    2.1873742   -0.3091462  0.00    0.0017253    0.0018653   -0.0012209
h    -4.8491463    2.5501619   -1.3521176  0.00    0.0010482    0.0022250   -0.0029983
h    -5.4143848    3.0273619    0.2998501  0.00   -0.0022599    0.0037401    0.0029305
h    -5.7387947    1.3552204   -0.3314980  0.00   -0.0011733   -0.0010224   -0.0005052
n    -3.2217200    0.5439592   -0.5409752  0.00   -0.0036721   -0.0063212   -0.0079601
h    -3.8370071    1.3871803    1.3374459  0.00   -0.0000036   -0.0009052    0.0026220
h    -2.2857245    0.7321134   -0.9901969  0.00    0.0098268    0.0022603   -0.0034225
h    -3.0710764   -0.2843766    0.0891644  0.00    0.0006543   -0.0047157    0.0044622
o    -1.5247530    2.6991572    1.1543926  0.00   -0.0100606    0.0037098    0.0000511
o    -2.8147092    3.9773733   -0.4028774  0.00   -0.0218311    0.0066648    0.0330312
h    -2.2616316    3.8826238   -1.2647330  0.00    0.0106833   -0.0097769   -0.0299748
    13
 Energy =       0.0612738246
c    -3.6679784    1.6977210    0.2713321  0.00   -0.0080127    0.0068893    0.0042206
c    -2.6446815    2.8293361    0.3531053  0.00    0.0207171   -0.0046489   -0.0020430
c    -5.0019849    2.1777612   -0.3130718  0.00    0.0015656    0.0017050   -0.0011026
h    -4.8503741    2.5448324   -1.3543917  0.00    0.0009529    0.0020054   -0.0027087
h    -5.4221325    3.0121558    0.2975699  0.00   -0.0020499    0.0034027    0.0026577
h    -5.7319048    1.3397523   -0.3393581  0.00   -0.0010895   -0.0009542   -0.0004526
n    -3.2032808    0.5575420   -0.5545136  0.00   -0.0036782   -0.0058168   -0.0074534
h    -3.8358964    1.3736684    1.3296188  0.00   -0.0000532   -0.0008319    0.0024474
h    -2.2579971    0.7513075   -0.9805707  0.00    0.0092932    0.0021785   -0.0033374
h    -3.0684194   -0.2822435    0.0637049  0.00    0.0005899   -0.0045333    0.0043386
o    -1.5597214    2.7294396    1.2053608  0.00   -0.0079256    0.0032107    0.0009533
o    -2.8129124    3.9784819   -0.4065819  0.00   -0.0201545    0.0061777    0.0297207
h    -2.2678632    3.8652816   -1.2693235  0.00    0.0098450   -0.0087839   -0.0272407
    13
 Energy =       0.0613831329
c    -3.6671983    1.6970039    0.2678974  0.00   -0.0073809    0.0063190    0.0037705
c    -2.6521896    2.8345344    0.3672489  0.00    0.0184015   -0.0041976   -0.0020722
c    -5.0017511    2.1741002   -0.3166331  0.00    0.0014277    0.0015409   -0.0009916
h    -4.8496606    2.5462081   -1.3558047  0.00    0.0008643    0.0018079   -0.0024517
h    -5.4264247    3.0037047    0.2966469  0.00   -0.0018514    0.0030822    0.0024043
h    -5.7280110    1.3332423   -0.3481056  0.00   -0.0009962   -0.0008766   -0.0004057
n    -3.1922055    0.5690009   -0.5677461  0.00   -0.0035487   -0.0052780   -0.0069385
h    -3.8376227    1.3607024    1.3218725  0.00   -0.0000799   -0.0007647    0.0022846
h    -2.2401093    0.7663126   -0.9756013  0.00    0.0086315    0.0020626   -0.0031517
h    -3.0702485   -0.2809217    0.0388891  0.00    0.0005349   -0.0043149    0.0041382
o    -1.5871203    2.7440354    1.2466128  0.00   -0.0065419    0.0028200    0.0013593
o    -2.8050149    3.9780191   -0.4044742  0.00   -0.0184983    0.0057161    0.0267655
h    -2.2675903    3.8490941   -1.2679222  0.00    0.0090374   -0.0079169   -0.0247111
    13
 Energy =       0.0614247210
c    -3.6677262    1.6962387    0.2648417  0.00   -0.0067505    0.0057661    0.0033627
c    -2.6573560    2.8362354    0.3803972  0.00    0.0164515   -0.0038197   -0.0019677
c    -5.0015297    2.1741553   -0.3198228  0.00    0.0012991    0.0013881   -0.0008932
h    -4.8479445    2.5513484   -1.3566787  0.00    0.0007814    0.0016309   -0.0022222
h    -5.4286503    2.9997948    0.2964049  0.00   -0.0016684    0.0027864    0.0021720
h    -5.7263056    1.3323802   -0.3568839  0.00   -0.0009067   -0.0008023   -0.0003645
n    -3.1861973    0.5784504   -0.5797644  0.00   -0.0033264   -0.0047662   -0.0064094
h    -3.8412724    1.3489660    1.3146457  0.00   -0.0000912   -0.0007032    0.0021255
h    -2.2294956    0.7781985   -0.9742414  0.00    0.0079094    0.0019170   -0.0029147
h    -3.0738295   -0.2798170    0.0165030  0.00    0.0004860   -0.0040451    0.0038731
o    -1.6089615    2.7491333    1.2807998  0.00   -0.0055398    0.0024892    0.0015348
o    -2.7935812    3.9761306   -0.3999611  0.00   -0.0169039    0.0053026    0.0240798
h    -2.2622968    3.8338219   -1.2633595  0.00    0.0082595   -0.0071439   -0.0223761
    13
 Energy =       0.0614290915
c    -3.6690717    1.6954873    0.2621433  0.00   -0.0061470    0.0052415    0.0029989
c    -2.6609728    2.8357866    0.3924155  0.00    0.0147505   -0.0034941   -0.0018089
c    -5.0013941    2.1764481   -0.3226118  0.00    0.0011780    0.0012505   -0.0008064
h    -4.8457644    2.5585695   -1.3571214  0.00    0.0007046    0.0014723   -0.0020160
h    -5.4296302    2.9987603    0.2966461  0.00   -0.0015021    0.0025170    0.0019606
h    -5.7260451    1.3349507   -0.3652917  0.00   -0.0008249   -0.0007347   -0.0003282
n    -3.1834893    0.5863190   -0.5905586  0.00   -0.0030661   -0.0042972   -0.0058862
h    -3.8460223    1.3384604    1.3079952  0.00   -0.0000938   -0.0006470    0.0019704
h    -2.2237525    0.7878895   -0.9753659  0.00    0.0071908    0.0017595   -0.0026649
h    -3.0780944   -0.2787841   -0.0033876  0.00    0.0004421   -0.0037502    0.0035804
o    -1.6268473    2.7486396    1.3097971  0.00   -0.0047568    0.0022021    0.0015962
o    -2.7803122    3.9731883   -0.3945448  0.00   -0.0153987    0.0049284    0.0216403
h    -2.2537505    3.8193211   -1.2572349  0.00    0.0075233   -0.0064481   -0.0202363
    13
 Energy =       0.0613665014
c    -3.6798057    1.6912771    0.2478647  0.00   -0.0041489    0.0033327    0.0003156
c    -2.6764648    2.8255772    0.4574785  0.00    0.0045530   -0.0035724   -0.0008772
c    -5.0012010    2.1977634   -0.3365085  0.00    0.0006496    0.0005855   -0.0004519
h    -4.8321640    2.6080628   -1.3572295  0.00    0.0002875    0.0007762   -0.0013504
h    -5.4310223    3.0028889    0.3009240  0.00   -0.0006106    0.0012826    0.0009567
h    -5.7298950    1.3621399   -0.4117167  0.00   -0.0006385   -0.0007392   -0.0001656
n    -3.1798401    0.6263489   -0.6487983  0.00   -0.0025483   -0.0017480   -0.0054744
h    -3.8771461    1.2821892    1.2715547  0.00   -0.0003303   -0.0008049    0.0024524
h    -2.2084570    0.8368229   -0.9920833  0.00    0.0042289    0.0013940   -0.0018170
h    -3.1045043   -0.2726768   -0.1094111  0.00    0.0002440   -0.0043247    0.0035231
o    -1.7168936    2.7269932    1.4595175  0.00    0.0035390   -0.0002625    0.0067581
o    -2.6963837    3.9512377   -0.3615401  0.00   -0.0104888    0.0074743    0.0069094
h    -2.1913692    3.7364120   -1.2171714  0.00    0.0052636   -0.0033937   -0.0107787
    13
 Energy =       0.0611433852
c    -3.6931462    1.6873505    0.2435937  0.00    0.0017106   -0.0015507   -0.0002732
c    -2.6894545    2.8081492    0.4982575  0.00   -0.0027092   -0.0012350    0.0036655
c    -5.0119641    2.2145186   -0.3230469  0.00   -0.0002803   -0.0003617    0.0001909
h    -4.8441910    2.6519443   -1.3305942  0.00   -0.0001713   -0.0003310    0.0003729
h    -5.4387679    2.9997897    0.3369465  0.00    0.0002651   -0.0003940   -0.0003757
h    -5.7421395    1.3839256   -0.4204948  0.00    0.0002778    0.0001912    0.0000982
n    -3.1959976    0.6562499   -0.6857978  0.00   -0.0065241    0.0046712    0.0012762
h    -3.8969126    1.2416344    1.2474086  0.00    0.0000968    0.0003755   -0.0005343
h    -2.2688729    0.9231461   -1.1053159  0.00    0.0056730    0.0005097   -0.0023138
h    -3.0248223   -0.2359214   -0.1582309  0.00    0.0001852   -0.0037726    0.0019040
o    -1.7725600    2.6854373    1.5295049  0.00   -0.0003899   -0.0001397   -0.0028144
o    -2.6128891    3.9126166   -0.3429503  0.00    0.0031597    0.0005398   -0.0054349
h    -2.1334293    3.6461955   -1.1863999  0.00   -0.0012933    0.0014974    0.0042385
    13
 Energy =       0.0611450533
c    -3.6894649    1.6864979    0.2434172  0.00    0.0015490   -0.0014045   -0.0002479
c    -2.6900664    2.8121553    0.4939245  0.00   -0.0024387   -0.0011330    0.0032961
c    -5.0139970    2.2081452   -0.3151608  0.00   -0.0002808   -0.0003197    0.0001780
h    -4.8535298    2.6491917   -1.3224262  0.00   -0.0001492   -0.0002821    0.0003075
h    -5.4416081    2.9894746    0.3490855  0.00    0.0002250   -0.0003436   -0.0003312
h    -5.7403309    1.3739703   -0.4111422  0.00    0.0002390    0.0001614    0.0000913
n    -3.1922491    0.6592831   -0.6904804  0.00   -0.0058571    0.0042030    0.0011313
h    -3.8852916    1.2382629    1.2477993  0.00    0.0000790    0.0003209   -0.0004519
h    -2.2658110    0.9283915   -1.1092061  0.00    0.0051101    0.0004596   -0.0020848
h    -3.0202904   -0.2346589   -0.1666775  0.00    0.0001692   -0.0034080    0.0017207
o    -1.7704666    2.6956945    1.5236963  0.00   -0.0003295   -0.0001267   -0.0025105
o    -2.6219287    3.9162053   -0.3483365  0.00    0.0028417    0.0005323   -0.0049069
h    -2.1401123    3.6524230   -1.1916127  0.00   -0.0011575    0.0013405    0.0038083
    13
 Energy =       0.0611467484
c    -3.6862114    1.6857344    0.2432040  0.00    0.0014012   -0.0012707   -0.0002245
c    -2.6907044    2.8156886    0.4901956  0.00   -0.0021951   -0.0010370    0.0029647
c    -5.0156982    2.2024564   -0.3083067  0.00   -0.0002746   -0.0002832    0.0001651
h    -4.8616382    2.6466888   -1.3152604  0.00   -0.0001305   -0.0002417    0.0002551
h    -5.4440309    2.9802746    0.3596790  0.00    0.0001919   -0.0003007   -0.0002926
h    -5.7386026    1.3651297   -0.4030867  0.00    0.0002066    0.0001370    0.0000843
n    -3.1888723    0.6620281   -0.6946903  0.00   -0.0052600    0.0037817    0.0010041
h    -3.8750638    1.2352526    1.2480057  0.00    0.0000649    0.0002754   -0.0003844
h    -2.2629043    0.9330178   -1.1124354  0.00    0.0046024    0.0004146   -0.0018784
h    -3.0164841   -0.2335668   -0.1743182  0.00    0.0001543   -0.0030775    0.0015545
o    -1.7687665    2.7046944    1.5186627  0.00   -0.0002802   -0.0001146   -0.0022423
o    -2.6300882    3.9194413   -0.3528255  0.00    0.0025551    0.0005163   -0.0044275
h    -2.1460817    3.6581964   -1.1959433  0.00   -0.0010361    0.0012003    0.0034216
    13
 Energy =       0.0611483149
c    -3.6833459    1.6850526    0.2429712  0.00    0.0012665   -0.0011485   -0.0002029
c    -2.6913341    2.8187876    0.4869851  0.00   -0.0019757   -0.0009471    0.0026671
c    -5.0171240    2.1974084   -0.3023521  0.00   -0.0002638   -0.0002514    0.0001525
h    -4.8686716    2.6444421   -1.3089815  0.00   -0.0001146   -0.0002080    0.0002130
h    -5.4460932    2.9721101    0.3689190  0.00    0.0001644   -0.0002640   -0.0002590
h    -5.7369849    1.3573203   -0.3961495  0.00    0.0001795    0.0001168    0.0000776
n    -3.1858589    0.6644946   -0.6984601  0.00   -0.0047252    0.0034027    0.0008924
h    -3.8660846    1.2325741    1.2480797  0.00    0.0000537    0.0002375   -0.0003288
h    -2.2602028    0.9370818   -1.1151300  0.00    0.0041448    0.0003741   -0.0016922
h    -3.0132934   -0.2326236   -0.1811948  0.00    0.0001405   -0.0027781    0.0014040
o    -1.7673755    2.7125605    1.5143021  0.00   -0.0002397   -0.0001034   -0.0020051
o    -2.6374036    3.9223351   -0.3565694  0.00    0.0022971    0.0004943   -0.0039928
h    -2.1513743    3.6634929   -1.1995392  0.00   -0.0009275    0.0010753    0.0030742
    13
 Energy =       0.0611496896
c    -3.6808258    1.6844444    0.2427311  0.00    0.0011439   -0.0010372   -0.0001832
c    -2.6919358    2.8214991    0.4842161  0.00   -0.0017782   -0.0008634    0.0023998
c    -5.0183226    2.1929423   -0.2971752  0.00   -0.0002502   -0.0002235    0.0001403
h    -4.8747759    2.6424394   -1.3034801  0.00   -0.0001010   -0.0001799    0.0001790
h    -5.4478497    2.9648828    0.3769827  0.00    0.0001416   -0.0002325   -0.0002297
h    -5.7354912    1.3504381   -0.3901680  0.00    0.0001566    0.0001001    0.0000712
n    -3.1831831    0.6667006   -0.7018265  0.00   -0.0042459    0.0030617    0.0007941
h    -3.8582076    1.2301952    1.2480618  0.00    0.0000447    0.0002057   -0.0002828
h    -2.2577255    0.9406459   -1.1173907  0.00    0.0037324    0.0003376   -0.0015243
h    -3.0106149   -0.2318084   -0.1873617  0.00    0.0001278   -0.0025071    0.0012675
o    -1.7662274    2.7194264    1.5105195  0.00   -0.0002063   -0.0000933   -0.0017947
o    -2.6439379    3.9249112   -0.3596991  0.00    0.0020649    0.0004683   -0.0035993
h    -2.1560492    3.6683196   -1.2025294  0.00   -0.0008304    0.0009636    0.0027622
    13
 Energy =       0.0611508593
c    -3.6786096    1.6839021    0.2424927  0.00    0.0010326   -0.0009362   -0.0001653
c    -2.6924999    2.8238704    0.4818218  0.00   -0.0016004   -0.0007858    0.0021595
c    -5.0193344    2.1889952   -0.2926680  0.00   -0.0002350   -0.0001991    0.0001286
h    -4.8800821    2.6406602   -1.2986568  0.00   -0.0000893   -0.0001563    0.0001513
h    -5.4493495    2.9584910    0.3840281  0.00    0.0001225   -0.0002052   -0.0002040
h    -5.7341242    1.3443770   -0.3850000  0.00    0.0001371    0.0000862    0.0000651
n    -3.1808127    0.6686681   -0.7048274  0.00   -0.0038162    0.0027550    0.0007075
h    -3.8512952    1.2280843    1.2479820  0.00    0.0000375    0.0001789   -0.0002444
h    -2.2554728    0.9437709   -1.1192976  0.00    0.0033608    0.0003047   -0.0013730
h    -3.0083586   -0.2311025   -0.1928791  0.00    0.0001161   -0.0022619    0.0011440
o    -1.7652716    2.7254205    1.5072311  0.00   -0.0001784   -0.0000841   -0.0016077
o    -2.6497638    3.9271996   -0.3623239  0.00    0.0018562    0.0004400   -0.0032435
h    -2.1601726    3.6726996   -1.2050224  0.00   -0.0007437    0.0008638    0.0024819
    13
 Energy =       0.0611518352
c    -3.6766592    1.6834185    0.2422615  0.00    0.0009317   -0.0008445   -0.0001490
c    -2.6930220    2.8259457    0.4797456  0.00   -0.0014403   -0.0007142    0.0019435
c    -5.0201922    2.1855067   -0.2887367  0.00   -0.0002190   -0.0001777    0.0001176
h    -4.8847035    2.6390814   -1.2944233  0.00   -0.0000791   -0.0001363    0.0001286
h    -5.4506343    2.9528381    0.3901931  0.00    0.0001064   -0.0001816   -0.0001815
h    -5.7328805    1.3390367   -0.3805237  0.00    0.0001205    0.0000746    0.0000594
n    -3.1787144    0.6704200   -0.7074998  0.00   -0.0034307    0.0024791    0.0006310
h    -3.8452231    1.2262117    1.2478625  0.00    0.0000317    0.0001562   -0.0002121
h    -2.2534353    0.9465130   -1.1209141  0.00    0.0030261    0.0002749   -0.0012367
h    -3.0064494   -0.2304895   -0.1978079  0.00    0.0001054   -0.0020402    0.0010323
o    -1.7644691    2.7306596    1.5043648  0.00   -0.0001550   -0.0000757   -0.0014413
o    -2.6549545    3.9292310   -0.3645337  0.00    0.0016685    0.0004107   -0.0029221
h    -2.1638093    3.6766635   -1.2071078  0.00   -0.0006663    0.0007747    0.0022303
    13
 Energy =       0.0611526394
c    -3.6749410    1.6829871    0.2420413  0.00    0.0008403   -0.0007615   -0.0001342
c    -2.6935014    2.8277645    0.4779397  0.00   -0.0012962   -0.0006484    0.0017492
c    -5.0209227    2.1824215   -0.2853008  0.00   -0.0002028   -0.0001587    0.0001073
h    -4.8887377    2.6376805   -1.2907027  0.00   -0.0000702   -0.0001192    0.0001099
h    -5.4517393    2.9478358    0.3955971  0.00    0.0000928   -0.0001611   -0.0001618
h    -5.7317536    1.3343269   -0.3766365  0.00    0.0001063    0.0000648    0.0000540
n    -3.1768562    0.6719786   -0.7098783  0.00   -0.0030847    0.0022309    0.0005633
h    -3.8398822    1.2245500    1.2477190  0.00    0.0000269    0.0001369   -0.0001849
h    -2.2515986    0.9489218   -1.1222908  0.00    0.0027246    0.0002481   -0.0011138
h    -3.0048259   -0.2299557   -0.2022071  0.00    0.0000955   -0.0018398    0.0009312
o    -1.7637903    2.7352464    1.5018597  0.00   -0.0001353   -0.0000682   -0.0012927
o    -2.6595792    3.9310346   -0.3664017  0.00    0.0014998    0.0003813   -0.0026320
h    -2.1670187    3.6802445   -1.2088586  0.00   -0.0005970    0.0006949    0.0020044
    13
 Energy =       0.0611532965
c    -3.6734252    1.6826020    0.2418340  0.00    0.0007577   -0.0006865   -0.0001209
c    -2.6939392    2.8293613    0.4763646  0.00   -0.0011666   -0.0005880    0.0015744
c    -5.0215474    2.1796901   -0.2822917  0.00   -0.0001870   -0.0001419    0.0000977
h    -4.8922673    2.6364364   -1.2874280  0.00   -0.0000625   -0.0001047    0.0000944
h    -5.4526933    2.9434051    0.4003424  0.00    0.0000812   -0.0001431   -0.0001443
h    -5.7307352    1.3301676   -0.3732519  0.00    0.0000939    0.0000565    0.0000491
n    -3.1752095    0.6733649   -0.7119951  0.00   -0.0027740    0.0020076    0.0005033
h    -3.8351773    1.2230748    1.2475631  0.00    0.0000230    0.0001203   -0.0001617
h    -2.2499462    0.9510411   -1.1234682  0.00    0.0024531    0.0002238   -0.0010030
h    -3.0034383   -0.2294894   -0.2061319  0.00    0.0000865   -0.0016587    0.0008398
o    -1.7632123    2.7392701    1.4996644  0.00   -0.0001185   -0.0000614   -0.0011601
o    -2.6637013    3.9326367   -0.3679872  0.00    0.0013483    0.0003524   -0.0023702
h    -2.1698543    3.6834757   -1.2103341  0.00   -0.0005352    0.0006236    0.0018015
    13
 Energy =       0.0611538306
c    -3.6720861    1.6822582    0.2416409  0.00    0.0006830   -0.0006187   -0.0001088
c    -2.6943376    2.8307658    0.4749868  0.00   -0.0010499   -0.0005327    0.0014171
c    -5.0220841    2.1772691   -0.2796512  0.00   -0.0001718   -0.0001270    0.0000888
h    -4.8953624    2.6353306   -1.2845416  0.00   -0.0000557   -0.0000921    0.0000815
h    -5.4535203    2.9394767    0.4045166  0.00    0.0000713   -0.0001273   -0.0001288
h    -5.7298164    1.3264891   -0.3702974  0.00    0.0000832    0.0000494    0.0000446
n    -3.1737485    0.6745981   -0.7138791  0.00   -0.0024949    0.0018067    0.0004501
h    -3.8310263    1.2217645    1.2474024  0.00    0.0000197    0.0001060   -0.0001419
h    -2.2484615    0.9529085   -1.1244791  0.00    0.0022085    0.0002019   -0.0009032
h    -3.0022465   -0.2290810   -0.2096328  0.00    0.0000783   -0.0014951    0.0007572
o    -1.7627170    2.7428067    1.4977359  0.00   -0.0001041   -0.0000553   -0.0010415
o    -2.6673774    3.9340611   -0.3693385  0.00    0.0012121    0.0003246   -0.0021342
h    -2.1723627    3.6863891   -1.2115824  0.00   -0.0004798    0.0005598    0.0016193
    13
 Energy =       0.0611542630
c    -3.6709014    1.6819509    0.2414621  0.00    0.0006155   -0.0005575   -0.0000980
c    -2.6946992    2.8320035    0.4737785  0.00   -0.0009448   -0.0004823    0.0012755
c    -5.0225469    2.1751206   -0.2773295  0.00   -0.0001573   -0.0001138    0.0000806
h    -4.8980822    2.6343464   -1.2819937  0.00   -0.0000497   -0.0000813    0.0000706
h    -5.4542398    2.9359896    0.4081947  0.00    0.0000627   -0.0001135   -0.0001152
h    -5.7289886    1.3232312   -0.3677119  0.00    0.0000739    0.0000433    0.0000404
n    -3.1724507    0.6756954   -0.7155566  0.00   -0.0022441    0.0016259    0.0004028
h    -3.8273582    1.2205997    1.2472426  0.00    0.0000170    0.0000936   -0.0001248
h    -2.2471283    0.9545567   -1.1253500  0.00    0.0019883    0.0001821   -0.0008133
h    -3.0012182   -0.2287224   -0.2127561  0.00    0.0000708   -0.0013475    0.0006826
o    -1.7622904    2.7459217    1.4960377  0.00   -0.0000917   -0.0000497   -0.0009353
o    -2.6706582    3.9353286   -0.3704947  0.00    0.0010898    0.0002980   -0.0019215
h    -2.1745847    3.6890145   -1.2126426  0.00   -0.0004304    0.0005026    0.0014557
    13
 Energy =       0.0611546124
c    -3.6698518    1.6816763    0.2412975  0.00    0.0005546   -0.0005022   -0.0000882
c    -2.6950268    2.8330964    0.4727163  0.00   -0.0008503   -0.0004364    0.0011481
c    -5.0229475    2.1732115   -0.2752845  0.00   -0.0001436   -0.0001020    0.0000731
h    -4.9004773    2.6334695   -1.2797415  0.00   -0.0000444   -0.0000719    0.0000614
h    -5.4548681    2.9328908    0.4114410  0.00    0.0000553   -0.0001012   -0.0001030
h    -5.7282432    1.3203415   -0.3654443  0.00    0.0000657    0.0000381    0.0000366
n    -3.1712964    0.6766722   -0.7170506  0.00   -0.0020187    0.0014633    0.0003606
h    -3.8241121    1.2195635    1.2470872  0.00    0.0000148    0.0000828   -0.0001101
h    -2.2459314    0.9560136   -1.1261027  0.00    0.0017899    0.0001642   -0.0007324
h    -3.0003270   -0.2284067   -0.2155429  0.00    0.0000640   -0.0012142    0.0006153
o    -1.7619213    2.7486705    1.4945392  0.00   -0.0000810   -0.0000448   -0.0008402
o    -2.6735881    3.9364577   -0.3714878  0.00    0.0009798    0.0002729   -0.0017299
h    -2.1765558    3.6913797   -1.2135464  0.00   -0.0003861    0.0004513    0.0013087
    13
 Energy =       0.0611548942
c    -3.6689206    1.6814306    0.2411467  0.00    0.0004996   -0.0004524   -0.0000794
c    -2.6953233    2.8340631    0.4717805  0.00   -0.0007652   -0.0003945    0.0010334
c    -5.0232954    2.1715132   -0.2734800  0.00   -0.0001309   -0.0000914    0.0000662
h    -4.9025903    2.6326872   -1.2777478  0.00   -0.0000397   -0.0000637    0.0000536
h    -5.4554184    2.9301341    0.4143106  0.00    0.0000489   -0.0000904   -0.0000922
h    -5.7275725    1.3177750   -0.3634510  0.00    0.0000585    0.0000336    0.0000331
n    -3.1702686    0.6775424   -0.7183820  0.00   -0.0018161    0.0013169    0.0003231
h    -3.8212354    1.2186410    1.2469385  0.00    0.0000128    0.0000734   -0.0000974
h    -2.2448570    0.9573033   -1.1267553  0.00    0.0016114    0.0001480   -0.0006594
h    -2.9995515   -0.2281282   -0.2180305  0.00    0.0000579   -0.0010940    0.0005545
o    -1.7616006    2.7511006    1.4932143  0.00   -0.0000717   -0.0000403   -0.0007550
o    -2.6762066    3.9374644   -0.3723438  0.00    0.0008810    0.0002494   -0.0015573
h    -2.1783065    3.6935098   -1.2143196  0.00   -0.0003465    0.0004054    0.0011766
    13
 Energy =       0.0611551213
c    -3.6680935    1.6812107    0.2410088  0.00    0.0004500   -0.0004074   -0.0000714
c    -2.6955914    2.8349195    0.4709543  0.00   -0.0006887   -0.0003566    0.0009302
c    -5.0235985    2.1700007   -0.2718851  0.00   -0.0001191   -0.0000820    0.0000599
h    -4.9044579    2.6319885   -1.2759809  0.00   -0.0000355   -0.0000566    0.0000469
h    -5.4559019    2.9276791    0.4168508  0.00    0.0000433   -0.0000808   -0.0000826
h    -5.7269692    1.3154925   -0.3616954  0.00    0.0000521    0.0000297    0.0000299
n    -3.1693522    0.6783180   -0.7195691  0.00   -0.0016339    0.0011851    0.0002896
h    -3.8186825    1.2178191    1.2467980  0.00    0.0000112    0.0000652   -0.0000863
h    -2.2438925    0.9584468   -1.1273225  0.00    0.0014505    0.0001335   -0.0005937