24
UFF-Energy = 0.055681
C     1.7997654    2.5774633   -0.4597950 
C     0.4990043    2.8275587   -0.7349635 
C    -0.3501531    1.8031384   -0.9790948 
C     2.2595499    1.3002262   -0.4406711 
C     1.4143599    0.2643572   -0.7010659 
C     0.1018077    0.5231196   -0.9603312 
O     0.0316648    4.1379437   -0.7555918 
H     0.1308296    4.5384438   -1.6816791 
H    -0.5953776   -0.2898128   -1.1487083 
H     3.3025888    1.1097034   -0.1998923 
H     2.4638524    3.4075623   -0.2449822 
H    -1.3945169    2.0163448   -1.1815175 
C     1.9177393   -1.1620334   -0.6571709 
C     1.8955475   -1.7236462    0.7768970 
H     2.9524479   -1.2177291   -1.0633282 
H     1.2924765   -1.7991506   -1.3232294 
C     2.0652520   -3.2331148    0.7665755 
O     3.2641893   -3.8063173    0.3565885 
O     1.0032084   -4.0535001    1.1204831 
H     1.2978753   -5.0196502    1.0522642 
N     2.9321201   -1.0481895    1.5809941 
H     0.8914049   -1.5331461    1.2258133 
H     2.8038205   -1.3137031    2.5866642 
H     3.8800680   -1.4037790    1.3043594 
