24
UFF-Energy = 0.0763119
C     1.5949449    2.7160952    0.1615527 
C     0.2492803    2.7417815    0.3037969 
C    -0.4800130    1.6356785   -0.0033033 
C     2.2171381    1.5968078   -0.2834288 
C     1.4919552    0.4850440   -0.5921904 
C     0.1373975    0.5127961   -0.4483162 
O    -0.3583522    3.9136115    0.7673914 
H    -1.3685510    3.8580685    0.8414777 
H    -0.4608419   -0.3628190   -0.6903807 
H     3.2991867    1.5983043   -0.3865961 
H     2.1725839    3.6009814    0.4080141 
H    -1.5592186    1.6471148    0.1066273 
C     2.1805522   -0.7747788   -1.0810275 
C     2.2424162   -1.8824925    0.0046659 
H     3.2115075   -0.5500083   -1.4361497 
H     1.6173931   -1.1386718   -1.9694238 
C     2.6969375   -3.2077533   -0.6226169 
O     2.2609943   -3.5362280   -1.9055267 
O     3.4677686   -4.1581117    0.0617289 
H     3.7129168   -3.9087311    1.0081791 
N     3.1280208   -1.4686298    1.1068422 
H     1.2167634   -2.0425047    0.4088597 
H     2.8523327   -0.5193753    1.4444835 
H     2.9416420   -2.0874106    1.9302867 
