24
UFF-Energy = 0.0766382
C     2.3300799    2.6240585    0.2004241 
C     1.3002157    3.2580829   -0.4063656 
C     0.3287147    2.5408741   -1.0160880 
C     2.3952408    1.2682085    0.1946374 
C     1.4180913    0.5391619   -0.4138223 
C     0.3867334    1.1848527   -1.0258299 
O     1.2373111    4.6480899   -0.3989114 
H     1.7345753    5.0330493   -1.1944917 
H    -0.3930212    0.6209567   -1.5314458 
H     3.2323501    0.7730142    0.6803158 
H     3.0981605    3.2120896    0.6907005 
H    -0.4933691    3.0605260   -1.4967784 
C     1.4981024   -0.9709456   -0.4410597 
C     2.2679684   -1.4744652   -1.6789476 
H     0.4768252   -1.4125685   -0.4277798 
H     1.9920347   -1.3363823    0.4883796 
C     2.6368291   -2.9435251   -1.5411289 
O     3.9017884   -3.3747319   -1.9102482 
O     1.7153607   -3.8705346   -1.0714713 
H     1.0609184   -4.0881473   -1.8075852 
N     1.4738460   -1.2071646   -2.8922120 
H     3.2394038   -0.9283681   -1.7448410 
H     2.0403576   -1.4644080   -3.7366910 
H     0.6185566   -1.8114561   -2.9029047 
