24
UFF-Energy = 0.0293241
C     1.7337988    2.8668121   -0.0615856 
C     1.0815822    3.2779817   -1.1731978 
C     0.5040858    2.3708863   -1.9939948 
C     1.7982515    1.5439297    0.2410524 
C     1.2061241    0.6261931   -0.5728613 
C     0.5662251    1.0471513   -1.6990879 
O     1.0154315    4.6332555   -1.4782007 
H     0.2083714    5.0622730   -1.0390642 
H     0.1037266    0.3289039   -2.3720892 
H     2.3403359    1.2157159    1.1281554 
H     2.2112682    3.6070931    0.5722871 
H    -0.0012921    2.7129617   -2.8913112 
C     1.2935154   -0.8501072   -0.2519185 
C     2.5643572   -1.4959524   -0.8365512 
H     0.4011325   -1.3783933   -0.6558868 
H     1.2722238   -1.0156773    0.8493088 
C     3.8373370   -0.9887248   -0.1747472 
O     5.0117321   -0.9076306   -0.9096698 
O     3.8563214   -0.6394663    1.1728740 
H     4.8149251   -0.4400863    1.4378097 
N     2.4337776   -2.9583303   -0.7211854 
H     2.6500210   -1.2201937   -1.9141989 
H     3.2584804   -3.4075683   -1.1884405 
H     2.4983123   -3.2263269    0.2911114 
