24
UFF-Energy = 0.0757379
C     1.6184437    2.5060242    0.9208495 
C     0.2766266    2.6524371    0.7578377 
C    -0.4098183    1.7489872    0.0223741 
C     2.2652653    1.4590422    0.3483746 
C     1.5751230    0.5478058   -0.3928141 
C     0.2313304    0.7000615   -0.5525558 
O    -0.4198100    3.7200758    1.3327379 
H     0.1609796    4.3508746    1.8745954 
H    -0.3391528   -0.0159682   -1.1396512 
H     3.3381015    1.3574559    0.4893132 
H     2.1766301    3.2259609    1.5096809 
H    -1.4802218    1.8774130   -0.0985832 
C     2.2851973   -0.6284806   -1.0301054 
C     2.0115009   -1.9548864   -0.2733677 
H     3.3817004   -0.4487678   -1.0908060 
H     1.9350811   -0.7159177   -2.0852677 
C     2.3651528   -3.1589310   -1.1455316 
O     1.3417977   -3.9444678   -1.6606284 
O     3.6819154   -3.4462076   -1.5081065 
H     4.3375709   -2.8067263   -1.0848935 
N     2.6809864   -1.9781321    1.0495185 
H     0.9148750   -2.0530062   -0.0991009 
H     3.4086558   -2.7293360    1.1135962 
H     3.1472602   -1.0733224    1.2897562 
