24
UFF-Energy = 0.0776682
C     1.5816227    2.5776844    0.4327359 
C     0.2505481    2.6888278    0.6476490 
C    -0.5798014    1.6839513    0.2856799 
C     2.0863191    1.4644288   -0.1570768 
C     1.2555986    0.4539201   -0.5367535 
C    -0.0820646    0.5664301   -0.3030074 
O    -0.2641006    3.8317595    1.2515913 
H    -0.4904061    4.5339090    0.5558606 
H    -0.7604871   -0.2357736   -0.5817052 
H     3.1589589    1.3802607   -0.3120003 
H     2.2377828    3.3823766    0.7454793 
H    -1.6433846    1.7795008    0.4777351 
C     1.8173303   -0.7996630   -1.1712269 
C     2.2545579   -1.8252921   -0.1058767 
H     2.6835069   -0.5431547   -1.8226870 
H     1.0540258   -1.2491941   -1.8465898 
C     2.5053448   -3.1940466   -0.7413774 
O     3.7703770   -3.5166225   -1.2168224 
O     1.4696460   -4.1116928   -0.9176199 
H     0.5852592   -3.7675482   -0.5752482 
N     3.4365484   -1.3072391    0.6089811 
H     1.4265777   -1.9602108    0.6279334 
H     3.7052599   -1.9808534    1.3662855 
H     4.2563244   -1.2720901   -0.0447744 
