24
UFF-Energy = 0.0849475
C     1.7721702    2.6675340    0.0866472 
C     0.5426358    3.0317636   -0.3440776 
C    -0.3019091    2.1015997   -0.8453426 
C     2.1591486    1.3680570    0.0253117 
C     1.3132692    0.4240751   -0.4753542 
C     0.0776705    0.7998940   -0.9108459 
O     0.1488646    4.3645844   -0.2789419 
H    -0.2909845    4.5660823    0.6122904 
H    -0.6141203    0.0662018   -1.3162845 
H     3.1501350    1.0905447    0.3762825 
H     2.4429571    3.4260036    0.4754760 
H    -1.2812543    2.4092421   -1.1968099 
C     1.7490420   -1.0241779   -0.5482575 
C     2.7967485   -1.2712191   -1.6633755 
H     0.8801555   -1.7028820   -0.7027985 
H     2.1774548   -1.3125817    0.4393438 
C     3.4471360   -2.6357480   -1.4805005 
O     4.8280789   -2.7450093   -1.4169979 
O     2.6704919   -3.7790957   -1.3392501 
H     2.3370142   -4.0683943   -2.2459972 
N     2.2112749   -1.0863453   -3.0139897 
H     3.6316777   -0.5420801   -1.5458495 
H     2.2384415   -1.9667127   -3.5806208 
H     1.2130263   -0.7754192   -2.9849527 
