24
UFF-Energy = 5.34018
C     1.9585775    3.6440739    0.4388770 
C     1.0600621    4.1093184   -0.5966181 
C     0.4834552    3.3373618   -1.4800067 
C     2.0178380    2.1825247    0.3910647 
C     1.2178910    1.0794547   -0.5068340 
C     0.8439576    2.2682725   -0.8516390 
O     0.8383198    5.5244943   -0.7377652 
H     0.2112124    6.1623025   -1.3817905 
H    -0.2196927    2.2234522   -1.5916316 
H     2.7344137    1.3492896    1.0235298 
H     2.5107674    4.2705402    1.0915832 
H    -0.1522528    3.9497688   -2.6374481 
C     1.7048540   -0.5408969   -0.0179989 
C     1.5604624   -2.3732900    0.7356931 
H     1.1929279   -0.6650613   -1.1449269 
H     1.2937820   -0.1778031    0.9413993 
C     1.6426140   -4.2333192    0.4089499 
O     1.4411758   -4.3370803   -0.9584536 
O     1.8537566   -5.6243475    1.2013355 
H     1.9932502   -5.4544509    2.1888338 
N     2.3303859   -2.4094161    1.9689654 
H     0.4734565   -2.2772507    1.0535340 
H     2.1308804   -1.6211972    2.6680218 
H     3.3375461   -2.3297216    1.7026803 
