24
UFF-Energy = 0.063738
C     1.1690001    2.0556728   -1.5021897 
C    -0.1830671    2.0028788   -1.4880482 
C    -0.8124101    0.8995227   -1.0227565 
C     1.8978133    0.9990815   -1.0604578 
C     1.2713497   -0.1208560   -0.6025950 
C    -0.0906981   -0.1612910   -0.5806955 
O    -0.9263245    3.0874091   -1.9434790 
H    -1.0988262    3.0116650   -2.9397782 
H    -0.6104206   -1.0387487   -0.2023018 
H     2.9832181    1.0575340   -1.0722294 
H     1.6598826    2.9529701   -1.8633048 
H    -1.8967869    0.8747622   -1.0005146 
C     2.0847627   -1.2918603   -0.0931530 
C     2.5377422   -1.0906877    1.3663964 
H     2.9750326   -1.4289762   -0.7446316 
H     1.5054612   -2.2410935   -0.1660918 
C     1.3620418   -1.0917189    2.3389230 
O     1.4359986   -0.3359754    3.5034207 
O     0.2362207   -1.8787355    2.1138472 
H    -0.3945853   -1.7752100    2.8981995 
N     3.5142426   -2.1430621    1.6990064 
H     3.0230463   -0.0911485    1.4649789 
H     4.4105156   -1.9507899    1.1936036 
H     3.7440005   -2.0915735    2.7220133 
