24
UFF-Energy = 0.0420117
C     0.6283346    2.4801361   -0.0756094 
C    -0.4740076    2.6480606   -0.8540926 
C    -0.8021958    1.7002042   -1.7611091 
C     1.3949518    1.3680892   -0.2089297 
C     1.0668426    0.4151534   -1.1245841 
C    -0.0395575    0.5863131   -1.8987810 
O    -1.2855942    3.7815971   -0.7417498 
H    -0.9733504    4.4457942   -0.0417470 
H    -0.3217928   -0.1653666   -2.6317956 
H     2.2704666    1.2465364    0.4241138 
H     0.8982170    3.2342211    0.6558751 
H    -1.6846556    1.8450585   -2.3746859 
C     1.9077097   -0.8338370   -1.2675919 
C     1.2582391   -2.0610899   -0.5818176 
H     2.9311024   -0.6746946   -0.8571874 
H     2.0505394   -1.0437901   -2.3523321 
C     2.0005652   -3.3343929   -0.9436610 
O     3.3410062   -3.4906803   -0.6053928 
O     1.3650496   -4.3336326   -1.6681426 
H     2.0164225   -5.0967013   -1.7984436 
N     1.2082119   -1.8804422    0.8792474 
H     0.2212313   -2.1992763   -0.9656996 
H     2.1712360   -1.6937480    1.2491202 
H     0.6034320   -1.0607717    1.1185590 
