24
UFF-Energy = 0.0390749
C     0.4520310    2.3479071   -0.1565785 
C    -0.6781605    1.7425261    0.2941985 
C    -0.8379937    0.4143028    0.1146248 
C     1.4155046    1.6190818   -0.7946196 
C     1.2716079    0.2705354   -0.9430669 
C     0.1242909   -0.3180146   -0.4989737 
O    -1.6891065    2.4606195    0.9406029 
H    -1.4921155    3.4441951    1.0898269 
H    -0.0352774   -1.3864825   -0.6265306 
H     2.3410336    2.1248365   -1.1256698 
H     0.5764727    3.4164389    0.0138408 
H    -1.7453701   -0.0608631    0.4742805 
C     2.3040225   -0.5955964   -1.6580342 
C     3.8015560   -0.1747434   -1.5712990 
H     2.0130109   -0.6630548   -2.7303402 
H     2.2339934   -1.6342077   -1.2553308 
C     4.2619388    0.1943684   -0.1553129 
O     4.5177818   -0.8079662    0.7851984 
O     4.3000270    1.5567403    0.2221100 
H     4.0154453    2.2348398   -0.5033549 
N     4.6384637   -1.2402653   -2.1569459 
H     3.9728932    0.7482236   -2.1720027 
H     4.5560853   -2.1297344   -1.6060582 
H     4.3506092   -1.4384189   -3.1448383 
