24
UFF-Energy = 0.0774405
C     1.5166745    2.7837672    0.1134400 
C     0.4063658    3.0711011   -0.6044820 
C    -0.2590237    2.0836248   -1.2463766 
C     1.9598570    1.5036350    0.2013710 
C     1.2857510    0.5012936   -0.4291303 
C     0.1777455    0.8011150   -1.1622067 
O    -0.0447245    4.3842785   -0.6924239 
H    -0.6822281    4.5961019    0.0671890 
H    -0.3562948    0.0171944   -1.6928696 
H     2.8577875    1.2876888    0.7746644 
H     2.0494741    3.5883295    0.6084484 
H    -1.1371745    2.3294954   -1.8339996 
C     1.7897927   -0.9234817   -0.3534927 
C     2.7613312   -1.2368959   -1.5118555 
H     0.9286859   -1.6274630   -0.3687790 
H     2.2998265   -1.0836313    0.6245424 
C     3.5757724   -2.5034984   -1.2541353 
O     4.9618282   -2.4243406   -1.2580731 
O     2.9750330   -3.7415866   -1.0261041 
H     1.9690152   -3.6813124   -1.0271956 
N     2.0121257   -1.2938714   -2.7813825 
H     3.5141774   -0.4137359   -1.5707936 
H     2.6867925   -1.4000563   -3.5775238 
H     1.3914744   -2.1371547   -2.8001166 
