24
UFF-Energy = 0.0819884
C     0.2375758    2.4840571   -0.2185277 
C    -0.9239225    2.0538611    0.3255592 
C    -1.1190208    0.7340280    0.5488696 
C     1.2071960    1.5934840   -0.5479628 
C     1.0189433    0.2625132   -0.3273170 
C    -0.1534450   -0.1624025    0.2220789 
O    -1.9162584    2.9684471    0.6627538 
H    -2.5617794    3.0961475   -0.1092172 
H    -0.3224480   -1.2202792    0.4023812 
H     2.1307004    1.9544921   -0.9959392 
H     0.3832361    3.5452461   -0.3904883 
H    -2.0524797    0.4042717    0.9925913 
C     2.0873677   -0.7387519   -0.7152629 
C     1.7922017   -1.4006960   -2.0852223 
H     2.1551212   -1.5186712    0.0744888 
H     3.0870939   -0.2461462   -0.7551930 
C     1.7934651   -0.3936765   -3.2275881 
O     2.6820474    0.6746919   -3.2456397 
O     0.9467441   -0.5761894   -4.3113890 
H     1.3385115   -1.3020779   -4.8924265 
N     2.7581590   -2.4852703   -2.3606430 
H     0.7584122   -1.8177181   -2.0567181 
H     3.3735276   -2.6980339   -1.5402637 
H     2.2458796   -3.3684486   -2.5930006 
