24
UFF-Energy = 0.0762153
C     2.0669904    2.8719026   -0.1325788 
C     1.0107427    3.3104506   -0.8689567 
C     0.1434880    2.4133918   -1.3930236 
C     2.2481767    1.5452213    0.0777362 
C     1.3736884    0.6403308   -0.4447751 
C     0.3200429    1.0848697   -1.1857146 
O     0.7928926    4.6736402   -1.1003435 
H     1.4893206    5.2853745   -0.6889356 
H    -0.3859964    0.3825599   -1.6235992 
H     3.0987144    1.2138694    0.6674692 
H     2.7695457    3.5817065    0.2900034 
H    -0.6948381    2.7671115   -1.9852546 
C     1.5851834   -0.8460067   -0.2263461 
C     2.5245725   -1.4822815   -1.2734201 
H     0.6071422   -1.3781416   -0.2426758 
H     2.0037249   -1.0188899    0.7900253 
C     1.9310348   -1.3900376   -2.6756530 
O     1.0884641   -2.4050336   -3.1217797 
O     2.1654954   -0.2949775   -3.5159735 
H     2.7393932    0.4217443   -3.0894508 
N     3.8641765   -0.8827230   -1.2050758 
H     2.6201996   -2.5621057   -1.0157288 
H     4.2712057   -1.0878761   -0.2632452 
H     4.4823836   -1.3674810   -1.8976898 
