24
UFF-Energy = 0.0607652
C     0.7806009    2.4888259   -0.0542299 
C    -0.3299954    2.2430071    0.6774426 
C    -0.7562581    0.9624257    0.8415654 
C     1.4730088    1.4669137   -0.6175115 
C     1.0570984    0.1821506   -0.4468275 
C    -0.0681893   -0.0636886    0.2791000 
O    -1.0134928    3.3217479    1.2487905 
H    -1.8493083    3.0637368    1.7611680 
H    -0.4251686   -1.0816429    0.4102276 
H     2.3543927    1.6869699   -1.2158633 
H     1.1051062    3.5149980   -0.1900302 
H    -1.6499687    0.7592312    1.4202557 
C     1.8120398   -0.9567080   -1.0974672 
C     1.2320891   -1.3020680   -2.4892060 
H     1.7681382   -1.8529786   -0.4391278 
H     2.8909300   -0.6978101   -1.1836775 
C     1.3297910   -0.1382495   -3.4745508 
O     0.1618620    0.4663330   -3.9220146 
O     2.5547240    0.3742350   -3.9033423 
H     3.3262759   -0.1590447   -3.5390952 
N     1.8789775   -2.5195781   -3.0111311 
H     0.1360445   -1.4934802   -2.3918479 
H     2.9222981   -2.4357882   -2.9727611 
H     1.6132369   -3.3430129   -2.4210125 
