24
UFF-Energy = 0.0686125
C     1.6131731    2.4714110    0.7315753 
C     0.5537822    2.9288835    0.0263713 
C    -0.0375764    2.1366501   -0.8963811 
C     2.0814454    1.2155646    0.5218057 
C     1.4916805    0.4080475   -0.4058628 
C     0.4230195    0.8779273   -1.1103848 
O     0.0746864    4.2164302    0.2473539 
H    -0.6169989    4.2203817    0.9886782 
H    -0.0656481    0.2542759   -1.8551338 
H     2.9299084    0.8646599    1.1027002 
H     2.0839062    3.1203337    1.4615038 
H    -0.8784328    2.5195801   -1.4652227 
C     2.0087811   -0.9998236   -0.6435829 
C     2.9171199   -1.1324479   -1.8944139 
H     1.1411158   -1.6901411   -0.7503965 
H     2.5704484   -1.3602363    0.2466164 
C     2.1700976   -0.8129674   -3.1832852 
O     2.2232074    0.4522643   -3.7592180 
O     1.3560646   -1.7807541   -3.7567440 
H     0.9433040   -1.4017730   -4.5999830 
N     4.1983474   -0.4001745   -1.7330356 
H     3.1667863   -2.2127951   -2.0022956 
H     4.3465118    0.2871877   -2.5120130 
H     4.2289251    0.1635996   -0.8541940 
