24
UFF-Energy = 0.0747998
C     1.5739576    2.2740176   -1.3420789 
C     0.2464079    2.4964697   -1.1493827 
C    -0.5323912    1.5048361   -0.6594430 
C     2.1141288    1.0669405   -1.0419594 
C     1.3355980    0.0690599   -0.5343977 
C     0.0030422    0.2967095   -0.3561345 
O    -0.3420738    3.7299258   -1.4508988 
H     0.3100968    4.4235268   -1.8021220 
H    -0.6472583   -0.4859854    0.0238880 
H     3.1761942    0.9094471   -1.2135785 
H     2.2085543    3.0597878   -1.7390091 
H    -1.5922010    1.6861108   -0.5143275 
C     1.9345045   -1.2890609   -0.1997553 
C     2.2125287   -1.5120833    1.3106601 
H     2.8745582   -1.4522169   -0.7731982 
H     1.2347350   -2.0805215   -0.5490746 
C     3.4287713   -0.7454169    1.8279558 
O     3.9865737    0.3002941    1.0965959 
O     3.9998815   -1.0681698    3.0636199 
H     3.5532465   -1.8605241    3.5097024 
N     1.0218556   -1.2080564    2.1152758 
H     2.4414415   -2.5962235    1.4297094 
H     0.2629820   -1.8739047    1.8405158 
H     1.2274213   -1.4204382    3.1201551 
