24
UFF-Energy = 0.0765425
C     2.9500410    2.0452243    0.1153235 
C     1.9157793    2.9144644    0.1919045 
C     0.6630915    2.5043329   -0.1120968 
C     2.7338362    0.7586461   -0.2595123 
C     1.4755639    0.3393717   -0.5692742 
C     0.4389828    1.2199672   -0.4881436 
O     2.1415332    4.2321565    0.5787988 
H     2.0906402    4.3207026    1.5881694 
H    -0.5762158    0.8995812   -0.7120719 
H     3.5721240    0.0686219   -0.3067386 
H     3.9493245    2.3896509    0.3575182 
H    -0.1579441    3.2101377   -0.0464089 
C     1.2249695   -1.1025814   -0.9530794 
C     1.0206354   -1.9975524    0.2862009 
H     2.0836313   -1.4807273   -1.5508834 
H     0.3382319   -1.1785572   -1.6222852 
C    -0.1969304   -1.5590710    1.1018821 
O    -0.0036941   -0.9166430    2.3184854 
O    -1.4989710   -1.7545918    0.6427930 
H    -1.4999704   -2.2750009   -0.2228007 
N     0.9042399   -3.3960206   -0.1639336 
H     1.9022117   -1.8928969    0.9633606 
H     1.8230760   -3.7104083   -0.5571839 
H     0.7244074   -4.0137377    0.6653190 
