24
UFF-Energy = 0.0549497
C     2.4519101    2.7743951    0.4228577 
C     1.6159981    3.5062231   -0.3600962 
C     0.6953664    2.8775433   -1.1246475 
C     2.3636410    1.4206474    0.4360715 
C     1.4395226    0.7827520   -0.3370955 
C     0.6000499    1.5240580   -1.1134172 
O     1.6785747    4.9026721   -0.3941128 
H     2.4037800    5.2985761    0.1940016 
H    -0.1486565    1.0405792   -1.7358497 
H     3.0378343    0.8544209    1.0729917 
H     3.1922780    3.2696657    1.0415726 
H     0.0365056    3.4728230   -1.7475912 
C     1.3361925   -0.7324619   -0.3239937 
C     2.0325400   -1.4191749   -1.5281134 
H     0.2609741   -1.0224122   -0.3118247 
H     1.7665924   -1.1398698    0.6175985 
C     1.3938228   -1.0320979   -2.8557003 
O     1.8888952    0.0206782   -3.6188940 
O     0.2407208   -1.6835199   -3.2735187 
H    -0.0414188   -1.3080097   -4.1704058 
N     3.5066049   -1.2521462   -1.4903125 
H     1.8248269   -2.5102950   -1.4443248 
H     3.8666459   -0.8214511   -2.3766738 
H     3.8194191   -0.6183414   -0.7210859 
