24
UFF-Energy = 0.0730444
C     1.3964416    2.6282267   -0.2132843 
C     0.0582923    2.7370906    0.0031996 
C    -0.7224221    1.6352008   -0.0692392 
C     1.9449657    1.4207687   -0.5019793 
C     1.1583895    0.3126796   -0.5831606 
C    -0.1796067    0.4254706   -0.3583216 
O    -0.5380775    3.9652468    0.3047647 
H     0.1109728    4.7437433    0.3413913 
H    -0.8229234   -0.4518347   -0.4003757 
H     3.0171873    1.3479481   -0.6674935 
H     2.0305025    3.5063246   -0.1536767 
H    -1.7876740    1.7345574    0.1112211 
C     1.7719118   -1.0389259   -0.8763275 
C     2.3233580   -1.7145700    0.4023323 
H     2.5939459   -0.9152753   -1.6165025 
H     1.0206059   -1.7103514   -1.3533623 
C     1.2245998   -1.9308428    1.4374370 
O     0.1873518   -2.8185201    1.1842073 
O     1.2139067   -1.1962499    2.6148114 
H     0.8628860   -0.2700191    2.4209066 
N     3.0430868   -2.9666148    0.0584891 
H     3.0502071   -1.0262999    0.8927354 
H     2.5794630   -3.8029154    0.4940208 
H     3.0499654   -3.1595549   -0.9708132 
