24
UFF-Energy = 0.00377785
C     1.2162910    2.5183082   -0.6402431 
C    -0.0346339    2.3596427   -1.1275853 
C    -0.5177593    1.1194650   -1.3652858 
C     1.9896182    1.4319676   -0.3777508 
C     1.5029188    0.1744601   -0.5958131 
C     0.2459348    0.0264686   -1.1047188 
O    -0.8360080    3.4689349   -1.3559913 
H    -0.7059397    3.8467916   -2.2916918 
H    -0.1536889   -0.9578962   -1.3492193 
H     3.0019298    1.5877434   -0.0066390 
H     1.5839874    3.5265073   -0.4625691 
H    -1.5211312    1.0173016   -1.7751931 
C     2.3498100   -1.0478362   -0.3046758 
C     2.2534053   -1.5735720    1.1734414 
H     3.4190868   -0.8446225   -0.5742818 
H     2.0601976   -1.8739106   -0.9983432 
C     2.9434709   -0.7059542    2.1858601 
O     2.3888170    0.5120273    2.5247601 
O     4.1153252   -1.0849090    2.8070959 
H     4.2913097   -0.4263373    3.5671270 
N     0.8842964   -1.7542862    1.6429982 
H     2.7510362   -2.5672694    1.2020946 
H     0.9712578   -1.9990540    2.6597711 
H     0.3382280   -0.8596167    1.5679228 
