    24
 Energy =       0.2194748656
c     1.6703672    2.6182922    0.2614132  0.00    0.0470618    0.0712461    0.0242333
c     0.3248649    2.9356558    0.1418766  0.00   -0.0065754    0.1048062    0.0279627
c    -0.5827484    1.9945952   -0.3219261  0.00   -0.0885990    0.0431287    0.0048224
c     2.1038063    1.3347474   -0.0833024  0.00    0.0664906   -0.0116096    0.0088452
c     1.2047783    0.3610782   -0.5608861  0.00    0.0029603   -0.1122427   -0.0268099
c    -0.1441045    0.7159142   -0.6796715  0.00   -0.0497207   -0.1342884   -0.0057344
o    -0.1504797    4.1703171    0.4675790  0.00   -0.0528423   -0.0243591   -0.0587519
h    -0.5871159    4.5498648   -0.3125495  0.00    0.0451609   -0.0386767    0.0472486
h    -0.8895274    0.0262790   -1.0546636  0.00   -0.0571891   -0.2240678    0.1714575
h     3.1621727    1.0964802    0.0165124  0.00    0.0030647    0.0001173   -0.0009816
h     2.3926004    3.3457758    0.6178375  0.00    0.0100223   -0.0070635   -0.0021179
h    -1.6336796    2.2563998   -0.4108671  0.00   -0.0019056    0.0007632   -0.0012420
c     1.7669373   -1.0073413   -0.8964724  0.00   -0.0375263   -0.0241668    0.0390505
c     0.8861134   -2.0194266   -1.6556448  0.00    0.1409139    0.0564016    0.0301554
h     2.1212937   -1.4658931    0.0371405  0.00   -0.0027216    0.0070706   -0.0138138
h     2.6645729   -0.8285312   -1.5058794  0.00   -0.0094855    0.0055844    0.0110022
c    -0.2550706   -2.4993401   -0.7313897  0.00   -0.2699096   -0.2810848   -0.0424171
o    -0.8587891   -3.5562519   -0.8247086  0.00    0.1462728    0.2472885    0.0301226
o    -0.5457168   -1.5582366    0.2075950  0.00    0.0675133    0.1554289   -0.1270206
h    -1.4556182   -1.2376649   -0.0182350  0.00    0.1190287    0.1691335   -0.1524988
n     0.2410616   -1.4915667   -2.9017470  0.00   -0.0926637    0.0083137   -0.0312408
h     1.4642165   -2.9122299   -1.9206526  0.00   -0.0132890    0.0148133   -0.0019524
h    -0.7513888   -1.7528500   -2.8797219  0.00    0.0398568    0.0041543    0.0400874
h     0.2327904   -0.4700704   -2.8568985  0.00   -0.0059184   -0.0306908    0.0295933
    24
 Energy =       0.1665091979
c     1.7292750    2.5542350    0.3003082  0.00    0.0314446    0.0479886    0.0159480
c     0.4027219    2.9019211    0.1984206  0.00   -0.0046258    0.0685659    0.0183345
c    -0.5237460    1.9875711   -0.2464806  0.00   -0.0595298    0.0287419    0.0027922
c     2.1331527    1.2808620   -0.0628307  0.00    0.0446292   -0.0070784    0.0064633
c     1.2147360    0.3444050   -0.5342281  0.00   -0.0002571   -0.0737049   -0.0155703
c    -0.1189742    0.7137700   -0.6081628  0.00   -0.0339791   -0.0939218   -0.0020423
o    -0.0175372    4.1652365    0.5299449  0.00   -0.0347997   -0.0164982   -0.0374977
h    -0.4283628    4.5970773   -0.2570555  0.00    0.0302484   -0.0236920    0.0288038
h    -0.8731778    0.0301972   -0.9715757  0.00   -0.0393822   -0.1618540    0.1221675
h     3.1895334    1.0238374    0.0060904  0.00    0.0028346   -0.0000745   -0.0006765
h     2.4633651    3.2734980    0.6497717  0.00    0.0069640   -0.0044489   -0.0017081
h    -1.5698587    2.2720826   -0.3159109  0.00   -0.0016037    0.0007957   -0.0009091
c     1.7370216   -1.0143036   -0.9703970  0.00   -0.0270951   -0.0165905    0.0263743
c     0.7833794   -1.9700545   -1.7214241  0.00    0.0919564    0.0362566    0.0193996
h     2.1420828   -1.5305392   -0.0787111  0.00    0.0001154    0.0032773   -0.0063751
h     2.5966228   -0.8256855   -1.6403855  0.00   -0.0048959    0.0030959    0.0049875
c    -0.3251588   -2.4663392   -0.7866055  0.00   -0.1766711   -0.1884752   -0.0424447
o    -0.8973445   -3.5997723   -0.9286947  0.00    0.0978941    0.1613452    0.0194827
o    -0.5913758   -1.6288123    0.2768138  0.00    0.0523453    0.1138462   -0.0735402
h    -1.4997181   -1.2251218    0.1235510  0.00    0.0734175    0.1260263   -0.1084964
n     0.1638206   -1.3871532   -2.9476350  0.00   -0.0614757    0.0061121   -0.0224111
h     1.3375386   -2.8759460   -2.0221365  0.00   -0.0085650    0.0088378   -0.0014244
h    -0.8347451   -1.6568343   -2.9671803  0.00    0.0252542    0.0016584    0.0288878
h     0.1680860   -0.3581343   -2.8907482  0.00   -0.0042234   -0.0202096    0.0194546
    24
 Energy =       0.1424624406
c     1.7636472    2.5179172    0.3131578  0.00    0.0220355    0.0340078    0.0111250
c     0.4467785    2.8819096    0.2470495  0.00   -0.0028589    0.0452584    0.0107698
c    -0.4896915    1.9992192   -0.2180182  0.00   -0.0419340    0.0201015    0.0012070
c     2.1492704    1.2614888   -0.0969592  0.00    0.0318983   -0.0057771    0.0046525
c     1.2186806    0.3540851   -0.5755958  0.00   -0.0003423   -0.0525179   -0.0105536
c    -0.1076571    0.7374926   -0.6168484  0.00   -0.0241156   -0.0684521   -0.0011716
o     0.0496360    4.1341458    0.6702219  0.00   -0.0222728   -0.0128042   -0.0159442
h    -0.3117628    4.6646355   -0.0983024  0.00    0.0179435   -0.0108034    0.0123823
h    -0.8805336    0.0646768   -0.9620693  0.00   -0.0299971   -0.1205014    0.0918332
h     3.2031378    0.9911830   -0.0484829  0.00    0.0023007   -0.0001884   -0.0004546
h     2.5033961    3.2186406    0.6885210  0.00    0.0050499   -0.0025504   -0.0009071
h    -1.5347648    2.2946969   -0.2502252  0.00   -0.0018138    0.0010190   -0.0006186
c     1.7221885   -1.0017711   -1.0535607  0.00   -0.0200150   -0.0114222    0.0191042
c     0.7286555   -1.9648481   -1.7476303  0.00    0.0639769    0.0249111    0.0129651
h     2.1795854   -1.5216075   -0.1852406  0.00    0.0009225    0.0018778   -0.0031022
h     2.5429606   -0.8085995   -1.7751493  0.00   -0.0020238    0.0023328    0.0020458
c    -0.3354589   -2.4604784   -0.7709731  0.00   -0.1253389   -0.1314350   -0.0304493
o    -0.9148961   -3.6283135   -0.9021047  0.00    0.0690031    0.1128312    0.0142067
o    -0.6100771   -1.6360369    0.3010845  0.00    0.0375560    0.0827905   -0.0532189
h    -1.5205149   -1.2360745    0.1448877  0.00    0.0546015    0.0939525   -0.0813492
n     0.0907562   -1.3899808   -2.9645057  0.00   -0.0426765    0.0022121   -0.0165765
h     1.2768617   -2.8758728   -2.0559114  0.00   -0.0058828    0.0061936   -0.0011077
h    -0.9193368   -1.6361528   -2.9642903  0.00    0.0167207    0.0009002    0.0208976
h     0.1304757   -0.3543579   -2.9443165  0.00   -0.0027369   -0.0119363    0.0142644
    24
 Energy =       0.1327963545
c     1.6710634    2.5665484    0.2889344  0.00    0.0186488    0.0282158    0.0094679
c     0.3500942    2.8967538    0.1852125  0.00   -0.0021078    0.0364048    0.0085695
c    -0.5533562    1.9810344   -0.2755256  0.00   -0.0350415    0.0167299    0.0010828
c     2.0956148    1.3148948   -0.0844244  0.00    0.0268918   -0.0051429    0.0037755
c     1.2005082    0.3772519   -0.5621423  0.00   -0.0005551   -0.0427555   -0.0084564
c    -0.1344389    0.7229651   -0.6402464  0.00   -0.0209789   -0.0565618   -0.0010253
o    -0.0842013    4.1576603    0.5545430  0.00   -0.0180134   -0.0099025   -0.0081528
h    -0.3899117    4.6689739   -0.2570555  0.00    0.0135494   -0.0068691    0.0060882
h    -0.8837223    0.0194335   -0.9872352  0.00   -0.0259422   -0.1011123    0.0758784
h     3.1547384    1.0716116   -0.0046533  0.00    0.0027789   -0.0004356   -0.0003294
h     2.3837087    3.2964611    0.6622374  0.00    0.0046536   -0.0015234   -0.0004685
h    -1.6042526    2.2516570   -0.3370872  0.00   -0.0022440    0.0011341   -0.0004991
c     1.7547128   -0.9801909   -0.9827703  0.00   -0.0156182   -0.0101057    0.0153663
c     0.8057464   -1.9776210   -1.6912049  0.00    0.0521995    0.0197725    0.0108110
h     2.1818413   -1.4686919   -0.0789094  0.00    0.0015067    0.0011124   -0.0012154
h     2.6045669   -0.7937403   -1.6739288  0.00   -0.0009320    0.0015612    0.0009870
c    -0.2709906   -2.4886390   -0.7380962  0.00   -0.1024446   -0.1070025   -0.0257063
o    -0.8237251   -3.6830247   -0.8932139  0.00    0.0564291    0.0907452    0.0111235
o    -0.6038712   -1.6741168    0.3282810  0.00    0.0311321    0.0692224   -0.0419695
h    -1.5213673   -1.2996042    0.1478113  0.00    0.0446291    0.0789001   -0.0678741
n     0.2006441   -1.4310526   -2.9368515  0.00   -0.0347902   -0.0007599   -0.0145398
h     1.3886918   -2.8797953   -1.9681899  0.00   -0.0041871    0.0042503   -0.0013187
h    -0.8177650   -1.6488775   -2.9523961  0.00    0.0128009    0.0006192    0.0172416
h     0.2770082   -0.3938943   -2.9683505  0.00   -0.0023647   -0.0064969    0.0111638
    24
 Energy =       0.1183192077
c     1.5946690    2.6128381    0.2320548  0.00    0.0107325    0.0161112    0.0058640
c     0.2744732    2.9124449    0.1100528  0.00   -0.0010259    0.0203912    0.0041030
c    -0.6017646    1.9705560   -0.3319847  0.00   -0.0200716    0.0098757    0.0005913
c     2.0476246    1.3697082   -0.1080932  0.00    0.0154859   -0.0031391    0.0021237
c     1.1809919    0.4079359   -0.5687470  0.00   -0.0010152   -0.0237094   -0.0046745
c    -0.1575159    0.7195601   -0.6646153  0.00   -0.0133768   -0.0342452   -0.0005968
o    -0.1846808    4.1801294    0.4375786  0.00   -0.0080518   -0.0126735    0.0129725
h    -0.3521946    4.7156302   -0.4158086  0.00    0.0053487    0.0042134   -0.0128829
h    -0.8920174   -0.0111498   -0.9920804  0.00   -0.0181847   -0.0663898    0.0491187
h     3.1099223    1.1504694   -0.0093072  0.00    0.0020569   -0.0004248   -0.0001660
h     2.2843205    3.3689380    0.5959866  0.00    0.0030214   -0.0004124   -0.0000601
h    -1.6568895    2.2185910   -0.4054445  0.00   -0.0015824    0.0008588   -0.0002574
c     1.7711267   -0.9536895   -0.9318060  0.00   -0.0082186   -0.0061878    0.0082877
c     0.8514384   -1.9939073   -1.6203683  0.00    0.0291957    0.0102213    0.0071746
h     2.1837469   -1.4036279    0.0005027  0.00    0.0013711    0.0001911    0.0003587
h     2.6344925   -0.7807002   -1.6109770  0.00   -0.0003471    0.0006565    0.0002634
c    -0.2114223   -2.5241967   -0.6666827  0.00   -0.0584991   -0.0585831   -0.0167801
o    -0.7237104   -3.7675643   -0.8223553  0.00    0.0325978    0.0480542    0.0059818
o    -0.6132664   -1.7219769    0.3889857  0.00    0.0195379    0.0434343   -0.0229480
h    -1.5435360   -1.3899402    0.1828403  0.00    0.0273332    0.0528885   -0.0450492
n     0.2658311   -1.4887609   -2.8905344  0.00   -0.0181652   -0.0098341   -0.0087348
h     1.4683072   -2.8863367   -1.8664354  0.00   -0.0018318    0.0015255   -0.0009339
h    -0.7696213   -1.6417303   -2.8976547  0.00    0.0035676   -0.0004212    0.0108391
h     0.4210117   -0.4572234   -3.0103686  0.00    0.0001215    0.0075987    0.0054051
    24
 Energy =       0.1175426813
c     1.5673826    2.6313994    0.2374500  0.00    0.0104148    0.0156117    0.0056904
c     0.2448760    2.9182683    0.1129776  0.00   -0.0009968    0.0197185    0.0039165
c    -0.6210233    1.9685898   -0.3318126  0.00   -0.0194561    0.0095696    0.0005653
c     2.0328492    1.3932024   -0.1021776  0.00    0.0150311   -0.0030413    0.0020602
c     1.1770181    0.4234888   -0.5657014  0.00   -0.0009999   -0.0228908   -0.0045133
c    -0.1642071    0.7225152   -0.6650906  0.00   -0.0129942   -0.0332565   -0.0007873
o    -0.2275237    4.1813149    0.4403872  0.00   -0.0077796   -0.0122185    0.0128791
h    -0.3780494    4.7226880   -0.4124103  0.00    0.0051323    0.0041462   -0.0127122
h    -0.8907168   -0.0137754   -0.9989458  0.00   -0.0174943   -0.0644864    0.0468502
h     3.0970294    1.1843866   -0.0009176  0.00    0.0020499   -0.0004207   -0.0001537
h     2.2487742    3.3938357    0.6036444  0.00    0.0029560   -0.0003566   -0.0000382
h    -1.6781503    2.2069698   -0.4082908  0.00   -0.0015835    0.0008406   -0.0002547
c     1.7845830   -0.9312795   -0.9279427  0.00   -0.0077346   -0.0059818    0.0081353
c     0.8832874   -1.9901324   -1.6115290  0.00    0.0283303    0.0104656    0.0075812
h     2.2051934   -1.3727720    0.0047965  0.00    0.0013548    0.0001323    0.0003917
h     2.6441754   -0.7470744   -1.6091568  0.00   -0.0002716    0.0006700    0.0002169
c    -0.1852241   -2.5246480   -0.6668924  0.00   -0.0563058   -0.0565607   -0.0155516
o    -0.6749035   -3.7792144   -0.8190628  0.00    0.0314357    0.0460348    0.0056502
o    -0.6111615   -1.7242476    0.3797812  0.00    0.0192555    0.0420455   -0.0218009
h    -1.5458128   -1.4124803    0.1609057  0.00    0.0259534    0.0512357   -0.0436354
n     0.3130403   -1.5102918   -2.8978043  0.00   -0.0008813   -0.0180860   -0.0081524
h     1.5149524   -2.8782187   -1.8368177  0.00   -0.0015955    0.0011824   -0.0009835
h    -0.7016817   -1.8004834   -2.9764200  0.00   -0.0152168   -0.0057778    0.0089113
h     0.3466299   -0.4560438   -2.9742319  0.00    0.0013961    0.0214243    0.0057348
    24
 Energy =       0.1110937512
c     1.5397111    2.6847665    0.1433282  0.00    0.0064695    0.0099738    0.0040006
c     0.2147674    2.9505405    0.0321874  0.00   -0.0003881    0.0121203    0.0013394
c    -0.6425318    1.9797445   -0.3710237  0.00   -0.0120583    0.0055397   -0.0000563
c     2.0145090    1.4450050   -0.1625692  0.00    0.0092584   -0.0014193    0.0014708
c     1.1661752    0.4536312   -0.5836753  0.00   -0.0012161   -0.0135937   -0.0027795
c    -0.1762433    0.7346985   -0.6771437  0.00   -0.0084517   -0.0212660   -0.0004030
o    -0.2698575    4.2172073    0.3322607  0.00   -0.0040478   -0.0177280    0.0283839
h    -0.2634872    4.7994655   -0.5192445  0.00    0.0027075    0.0128871   -0.0268648
h    -0.8982400   -0.0155413   -0.9841567  0.00   -0.0121549   -0.0426816    0.0313973
h     3.0812523    1.2512011   -0.0644670  0.00    0.0013842   -0.0001640   -0.0000239
h     2.2143233    3.4665932    0.4800939  0.00    0.0021253    0.0003014    0.0002043
h    -1.7029795    2.2034263   -0.4396531  0.00   -0.0010918    0.0005168   -0.0001881
c     1.7829927   -0.9114594   -0.8933313  0.00   -0.0045478   -0.0035835    0.0045888
c     0.8961362   -2.0103597   -1.5361422  0.00    0.0174791    0.0054501    0.0061243
h     2.2028849   -1.3126490    0.0584963  0.00    0.0011289   -0.0002874    0.0010896
h     2.6442869   -0.7484023   -1.5784836  0.00   -0.0000433    0.0003538   -0.0001510
c    -0.1549986   -2.5514861   -0.5759019  0.00   -0.0327279   -0.0267063   -0.0118335
o    -0.5565696   -3.8632690   -0.6603097  0.00    0.0178409    0.0169067    0.0027936
o    -0.6543715   -1.7360991    0.4289166  0.00    0.0159364    0.0285789   -0.0091396
h    -1.6039535   -1.4913926    0.1774865  0.00    0.0129226    0.0358109   -0.0311342
n     0.3318131   -1.5880600   -2.8440918  0.00    0.0000504   -0.0119737   -0.0064067
h     1.5519367   -2.8906306   -1.7288318  0.00   -0.0005493   -0.0000479   -0.0006154
h    -0.6650445   -1.9205144   -2.9426092  0.00   -0.0109424   -0.0036172    0.0049286
h     0.3288249   -0.5404188   -2.9563967  0.00    0.0009162    0.0146289    0.0032748
    24
 Energy =       0.1101815378
c     1.5544657    2.7005616    0.0915513  0.00    0.0054811    0.0085550    0.0034431
c     0.2298418    2.9690984   -0.0093592  0.00   -0.0003109    0.0102326    0.0010482
c    -0.6333588    1.9966188   -0.3919195  0.00   -0.0102423    0.0045490   -0.0001089
c     2.0217955    1.4553522   -0.2005649  0.00    0.0078482   -0.0011074    0.0012762
c     1.1664190    0.4621038   -0.6001773  0.00   -0.0010892   -0.0115108   -0.0023504
c    -0.1738424    0.7480099   -0.6883631  0.00   -0.0071665   -0.0179906   -0.0003302
o    -0.2490886    4.2407212    0.2805537  0.00   -0.0033020   -0.0163321    0.0265231
h    -0.1853175    4.8361751   -0.5580436  0.00    0.0022367    0.0123214   -0.0250995
h    -0.8992148   -0.0011933   -0.9851590  0.00   -0.0102328   -0.0361238    0.0265359
h     3.0883485    1.2585993   -0.1082511  0.00    0.0011915   -0.0001127   -0.0000062
h     2.2343452    3.4843208    0.4125385  0.00    0.0018597    0.0003712    0.0002204
h    -1.6934511    2.2230637   -0.4546752  0.00   -0.0009400    0.0004251   -0.0001648
c     1.7735366   -0.9104816   -0.8943850  0.00   -0.0038336   -0.0027942    0.0040323
c     0.8757255   -2.0234165   -1.4990180  0.00    0.0150300    0.0047436    0.0055941
h     2.2097505   -1.2935394    0.0576585  0.00    0.0010203   -0.0002819    0.0012007
h     2.6232477   -0.7618216   -1.5975575  0.00    0.0001965    0.0003793   -0.0003433
c    -0.1494630   -2.5621768   -0.5078941  0.00   -0.0256959   -0.0156359   -0.0112740
o    -0.4623186   -3.9096743   -0.5015566  0.00    0.0130678    0.0032989    0.0018426
o    -0.7003542   -1.7197287    0.4489029  0.00    0.0148450    0.0270395   -0.0052063
h    -1.6478971   -1.5056969    0.1609476  0.00    0.0091330    0.0306697   -0.0269297
n     0.2871252   -1.6295117   -2.8049625  0.00    0.0000220   -0.0102210   -0.0061840
h     1.5354944   -2.9013817   -1.6902113  0.00   -0.0003872   -0.0000465   -0.0005046
h    -0.7100668   -1.9638344   -2.8812372  0.00   -0.0095394   -0.0032460    0.0040819
h     0.2856141   -0.5861707   -2.9440794  0.00    0.0008079    0.0128177    0.0027033
    24
 Energy =       0.1106602513
c     1.5548685    2.6992100    0.0918883  0.00    0.0049352    0.0077739    0.0031078
c     0.2312177    2.9694013   -0.0108721  0.00   -0.0002467    0.0092321    0.0009174
c    -0.6309965    2.0007800   -0.4041136  0.00   -0.0092460    0.0040799   -0.0001056
c     2.0225818    1.4570178   -0.2103910  0.00    0.0070904   -0.0009947    0.0011640
c     1.1679127    0.4677595   -0.6194336  0.00   -0.0012171   -0.0102609   -0.0021815
c    -0.1710907    0.7549880   -0.7092288  0.00   -0.0064714   -0.0162504   -0.0002942
o    -0.2468401    4.2394744    0.2880976  0.00   -0.0030877   -0.0149000    0.0243108
h    -0.2068242    4.8331554   -0.5515159  0.00    0.0021205    0.0113298   -0.0229846
h    -0.8948212    0.0072907   -1.0123321  0.00   -0.0091978   -0.0328526    0.0238928
h     3.0890165    1.2595793   -0.1192421  0.00    0.0010758   -0.0001181   -0.0000085
h     2.2338508    3.4802944    0.4209153  0.00    0.0016910    0.0003673    0.0002092
h    -1.6908248    2.2277687   -0.4675197  0.00   -0.0008473    0.0003802   -0.0001480
c     1.7764623   -0.8991232   -0.9351643  0.00   -0.0038534   -0.0021130    0.0037936
c     0.8650615   -2.0263086   -1.4934354  0.00    0.0143460    0.0053935    0.0057637
h     2.2587739   -1.2741610   -0.0010427  0.00    0.0014789   -0.0005368    0.0021180
h     2.5939633   -0.7425860   -1.6754844  0.00    0.0010831    0.0005615   -0.0010670
c    -0.1144408   -2.5673922   -0.4557479  0.00   -0.0219870   -0.0061074   -0.0110189
o    -0.3287042   -3.9383250   -0.3518790  0.00    0.0096832   -0.0093222    0.0025343
o    -0.7054287   -1.7051808    0.4603985  0.00    0.0143491    0.0268330   -0.0035796
h    -1.6454126   -1.5050529    0.1389595  0.00    0.0071299    0.0277962   -0.0245324
n     0.2259095   -1.6548887   -2.7832776  0.00    0.0014148   -0.0095098   -0.0074817
h     1.5284149   -2.8983905   -1.7003708  0.00    0.0000031   -0.0000346   -0.0005133
h    -0.7835423   -1.9625797   -2.8069359  0.00   -0.0113528   -0.0039735    0.0035298
h     0.2522294   -0.6167337   -2.9575340  0.00    0.0011058    0.0132266    0.0025739
    24
 Energy =       0.1095807938
c     1.6318941    2.6758980    0.0828196  0.00    0.0048190    0.0073651    0.0029681
c     0.3143825    2.9805927   -0.0048485  0.00   -0.0003438    0.0083315    0.0009872
c    -0.5761582    2.0358633   -0.3922895  0.00   -0.0088856    0.0037522   -0.0001299
c     2.0641179    1.4221113   -0.2259825  0.00    0.0069381   -0.0009430    0.0010827
c     1.1795190    0.4562631   -0.6279645  0.00   -0.0009619   -0.0094829   -0.0020104
c    -0.1512938    0.7802407   -0.7064981  0.00   -0.0061850   -0.0147564   -0.0004338
o    -0.1285321    4.2617755    0.3039898  0.00   -0.0029686   -0.0135198    0.0230938
h    -0.0480711    4.8691814   -0.5219166  0.00    0.0017961    0.0112172   -0.0217236
h    -0.8963882    0.0543854   -1.0083200  0.00   -0.0085003   -0.0295705    0.0211452
h     3.1260781    1.1962978   -0.1453670  0.00    0.0014641   -0.0001760   -0.0000001
h     2.3342141    3.4384264    0.4073408  0.00    0.0018271    0.0006592    0.0003511
h    -1.6306513    2.2903760   -0.4451718  0.00   -0.0012302    0.0004329   -0.0001313
c     1.7463940   -0.9275687   -0.9503668  0.00   -0.0030529   -0.0020776    0.0034561
c     0.7982737   -2.0355911   -1.4883202  0.00    0.0124353    0.0045938    0.0048474
h     2.2361609   -1.3116821   -0.0242490  0.00    0.0015035   -0.0004204    0.0018619
h     2.5542013   -0.7935550   -1.7060156  0.00    0.0012487    0.0005113   -0.0013635
c    -0.1871264   -2.5488795   -0.4407947  0.00   -0.0195445   -0.0054507   -0.0099301
o    -0.4235117   -3.9148255   -0.3236470  0.00    0.0087230   -0.0087347    0.0025046
o    -0.7825077   -1.6694726    0.4557450  0.00    0.0127215    0.0239618   -0.0026809
h    -1.7184536   -1.4686110    0.1227008  0.00    0.0062131    0.0249587   -0.0220325
n     0.1620410   -1.6612004   -2.7779303  0.00    0.0011867   -0.0085225   -0.0066789
h     1.4388575   -2.9256277   -1.6928839  0.00    0.0002077   -0.0003562   -0.0006281
h    -0.8446854   -1.9751319   -2.8068273  0.00   -0.0103095   -0.0035601    0.0032546
h     0.1825823   -0.6232690   -2.9484644  0.00    0.0008986    0.0117869    0.0021903
    24
 Energy =       0.1108181138
c     1.6210673    2.6742639    0.0857601  0.00    0.0046504    0.0073594    0.0029400
c     0.3016575    2.9727842    0.0078760  0.00   -0.0003537    0.0081514    0.0009294
c    -0.5853331    2.0282293   -0.3882232  0.00   -0.0087346    0.0037752   -0.0001016
c     2.0592748    1.4278671   -0.2440328  0.00    0.0068429   -0.0010434    0.0010322
c     1.1782592    0.4623890   -0.6541504  0.00   -0.0014618   -0.0089883   -0.0019918
c    -0.1546651    0.7793351   -0.7212147  0.00   -0.0060380   -0.0144898   -0.0004638
o    -0.1460474    4.2479903    0.3347220  0.00   -0.0030635   -0.0135326    0.0234438
h    -0.1002252    4.8571989   -0.4927840  0.00    0.0018351    0.0114946   -0.0220166
h    -0.8966793    0.0515251   -1.0256562  0.00   -0.0083004   -0.0291816    0.0206614
h     3.1233669    1.2080409   -0.1750297  0.00    0.0015166   -0.0002525   -0.0000130
h     2.3204841    3.4366939    0.4167108  0.00    0.0017839    0.0006784    0.0003528
h    -1.6415901    2.2771477   -0.4319665  0.00   -0.0012539    0.0004683   -0.0001202
c     1.7538750   -0.9086273   -1.0146197  0.00   -0.0036758   -0.0015607    0.0035062
c     0.7954217   -2.0351739   -1.4955016  0.00    0.0136359    0.0057729    0.0057136
h     2.3063048   -1.2863381   -0.1188235  0.00    0.0027269   -0.0011125    0.0036813
h     2.5145954   -0.7555027   -1.8170440  0.00    0.0028463    0.0008883   -0.0029112
c    -0.1271388   -2.5528903   -0.3911676  0.00   -0.0189104    0.0021656   -0.0100726
o    -0.2647585   -3.9288072   -0.1860363  0.00    0.0066127   -0.0192519    0.0048423
o    -0.7426961   -1.6648959    0.4840306  0.00    0.0130349    0.0243101   -0.0024572
h    -1.6694841   -1.4608890    0.1285816  0.00    0.0055096    0.0243801   -0.0216682
n     0.0899435   -1.6837745   -2.7578482  0.00    0.0027033   -0.0079026   -0.0099205
h     1.4402950   -2.9166698   -1.7243846  0.00    0.0008131   -0.0004008   -0.0007549
h    -0.9265751   -1.9717709   -2.7199316  0.00   -0.0141205   -0.0047608    0.0031442
h     0.1319844   -0.6521287   -2.9645283  0.00    0.0014010    0.0130333    0.0022444
    24
 Energy =       0.1099814762
c     1.6796351    2.6640327    0.0509955  0.00    0.0044532    0.0073722    0.0029104
c     0.3672431    2.9913642   -0.0347962  0.00   -0.0004655    0.0077037    0.0009154
c    -0.5395597    2.0612980   -0.4192456  0.00   -0.0085520    0.0037656   -0.0000676
c     2.0898600    1.4014935   -0.2547388  0.00    0.0067712   -0.0012351    0.0009195
c     1.1877165    0.4499178   -0.6514741  0.00   -0.0013185   -0.0083698   -0.0019342
c    -0.1361520    0.7983438   -0.7324596  0.00   -0.0059002   -0.0136239   -0.0005987
o    -0.0538426    4.2808739    0.2729001  0.00   -0.0033669   -0.0141371    0.0249706
h     0.0585279    4.8940593   -0.5467655  0.00    0.0019833    0.0129977   -0.0234892
h    -0.8922866    0.0846920   -1.0337725  0.00   -0.0078302   -0.0271609    0.0190459
h     3.1481357    1.1571093   -0.1759581  0.00    0.0017941   -0.0003791   -0.0000043
h     2.3953849    3.4154073    0.3725438  0.00    0.0018104    0.0008399    0.0004098
h    -1.5897953    2.3339548   -0.4717624  0.00   -0.0015072    0.0005804   -0.0001108
c     1.7285946   -0.9445246   -0.9770912  0.00   -0.0033830   -0.0019418    0.0031117
c     0.7456534   -2.0520859   -1.4544531  0.00    0.0131513    0.0055258    0.0056196
h     2.2549643   -1.3218716   -0.0655752  0.00    0.0027425   -0.0014090    0.0037377
h     2.5066432   -0.8279266   -1.7697291  0.00    0.0032711    0.0009654   -0.0032785
c    -0.2147609   -2.5288806   -0.3614597  0.00   -0.0174971    0.0025150   -0.0094804
o    -0.4015717   -3.8979883   -0.1495331  0.00    0.0057714   -0.0194388    0.0050224
o    -0.8321146   -1.6153559    0.4868863  0.00    0.0117461    0.0227415   -0.0014098
h    -1.7535447   -1.4092310    0.1175428  0.00    0.0048084    0.0227746   -0.0202347
n     0.0775648   -1.7047120   -2.7381122  0.00    0.0027314   -0.0067209   -0.0101773
h     1.3708768   -2.9553662   -1.6545746  0.00    0.0013019   -0.0009974   -0.0007616
h    -0.9389348   -1.9943159   -2.7279498  0.00   -0.0138209   -0.0045437    0.0028210
h     0.1230993   -0.6742909   -2.9466791  0.00    0.0013053    0.0121755    0.0020631
    24
 Energy =       0.1076888515
c     1.7046549    2.6534453    0.0771055  0.00    0.0039531    0.0063236    0.0024926
c     0.3982476    2.9974102   -0.0241359  0.00   -0.0004670    0.0065955    0.0007261
c    -0.5162647    2.0776075   -0.4131465  0.00   -0.0074692    0.0033267   -0.0000416
c     2.1016749    1.3848799   -0.2178622  0.00    0.0059558   -0.0011405    0.0007601
c     1.1920384    0.4434586   -0.6196697  0.00   -0.0013894   -0.0070716   -0.0017483
c    -0.1266012    0.8080982   -0.7143657  0.00   -0.0051311   -0.0116352   -0.0004943
o    -0.0080961    4.2938883    0.2744154  0.00   -0.0030857   -0.0120142    0.0215610
h     0.0923202    4.8958689   -0.5523772  0.00    0.0018426    0.0112275   -0.0202462
h    -0.8903497    0.1041292   -1.0199221  0.00   -0.0070743   -0.0239087    0.0168343
h     3.1556322    1.1271807   -0.1253175  0.00    0.0017285   -0.0004112   -0.0000089
h     2.4262738    3.3972157    0.4026218  0.00    0.0016161    0.0007397    0.0003485
h    -1.5623104    2.3632777   -0.4775289  0.00   -0.0014340    0.0005598   -0.0001043
c     1.7186864   -0.9617829   -0.9230752  0.00   -0.0030810   -0.0007110    0.0028660
c     0.7400132   -2.0452805   -1.4648116  0.00    0.0126009    0.0050664    0.0057688
h     2.1875440   -1.3548577    0.0140975  0.00    0.0033146   -0.0018369    0.0048565
h     2.5412001   -0.8581108   -1.6732078  0.00    0.0042252    0.0012254   -0.0039880
c    -0.2797840   -2.5296899   -0.4284897  0.00   -0.0136043    0.0099057   -0.0084572
o    -0.5603248   -3.8976894   -0.3054330  0.00    0.0019010   -0.0263757    0.0064801
o    -0.8976671   -1.6293027    0.4307508  0.00    0.0114961    0.0190140   -0.0003491
h    -1.8357765   -1.4572498    0.0848884  0.00    0.0027285    0.0204239   -0.0186916
n     0.1373132   -1.6629135   -2.7717472  0.00    0.0031899   -0.0051235   -0.0118617
h     1.3595008   -2.9549447   -1.6522951  0.00    0.0014341   -0.0008609   -0.0006674
h    -0.8756183   -1.9626159   -2.8220582  0.00   -0.0146848   -0.0048599    0.0022764
h     0.1790298   -0.6260251   -2.9436975  0.00    0.0014345    0.0115411    0.0016882
    24
 Energy =       0.1062092693
c     1.6692590    2.6584690    0.1257839  0.00    0.0036918    0.0060409    0.0023613
c     0.3589725    2.9869562    0.0287065  0.00   -0.0004510    0.0061435    0.0006759
c    -0.5442047    2.0595758   -0.3683895  0.00   -0.0070383    0.0031640   -0.0000368
c     2.0824632    1.3990433   -0.1843164  0.00    0.0056446   -0.0011548    0.0006985
c     1.1853543    0.4505791   -0.5969650  0.00   -0.0011480   -0.0066261   -0.0015497
c    -0.1392709    0.7979261   -0.6821343  0.00   -0.0049185   -0.0106443   -0.0003912
o    -0.0621960    4.2758358    0.3400749  0.00   -0.0030832   -0.0116640    0.0211065
h    -0.0021259    4.8778021   -0.4903889  0.00    0.0018495    0.0111996   -0.0198278
h    -0.8965416    0.0885724   -0.9924662  0.00   -0.0067652   -0.0220137    0.0155820
h     3.1398893    1.1545021   -0.0957138  0.00    0.0017016   -0.0004372   -0.0000099
h     2.3813799    3.4081175    0.4586095  0.00    0.0015460    0.0007629    0.0003527
h    -1.5939537    2.3324040   -0.4279996  0.00   -0.0014265    0.0005647   -0.0000943
c     1.7331167   -0.9437108   -0.9163902  0.00   -0.0026513    0.0000633    0.0031217
c     0.7824189   -2.0236048   -1.5153004  0.00    0.0118176    0.0043273    0.0050737
h     2.1780886   -1.3532061    0.0252621  0.00    0.0032335   -0.0016739    0.0049451
h     2.5764517   -0.8163634   -1.6399478  0.00    0.0045153    0.0013005   -0.0042466
c    -0.2465734   -2.5603644   -0.5144838  0.00   -0.0118008    0.0103658   -0.0077247
o    -0.5348172   -3.9320560   -0.4641861  0.00    0.0009283   -0.0276508    0.0062845
o    -0.8798694   -1.7013267    0.3743843  0.00    0.0121113    0.0179186    0.0013290
h    -1.8353769   -1.5725839    0.0565731  0.00    0.0002367    0.0195531   -0.0180520
n     0.1943684   -1.6018606   -2.8169436  0.00    0.0030669   -0.0052146   -0.0120393
h     1.4185298   -2.9170973   -1.7253991  0.00    0.0014661   -0.0012882   -0.0009631
h    -0.8166437   -1.9020085   -2.8883535  0.00   -0.0139429   -0.0046618    0.0020330
h     0.2326180   -0.5596037   -2.9552779  0.00    0.0014166    0.0116252    0.0013716
    24
 Energy =       0.1045417903
c     1.6534164    2.6560911    0.1701763  0.00    0.0033885    0.0056098    0.0021844
c     0.3415110    2.9782470    0.0794306  0.00   -0.0004247    0.0056444    0.0006155