    27
 Energy =       0.5740908228
c    -1.4235396    2.6054793   -0.0667700  0.00   -0.0462348    0.0384559    0.0032705
c    -1.3072796    1.2134697   -0.1072300  0.00   -0.0853486   -0.0326368    0.0023918
c    -0.0178900    0.6711998   -0.1697000  0.00   -0.0902285   -0.1886006   -0.0023833
c    -0.2940599    3.4190890   -0.0891300  0.00   -0.0181436    0.0685415    0.0034840
c     0.9872197    2.8590292   -0.1560400  0.00    0.3343713    0.4638358    0.2287624
c     1.1340797    1.4562096   -0.1970299  0.00    0.1321091    0.1489021   -0.0071055
n     0.3879399   -0.6395298   -0.2140799  0.00    0.1457671    0.1113781    0.0003842
c     2.2666594    0.5727398   -0.2659299  0.00    0.1567980   -0.0828919   -0.0227201
c     1.7555995   -0.7123598   -0.2706899  0.00   -0.1003592   -0.0973003    0.0044024
h    -0.2400399   -1.4313496   -0.2047299  0.00    0.0365754    0.0480094   -0.0016047
c     3.7030089    1.0223397   -0.3320099  0.00   -0.0053758    0.0133684    0.0818338
c     4.0547688    2.2615794    0.5049969  0.00    0.0482574   -0.0996025   -0.1112258
h     3.9407589    1.2278196   -1.3843196  0.00   -0.0004399   -0.0056635    0.0119166
h     4.3455988    0.1801669   -0.0411573  0.00   -0.0129820    0.0124610    0.0086144
c     4.1070688    1.8611695    1.9910894  0.00    0.1001612    0.1769461    0.3366582
n     3.0543991    3.3796390    0.3726399  0.00   -0.3754083   -0.1744129   -0.2947944
h     5.0442386    2.6531392    0.2410219  0.00   -0.0243899    0.0117633    0.0053119
h     3.5723190    4.2128988    0.0750977  0.00   -0.0859173   -0.0678637   -0.0070778
h     2.4528293    3.1644491   -0.4302769  0.00    0.1703023    0.5796413    0.5997284
h    -2.4108593    3.0588691   -0.0157800  0.00   -0.0008310    0.0002385   -0.0002782
h    -2.1896094    0.5822398   -0.0890100  0.00   -0.0035683    0.0038016   -0.0002431
h    -0.4052699    4.5000487   -0.0535400  0.00    0.0000275    0.0004691   -0.0004778
h     1.8590495    3.5066790   -0.1715100  0.00   -0.1285769   -0.8000661   -0.4745686
h     2.2327294   -1.6813195   -0.3062999  0.00   -0.0407964   -0.0123006    0.0010489
o     4.4286787    2.5928493    2.9125692  0.00   -0.0907981   -0.1715456   -0.2231830
o     3.7415389    0.5622178    2.1634194  0.00   -0.0065507    0.0324335   -0.1102108
h     4.5221787    0.1321040    2.5995593  0.00   -0.0084200    0.0226389   -0.0319343
    27
 Energy =       0.5580378747
c    -1.4105066    2.6513025   -0.2115523  0.00   -0.0461952    0.0386723    0.0031971
c    -1.3208645    1.2552928   -0.2221550  0.00   -0.0846870   -0.0327990    0.0023359
c    -0.0428161    0.6879376   -0.2635187  0.00   -0.0912788   -0.1776018   -0.0026808
c    -0.2647263    3.4458095   -0.2229157  0.00   -0.0188278    0.0680065    0.0033436
c     1.0093336    2.8626746   -0.2554523  0.00    0.3177137    0.4533726    0.2183053
c     1.1183972    1.4505536   -0.2797995  0.00    0.1282534    0.1482492   -0.0051977
n     0.3468968   -0.6315510   -0.1896155  0.00    0.1462462    0.1031704    0.0006766
c     2.2431426    0.5554889   -0.2618219  0.00    0.1565469   -0.0813964   -0.0210363
c     1.7178375   -0.7248825   -0.2157112  0.00   -0.0997206   -0.0946083    0.0040501
h    -0.2950231   -1.4124957   -0.1433651  0.00    0.0354053    0.0462040   -0.0015812
c     3.6859650    0.9971703   -0.2632522  0.00   -0.0042817    0.0132077    0.0807885
c     4.0235689    2.2460051    0.5804281  0.00    0.0476948   -0.0993158   -0.1102678
h     3.9663204    1.1991729   -1.3069599  0.00   -0.0002035   -0.0054396    0.0109075
h     4.3137795    0.1477536    0.0391922  0.00   -0.0124988    0.0122474    0.0088104
c     4.0732919    1.8557338    2.0658547  0.00    0.1002870    0.1835277    0.3294535
n     3.0462380    3.3894861    0.4233625  0.00   -0.3682042   -0.1707541   -0.2738063
h     5.0266507    2.6150492    0.3315713  0.00   -0.0235169    0.0114636    0.0050803
h     3.6072558    4.1703893    0.0303106  0.00   -0.0796749   -0.0599117   -0.0124903
h     2.4608521    3.1063011   -0.3690984  0.00    0.1655040    0.5625766    0.5744417
h    -2.3898594    3.1236605   -0.1745331  0.00   -0.0011099    0.0003994   -0.0002614
h    -2.2149327    0.6408406   -0.1843272  0.00   -0.0038087    0.0034042   -0.0002097
h    -0.3567141    4.5285438   -0.1808882  0.00    0.0001058    0.0007096   -0.0004614
h     1.9038136    3.4794751   -0.1691045  0.00   -0.1190363   -0.7828410   -0.4559556
h     2.1869817   -1.7019751   -0.1553978  0.00   -0.0381135   -0.0164969    0.0013097
o     4.4099543    2.5991427    2.9758126  0.00   -0.0896665   -0.1701494   -0.2194905
o     3.8198437    0.5260194    2.2370182  0.00   -0.0130745    0.0255875   -0.1104390
h     4.6374354    0.1679677    2.6810789  0.00   -0.0038582    0.0205154   -0.0288224
    27
 Energy =       0.4422961237
c    -1.3970683    2.5921601   -0.2955301  0.00   -0.0321102    0.0278197    0.0025562
c    -1.2904301    1.2085051   -0.2629453  0.00   -0.0592364   -0.0233427    0.0016436
c    -0.0221145    0.6565651   -0.2812070  0.00   -0.0642484   -0.1212746   -0.0045318
c    -0.2671960    3.3937640   -0.3251546  0.00   -0.0132940    0.0476445    0.0029738
c     1.0054819    2.8321806   -0.3357001  0.00    0.2387361    0.3185032    0.1532898
c     1.1142288    1.4263410   -0.3099459  0.00    0.0898094    0.1046181   -0.0029522
n     0.3615343   -0.6745321   -0.1261113  0.00    0.1017718    0.0685211    0.0031122
c     2.2353021    0.5741455   -0.2449422  0.00    0.1108775   -0.0566759   -0.0158614
c     1.7526777   -0.7076065   -0.1608568  0.00   -0.0706433   -0.0638049    0.0009813
h    -0.2651686   -1.4789411   -0.0426757  0.00    0.0241091    0.0308335   -0.0002691
c     3.6809446    1.0249338   -0.2319970  0.00   -0.0022790    0.0084208    0.0585801
c     3.9954131    2.2707353    0.6293733  0.00    0.0339244   -0.0698652   -0.0782263
h     3.9760052    1.2348009   -1.2739218  0.00   -0.0000663   -0.0038223    0.0075033
h     4.3107061    0.1805570    0.0952824  0.00   -0.0086552    0.0086197    0.0085940
c     3.9874473    1.8896234    2.1113163  0.00    0.0744480    0.1268493    0.2323712
n     3.0484705    3.4177047    0.4117537  0.00   -0.2731841   -0.1243949   -0.1899828
h     5.0211766    2.6148283    0.4157289  0.00   -0.0154886    0.0081264    0.0034432
h     3.6358110    4.2320239    0.1192370  0.00   -0.0506462   -0.0364709   -0.0095801
h     2.4293847    3.1260534   -0.4337194  0.00    0.0948654    0.3881474    0.4027474
h    -2.3818161    3.0539788   -0.2722531  0.00   -0.0008845    0.0004665   -0.0001581
h    -2.1752198    0.5825170   -0.2009301  0.00   -0.0028881    0.0020187   -0.0000606
h    -0.3735980    4.4762233   -0.3083623  0.00    0.0000501    0.0009504   -0.0002706
h     1.9097924    3.5383691   -0.2274559  0.00   -0.0713969   -0.5419352   -0.3208855
h     2.2912050   -1.6462140   -0.0580111  0.00   -0.0247911   -0.0142621    0.0010878
o     4.3351983    2.6882460    3.0377081  0.00   -0.0613924   -0.1192335   -0.1542157
o     3.7181053    0.5667120    2.3441551  0.00   -0.0852618    0.0413335   -0.0937635
h     4.6658426    0.1571921    2.5223258  0.00    0.0678748   -0.0077905   -0.0081261
    27
 Energy =       0.4369439618
c    -1.3886455    2.5967681   -0.3009341  0.00   -0.0314566    0.0274692    0.0024605
c    -1.2836366    1.2147557   -0.2369383  0.00   -0.0579134   -0.0233662    0.0016869
c    -0.0174849    0.6601154   -0.2604936  0.00   -0.0620993   -0.1152258   -0.0053689
c    -0.2580165    3.3949542   -0.3585305  0.00   -0.0127603    0.0468958    0.0029089
c     1.0129908    2.8309790   -0.3728541  0.00    0.2336500    0.3118112    0.1498888
c     1.1198839    1.4268411   -0.3234746  0.00    0.0880260    0.1028004   -0.0028854
n     0.3634107   -0.6636854   -0.0302401  0.00    0.0980275    0.0641374    0.0039323
c     2.2380042    0.5726166   -0.2538325  0.00    0.1090681   -0.0546500   -0.0155099
c     1.7534120   -0.7050515   -0.1287107  0.00   -0.0669551   -0.0614751    0.0004871
h    -0.2646134   -1.4613016    0.1160774  0.00    0.0216124    0.0275983    0.0002590
c     3.6852006    1.0168798   -0.2518870  0.00   -0.0021542    0.0083238    0.0571501
c     3.9997389    2.2622849    0.6069438  0.00    0.0332290   -0.0682656   -0.0766013
h     3.9779695    1.2225521   -1.2954604  0.00   -0.0000581   -0.0037372    0.0073252
h     4.3132521    0.1732447    0.0819620  0.00   -0.0084355    0.0084115    0.0084363
c     3.9706789    1.8879871    2.0904988  0.00    0.0729162    0.1247058    0.2269613
n     3.0599653    3.4101078    0.3748002  0.00   -0.2673127   -0.1216173   -0.1855242
h     5.0297586    2.6001185    0.4029098  0.00   -0.0150722    0.0079471    0.0033493
h     3.6516869    4.2234997    0.0912855  0.00   -0.0494750   -0.0356304   -0.0093883
h     2.4437338    3.1280566   -0.4813918  0.00    0.0928907    0.3796425    0.3932397
h    -2.3721687    3.0608751   -0.2720791  0.00   -0.0009104    0.0004220   -0.0001509
h    -2.1681723    0.5920801   -0.1380882  0.00   -0.0033399    0.0014688    0.0000278
h    -0.3621970    4.4778568   -0.3566258  0.00    0.0000882    0.0010539   -0.0002608
h     1.9164812    3.5414913   -0.2667327  0.00   -0.0698589   -0.5298821   -0.3135444
h     2.2929972   -1.6414182   -0.0117585  0.00   -0.0244357   -0.0141960    0.0011073
o     4.3176038    2.6895763    3.0182581  0.00   -0.0600368   -0.1166251   -0.1507102
o     3.6667881    0.5731693    2.3323978  0.00   -0.0839914    0.0397805   -0.0914109
h     4.6034944    0.1455131    2.5200591  0.00    0.0667576   -0.0077976   -0.0078652
    27
 Energy =       0.4224521582
c    -1.3934117    2.5983912   -0.2983498  0.00   -0.0298105    0.0262393    0.0022894
c    -1.2883354    1.2163795   -0.2600335  0.00   -0.0549587   -0.0226591    0.0017130
c    -0.0230629    0.6641891   -0.2736190  0.00   -0.0578373   -0.1050000   -0.0053773
c    -0.2633215    3.3977944   -0.3312990  0.00   -0.0119082    0.0447015    0.0027257
c     1.0072902    2.8358921   -0.3385424  0.00    0.2219965    0.2959290    0.1424214
c     1.1123317    1.4320049   -0.3040338  0.00    0.0836920    0.0981077   -0.0027989
n     0.3509132   -0.6761666   -0.1225822  0.00    0.0911440    0.0573837    0.0037685
c     2.2288838    0.5807545   -0.2392766  0.00    0.1040707   -0.0510084   -0.0147201
c     1.7481048   -0.7006231   -0.1541299  0.00   -0.0609189   -0.0569713    0.0005217
h    -0.2799347   -1.4848531   -0.0426757  0.00    0.0182800    0.0232467    0.0004320
c     3.6769729    1.0240151   -0.2370414  0.00   -0.0021346    0.0079657    0.0540567
c     3.9984318    2.2620183    0.6315682  0.00    0.0315296   -0.0646410   -0.0726403
h     3.9652944    1.2400550   -1.2802672  0.00   -0.0000507   -0.0035339    0.0068875
h     4.3064211    0.1757356    0.0837502  0.00   -0.0079394    0.0078936    0.0079983
c     3.9807382    1.8758856    2.1114673  0.00    0.0691869    0.1189288    0.2149742
n     3.0637543    3.4150491    0.4063389  0.00   -0.2537770   -0.1153011   -0.1760551
h     5.0297995    2.5950412    0.4233358  0.00   -0.0142675    0.0075254    0.0031778
h     3.6591428    4.2265840    0.1231530  0.00   -0.0469105   -0.0337917   -0.0089070
h     2.4440875    3.1294798   -0.4515426  0.00    0.0880288    0.3598426    0.3731806
h    -2.3778461    3.0610801   -0.2787562  0.00   -0.0009376    0.0003629   -0.0001394
h    -2.1741762    0.5897716   -0.1984133  0.00   -0.0037219    0.0009081    0.0000849
h    -0.3686076    4.4805391   -0.3215527  0.00    0.0001060    0.0010363   -0.0002481
h     1.9151378    3.5559348   -0.2391088  0.00   -0.0661531   -0.5023323   -0.2978072
h     2.2936254   -1.6355158   -0.0538372  0.00   -0.0233840   -0.0137759    0.0011483
o     4.3279277    2.6782126    3.0466543  0.00   -0.0568889   -0.1106341   -0.1428357
o     3.7103677    0.5515314    2.3490255  0.00   -0.0800493    0.0371237   -0.0863937
h     4.6515873    0.1416862    2.5449288  0.00    0.0636135   -0.0075461   -0.0074569
    27
 Energy =       0.3405944906
c    -1.3883168    2.6212214   -0.2817853  0.00   -0.0157322    0.0142304    0.0013889
c    -1.2831950    1.2510713   -0.2524370  0.00   -0.0303846   -0.0132080    0.0011342
c    -0.0330751    0.7031158   -0.2409330  0.00   -0.0291349   -0.0478452   -0.0007032
c    -0.2626456    3.4128152   -0.3033569  0.00   -0.0063276    0.0237909    0.0016283
c     0.9987043    2.8557190   -0.2968684  0.00    0.1338585    0.1701690    0.0916855
c     1.0880886    1.4625260   -0.2505905  0.00    0.0462837    0.0578938   -0.0008132
n     0.3118853   -0.6668750   -0.2034864  0.00    0.0487083    0.0235576   -0.0015523
c     2.1859229    0.6257579   -0.2130859  0.00    0.0563617   -0.0262974   -0.0071512
c     1.7264279   -0.6532072   -0.1749936  0.00   -0.0317733   -0.0274395    0.0023614
h    -0.3235114   -1.4894240   -0.2014288  0.00    0.0072205    0.0087203   -0.0006830
c     3.6437860    1.0462870   -0.2728385  0.00   -0.0032607    0.0051018    0.0299102
c     4.0038038    2.2228547    0.6693835  0.00    0.0170241   -0.0347825   -0.0370875
h     3.8770555    1.3341441   -1.3198459  0.00   -0.0003084   -0.0007580    0.0000663
h     4.2876693    0.1737742   -0.0306235  0.00   -0.0022066    0.0020229    0.0059496
c     3.9569450    1.7626503    2.1253964  0.00    0.0389175    0.0671445    0.1160292
n     3.1320717    3.4153084    0.4338718  0.00   -0.1534203   -0.0715145   -0.1057904
h     5.0622017    2.5032913    0.4887490  0.00   -0.0059352    0.0046141    0.0022163
h     3.7673773    4.2116784    0.1900469  0.00   -0.0264826   -0.0191501   -0.0051313
h     2.5061595    3.1421181   -0.4816977  0.00    0.0558378    0.2111071    0.2279651
h    -2.3727136    3.0842389   -0.2832263  0.00   -0.0007491    0.0002399   -0.0000539
h    -2.1682810    0.6207333   -0.2332510  0.00   -0.0028265   -0.0000137    0.0000503
h    -0.3678824    4.4954381   -0.3122602  0.00   -0.0000075    0.0007538   -0.0002878
h     1.9292518    3.6602169   -0.2534569  0.00   -0.0429057   -0.2900133   -0.1936071
h     2.3174530   -1.5658443   -0.1274942  0.00   -0.0121775   -0.0096696    0.0011332
o     4.2989327    2.5544282    3.1385484  0.00   -0.0310561   -0.0614037   -0.0750361
o     3.7469359    0.4119412    2.3395713  0.00   -0.0545777    0.0202326   -0.0483029
h     4.6610645    0.0348873    2.6432534  0.00    0.0450544   -0.0074834   -0.0053184
    27
 Energy =       0.3320040858
c    -1.3645241    2.6666923   -0.3872307  0.00   -0.0150880    0.0137490    0.0012915
c    -1.2855786    1.2965871   -0.3250058  0.00   -0.0286968   -0.0123495    0.0010843
c    -0.0477799    0.7257819   -0.2728851  0.00   -0.0271968   -0.0436660   -0.0007128
c    -0.2238513    3.4358943   -0.4016294  0.00   -0.0065160    0.0227110    0.0014921
c     1.0263255    2.8555470   -0.3541605  0.00    0.1234822    0.1578510    0.0843403
c     1.0871484    1.4626609   -0.2705282  0.00    0.0421972    0.0534939   -0.0007800
n     0.2655244   -0.6507163   -0.1910645  0.00    0.0445869    0.0209762   -0.0014922
c     2.1656229    0.6051863   -0.1775589  0.00    0.0527160   -0.0250399   -0.0061523
c     1.6805311   -0.6631204   -0.1200220  0.00   -0.0282142   -0.0260073    0.0023164
h    -0.3881335   -1.4598277   -0.1878627  0.00    0.0063984    0.0077142   -0.0006422
c     3.6356831    0.9835176   -0.2110403  0.00   -0.0028590    0.0043418    0.0279847
c     4.0101773    2.1831638    0.6953096  0.00    0.0160544   -0.0322366   -0.0351651
h     3.9035844    1.2275243   -1.2624391  0.00    0.0002609   -0.0003127   -0.0013129
h     4.2491077    0.1009787    0.0781135  0.00   -0.0012045    0.0005039    0.0056529
c     3.9505188    1.7840419    2.1682762  0.00    0.0351239    0.0626212    0.1057765
n     3.1643860    3.3819079    0.4180650  0.00   -0.1422647   -0.0653520   -0.0971723
h     5.0750837    2.4362893    0.5086792  0.00   -0.0051324    0.0044050    0.0017626
h     3.8183757    4.1688857    0.1902900  0.00   -0.0239553   -0.0173046   -0.0047942
h     2.5502738    3.1122631   -0.5118647  0.00    0.0519107    0.1961573    0.2106404
h    -2.3401385    3.1481990   -0.4200303  0.00   -0.0013178    0.0006229   -0.0000701
h    -2.1826483    0.6831065   -0.3105547  0.00   -0.0028319   -0.0001319    0.0000512
h    -0.3085085    4.5202938   -0.4340260  0.00   -0.0001781    0.0012076   -0.0002794
h     1.9724015    3.6489533   -0.2890499  0.00   -0.0396798   -0.2683705   -0.1792267
h     2.2553474   -1.5845248   -0.0337969  0.00   -0.0106213   -0.0097085    0.0011490
o     4.2838736    2.6330468    3.1456524  0.00   -0.0279625   -0.0547796   -0.0672164
o     3.7248611    0.4474771    2.4495178  0.00   -0.0523452    0.0171390   -0.0442931
h     4.6244522    0.0810571    2.8020065  0.00    0.0433337   -0.0082348   -0.0042324
    27
 Energy =       0.3239188543
c    -1.3340166    2.7208385   -0.4906273  0.00   -0.0142494    0.0130870    0.0011538
c    -1.2861185    1.3519382   -0.3958566  0.00   -0.0266296   -0.0113934    0.0010109
c    -0.0640033    0.7557042   -0.3042710  0.00   -0.0247921   -0.0390181   -0.0007400
c    -0.1767001    3.4640512   -0.4988526  0.00   -0.0064980    0.0213824    0.0013097
c     1.0590158    2.8579855   -0.4117342  0.00    0.1114053    0.1436473    0.0759370
c     1.0857460    1.4665513   -0.2915656  0.00    0.0375424    0.0482245   -0.0007337
n     0.2121799   -0.6265045   -0.1794042  0.00    0.0400673    0.0180623   -0.0013727
c     2.1405114    0.5875416   -0.1465016  0.00    0.0481947   -0.0233016   -0.0051745
c     1.6263110   -0.6676007   -0.0704450  0.00   -0.0245816   -0.0242689    0.0022497
h    -0.4616809   -1.4200373   -0.1735765  0.00    0.0054389    0.0065508   -0.0005849
c     3.6224580    0.9207384   -0.1524358  0.00   -0.0021736    0.0036223    0.0257453
c     4.0156145    2.1359406    0.7252628  0.00    0.0148591   -0.0295470   -0.0324058
h     3.9228020    1.1255582   -1.2046004  0.00    0.0007674    0.0000201   -0.0023033
h     4.2028532    0.0279633    0.1765794  0.00   -0.0004009   -0.0007244    0.0053330
c     3.9416486    1.7885398    2.2102089  0.00    0.0311669    0.0568773    0.0945577
n     3.2005142    3.3436048    0.4095271  0.00   -0.1291255   -0.0587219   -0.0872383
h     5.0876463    2.3584861    0.5361938  0.00   -0.0042053    0.0040924    0.0013129
h     3.8749709    4.1210594    0.2051740  0.00   -0.0208356   -0.0150467   -0.0043626
h     2.6032259    3.0760971   -0.5393420  0.00    0.0475010    0.1787857    0.1909357
h    -2.2983627    3.2228578   -0.5539744  0.00   -0.0018453    0.0009989   -0.0001053
h    -2.1965855    0.7582068   -0.3855388  0.00   -0.0028383   -0.0002862    0.0000520
h    -0.2369898    4.5495262   -0.5555492  0.00   -0.0003254    0.0017136   -0.0002845
h     2.0253836    3.6397348   -0.3317905  0.00   -0.0363193   -0.2432882   -0.1630746
h     2.1819383   -1.5977183    0.0521614  0.00   -0.0090384   -0.0095564    0.0011664
o     4.2623232    2.6854033    3.1575632  0.00   -0.0248560   -0.0480293   -0.0593276
o     3.7056553    0.4662017    2.5477961  0.00   -0.0502608    0.0153340   -0.0405211
h     4.5857751    0.1181988    2.9607596  0.00    0.0420321   -0.0092165   -0.0025353
    27
 Energy =       0.3171260722
c    -1.2943853    2.7915816   -0.5979537  0.00   -0.0134616    0.0125210    0.0009586
c    -1.2864959    1.4253770   -0.4674303  0.00   -0.0245575   -0.0105377    0.0009242
c    -0.0852713    0.7978797   -0.3349584  0.00   -0.0222002   -0.0342022   -0.0008070
c    -0.1166623    3.5015974   -0.6020408  0.00   -0.0063750    0.0201910    0.0010668
c     1.0994827    2.8639823   -0.4741862  0.00    0.0984548    0.1288404    0.0670318
c     1.0825471    1.4756419   -0.3143750  0.00    0.0325581    0.0424759   -0.0006597
n     0.1441684   -0.5892745   -0.1638900  0.00    0.0354628    0.0147736   -0.0011601
c     2.1066254    0.5710790   -0.1168069  0.00    0.0434187   -0.0213726   -0.0041727
c     1.5558582   -0.6664005   -0.0198705  0.00   -0.0209783   -0.0226340    0.0022076
h    -0.5543540   -1.3625821   -0.1522815  0.00    0.0042770    0.0051587   -0.0005099
c     3.6005819    0.8511946   -0.0949607  0.00   -0.0012343    0.0029258    0.0233395
c     4.0202745    2.0755191    0.7588377  0.00    0.0135333   -0.0267301   -0.0291299
h     3.9312428    1.0186170   -1.1455693  0.00    0.0012521    0.0002936   -0.0030236
h     4.1430877   -0.0538706    0.2677289  0.00    0.0002790   -0.0018147    0.0049967
c     3.9359458    1.7723980    2.2525125  0.00    0.0272998    0.0504271    0.0831107
n     3.2398038    3.2944986    0.4100417  0.00   -0.1148669   -0.0526076   -0.0763793
h     5.0989572    2.2640326    0.5662002  0.00   -0.0031949    0.0037404    0.0008836
h     3.9353398    4.0644836    0.2437983  0.00   -0.0168908   -0.0122341   -0.0038090
h     2.6683044    3.0291273   -0.5648794  0.00    0.0430541    0.1606668    0.1706525
h    -2.2433520    3.3187359   -0.6930273  0.00   -0.0024531    0.0014637   -0.0001760
h    -2.2134356    0.8571924   -0.4597390  0.00   -0.0029510   -0.0005331    0.0000555
h    -0.1455233    4.5871772   -0.6865221  0.00   -0.0004573    0.0024483   -0.0003258
h     2.0939322    3.6296899   -0.3865786  0.00   -0.0333453   -0.2166116   -0.1470329
h     2.0860806   -1.6068810    0.1396163  0.00   -0.0074280   -0.0094696    0.0012202
o     4.2369662    2.7121046    3.1736997  0.00   -0.0218288   -0.0413032   -0.0515691
o     3.7027733    0.4622041    2.6382822  0.00   -0.0487969    0.0143922   -0.0376050
h     4.5596235    0.1457616    3.1195127  0.00    0.0414301   -0.0102681   -0.0000877
    27
 Energy =       0.3138472644
c    -1.2376657    2.9046621   -0.7189610  0.00   -0.0134233    0.0127528    0.0005959
c    -1.2913796    1.5438934   -0.5444362  0.00   -0.0234435   -0.0103249    0.0008520
c    -0.1225095    0.8693948   -0.3663610  0.00   -0.0199623   -0.0296791   -0.0010048
c    -0.0295648    3.5632148   -0.7233798  0.00   -0.0062167    0.0202196    0.0006450
c     1.1558091    2.8780722   -0.5508586  0.00    0.0855251    0.1156862    0.0580330
c     1.0726459    1.4960095   -0.3417004  0.00    0.0273261    0.0366560   -0.0005322
n     0.0371964   -0.5218748   -0.1391740  0.00    0.0310931    0.0106947   -0.0007569
c     2.0501163    0.5528708   -0.0844178  0.00    0.0394582   -0.0197059   -0.0029074
c     1.4431954   -0.6559532    0.0403642  0.00   -0.0174932   -0.0221838    0.0024058
h    -0.6978629   -1.2626594   -0.1163817  0.00    0.0024055    0.0030433   -0.0003928
c     3.5581071    0.7559312   -0.0326307  0.00    0.0003219    0.0021817    0.0209436
c     4.0246281    1.9828231    0.7964303  0.00    0.0123028   -0.0236273   -0.0258892
h     3.9190945    0.8798053   -1.0803888  0.00    0.0019776    0.0006097   -0.0038208
h     4.0485072   -0.1681113    0.3601432  0.00    0.0011266   -0.0033938    0.0047315
c     3.9506826    1.7190511    2.2978309  0.00    0.0239871    0.0447585    0.0726623
n     3.2813001    3.2166508    0.4278159  0.00   -0.1006720   -0.0503140   -0.0641640
h     5.1070666    2.1316627    0.5857004  0.00   -0.0019363    0.0033798    0.0004278
h     3.9958240    3.9861826    0.3348381  0.00   -0.0102284   -0.0073528   -0.0028120
h     2.7563454    2.9572891   -0.5877203  0.00    0.0394100    0.1454635    0.1532470
h    -2.1619327    3.4693698   -0.8493287  0.00   -0.0035574    0.0023488   -0.0003624
h    -2.2427485    1.0159455   -0.5360984  0.00   -0.0036290   -0.0011268    0.0000744
h    -0.0099258    4.6469927   -0.8435756  0.00   -0.0005360    0.0040796   -0.0005016
h     2.1963349    3.6116158   -0.4660834  0.00   -0.0322439   -0.1910030   -0.1355533
h     1.9317680   -1.6128284    0.2422583  0.00   -0.0056739   -0.0102280    0.0014831
o     4.2221016    2.7025765    3.1911878  0.00   -0.0190867   -0.0347332   -0.0445978
o     3.7536828    0.4159600    2.7282311  0.00   -0.0482552    0.0127417   -0.0355853
h     4.5912994    0.1523199    3.2718567  0.00    0.0414241   -0.0109433    0.0027789
    27
 Energy =       0.3083413047
c    -1.2780801    2.7883299   -0.6734855  0.00   -0.0144173    0.0133982    0.0004257
c    -1.2769719    1.4230385   -0.5177031  0.00   -0.0243348   -0.0109806    0.0008569
c    -0.0798401    0.7924073   -0.3543260  0.00   -0.0201457   -0.0293590   -0.0010906
c    -0.0966409    3.4944263   -0.6712298  0.00   -0.0061707    0.0214872    0.0004569
c     1.1158621    2.8538429   -0.5117912  0.00    0.0833989    0.1142678    0.0563512
c     1.0905965    1.4666675   -0.3266451  0.00    0.0263906    0.0355257   -0.0003962
n     0.1393472   -0.5966856   -0.1523668  0.00    0.0302670    0.0094821   -0.0006764
c     2.1082623    0.5620086   -0.0951086  0.00    0.0397118   -0.0195472   -0.0024020
c     1.5524860   -0.6740191    0.0152772  0.00   -0.0167066   -0.0232270    0.0026665
h    -0.5639197   -1.3692215   -0.1374511  0.00    0.0012849    0.0017279   -0.0003597
c     3.6072541    0.8342518   -0.0575157  0.00    0.0012587    0.0022725    0.0198173
c     4.0218237    2.0705762    0.7843108  0.00    0.0123791   -0.0227417   -0.0259953
h     3.9564487    0.9846851   -1.1060856  0.00    0.0023274    0.0007769   -0.0041015
h     4.1404857   -0.0698865    0.3287704  0.00    0.0018004   -0.0043998    0.0047379
c     3.8964777    1.8041628    2.2827843  0.00    0.0239915    0.0464520    0.0720048
n     3.2694751    3.2927057    0.3906848  0.00   -0.0987447   -0.0545954   -0.0603526
h     5.1098881    2.2375967    0.6144725  0.00   -0.0008059    0.0030480    0.0003114
h     3.9842464    4.0518935    0.2172300  0.00   -0.0053340   -0.0029195   -0.0031653
h     2.6973113    3.0176473   -0.5901714  0.00    0.0393691    0.1465435    0.1537370
h    -2.2249007    3.3186072   -0.7928883  0.00   -0.0043577    0.0028368   -0.0004676
h    -2.2072781    0.8571924   -0.5140039  0.00   -0.0044514   -0.0016788    0.0000842
h    -0.1202176    4.5810114   -0.7740002  0.00   -0.0005289    0.0052014   -0.0006029
h     2.1099930    3.6324121   -0.4125455  0.00   -0.0348060   -0.1873585   -0.1381905
h     2.0821112   -1.6132361    0.1988349  0.00   -0.0050771   -0.0112528    0.0017055
o     4.1810017    2.7733393    3.1879584  0.00   -0.0188798   -0.0341591   -0.0442564
o     3.6332195    0.5077124    2.7048060  0.00   -0.0496323    0.0104709   -0.0345751
h     4.4536744    0.2094006    3.2573490  0.00    0.0422133   -0.0112716    0.0034767
    27
 Energy =       0.3048252082
c    -1.2817288    2.7261277   -0.6769627  0.00   -0.0144013    0.0132688    0.0003846
c    -1.2552625    1.3600957   -0.5300968  0.00   -0.0240974   -0.0109384    0.0008434
c    -0.0467060    0.7512515   -0.3659761  0.00   -0.0198435   -0.0288004   -0.0010854
c    -0.1140846    3.4542178   -0.6640926  0.00   -0.0060012    0.0213857    0.0004143
c     1.1092179    2.8357209   -0.5022997  0.00    0.0814567    0.1117728    0.0549260
c     1.1103463    1.4479093   -0.3279693  0.00    0.0257855    0.0346714   -0.0003465
n     0.1995120   -0.6352968   -0.1746212  0.00    0.0294667    0.0090964   -0.0006730
c     2.1446393    0.5640838   -0.0987416  0.00    0.0389576   -0.0190997   -0.0022777
c     1.6136226   -0.6839142    0.0005118  0.00   -0.0162486   -0.0230404    0.0026722
h    -0.4877402   -1.4226207   -0.1703422  0.00    0.0009495    0.0013310   -0.0003524
c     3.6374515    0.8711862   -0.0465995  0.00    0.0014363    0.0022936    0.0185601
c     4.0134191    2.1174906    0.7992771  0.00    0.0123437   -0.0220894   -0.0258500
h     3.9966207    1.0262942   -1.0910448  0.00    0.0023223    0.0007294   -0.0040890
h     4.1847857   -0.0188897    0.3529397  0.00    0.0020361   -0.0045665    0.0046242
c     3.8307559    1.8635376    2.2952187  0.00    0.0237964    0.0474969    0.0706251
n     3.2717865    3.3340568    0.3668541  0.00   -0.0976207   -0.0549864   -0.0580957
h     5.1077265    2.2874380    0.6717705  0.00    0.0002312    0.0026632    0.0003084
h     3.9927249    4.0743759    0.1390451  0.00   -0.0033152   -0.0005676   -0.0037230
h     2.6787163    3.0395930   -0.5923597  0.00    0.0385909    0.1442025    0.1511268
h    -2.2378299    3.2394228   -0.7973509  0.00   -0.0044472    0.0028810   -0.0004809
h    -2.1747383    0.7765933   -0.5346519  0.00   -0.0045836   -0.0017871    0.0000810
h    -0.1575771    4.5410603   -0.7593175  0.00   -0.0004971    0.0053453   -0.0006112
h     2.0793665    3.6352061   -0.3908969  0.00   -0.0349611   -0.1831886   -0.1364335
h     2.1614258   -1.6125379    0.1835803  0.00   -0.0048687   -0.0112333    0.0017206
o     4.1335623    2.8243988    3.2043296  0.00   -0.0183851   -0.0331148   -0.0434492
o     3.4971820    0.5813101    2.7182488  0.00   -0.0505555    0.0078400   -0.0329954
h     4.2949213    0.2527556    3.2867081  0.00    0.0424532   -0.0115655    0.0041763
    27
 Energy =       0.3007470871
c    -1.3181995    2.6010317   -0.6793230  0.00   -0.0149602    0.0133984    0.0002470
c    -1.2436059    1.2367168   -0.5292927  0.00   -0.0243739   -0.0111739    0.0007933
c    -0.0136468    0.6714282   -0.3589221  0.00   -0.0196235   -0.0282140   -0.0011077
c    -0.1770293    3.3696559   -0.6622219  0.00   -0.0059539    0.0219132    0.0002805
c     1.0664909    2.7947171   -0.4934884  0.00    0.0785642    0.1083908    0.0526638
c     1.1183641    1.4096631   -0.3174393  0.00    0.0248868    0.0331851   -0.0002078
n     0.2830214   -0.7060930   -0.1652181  0.00    0.0280693    0.0081991   -0.0006716
c     2.1837195    0.5670967   -0.0845752  0.00    0.0385431   -0.0186946   -0.0022097
c     1.6987255   -0.7004212    0.0142098  0.00   -0.0151446   -0.0232240    0.0027910
h    -0.3746280   -1.5192831   -0.1622058  0.00    0.0001412    0.0003121   -0.0003361
c     3.6648695    0.9327466   -0.0383512  0.00    0.0020739    0.0022856    0.0175073
c     4.0003347    2.2060783    0.7872153  0.00    0.0126458   -0.0216755   -0.0246398
h     4.0174648    1.0836966   -1.0855242  0.00    0.0022425    0.0007488   -0.0040498
h     4.2437694    0.0690481    0.3762933  0.00    0.0025450   -0.0051609    0.0048379
c     3.8203822    1.9755489    2.2871941  0.00    0.0232568    0.0464126    0.0688553