13
UFF-Energy = 0.0390516
C    -5.1930847    2.3557819   -0.1159464 
C    -4.0174128    1.3736014   -0.1151679 
H    -6.1432610    1.8070340   -0.2919538 
H    -5.0660497    3.1194359   -0.9137408 
H    -5.2641595    2.8743078    0.8656481 
C    -2.6915955    2.0818920    0.1171708 
N    -4.2910493    0.3344154    0.8902170 
H    -3.9361192    0.9039712   -1.1257619 
H    -3.5299430   -0.3856468    0.8569931 
H    -4.2472379    0.7578092    1.8499633 
O    -2.4067770    2.6710570    1.3441931 
O    -1.7625956    2.1623524   -0.9107783 
H    -0.9517747    2.6698231   -0.5792919 
