13
UFF-Energy = 0.0636725
C    -5.3303321    1.9345142   -0.3667792 
C    -3.9800321    1.3288447    0.0372707 
H    -5.3264714    2.2159841   -1.4432190 
H    -5.5462995    2.8426055    0.2379828 
H    -6.1509346    1.2040035   -0.2012210 
C    -2.8238573    2.2800675   -0.2785499 
N    -4.0390894    0.9846324    1.4665216 
H    -3.7979215    0.4091803   -0.5708481 
H    -4.7547284    0.2331821    1.6126066 
H    -3.1227960    0.5669417    1.7615115 
O    -2.0153336    2.0202573   -1.3777123 
O    -2.5734753    3.4157832    0.4901156 
H    -3.2242589    3.4794028    1.2597352 
