13
UFF-Energy = 0.03901
C    -5.2126561    2.2234993    0.3416532 
C    -4.0269549    1.4147534   -0.1920406 
H    -5.0922653    2.4111333    1.4313173 
H    -6.1569688    1.6597156    0.1831814 
H    -5.2864099    3.2014959   -0.1820235 
C    -2.7100365    2.1552975    0.0041967 
N    -4.0430430    0.0947861    0.4587678 
H    -4.1490384    1.2854123   -1.2942055 
H    -3.2537543   -0.4826201    0.0818153 
H    -3.8354522    0.2162324    1.4806714 
O    -2.1636751    2.8872397   -1.0425137 
O    -2.0643034    2.1385578    1.2345681 
H    -1.2260119    2.7021311    1.1709513 
