13
UFF-Energy = 0.0597139
C    -5.3638307    1.9514481   -0.0268490 
C    -3.9279025    1.4160869   -0.0089744 
H    -5.5485090    2.5967818    0.8595100 
H    -6.0844206    1.1059764   -0.0055448 
H    -5.5442834    2.5565745   -0.9419256 
C    -2.8971974    2.5373986   -0.0630725 
N    -3.7723353    0.5543792    1.1731843 
H    -3.7630885    0.8090650   -0.9325316 
H    -2.8151348    0.1249686    1.1658025 
H    -3.8445004    1.1266807    2.0479102 
O    -1.8183842    2.4392555   -0.9285943 
O    -2.9981319    3.6445328    0.7694480 
H    -2.6900613    3.3888464    1.6949235 
