13
UFF-Energy = 0.0535318
C    -5.1924507    2.2978246   -0.1622718 
C    -4.0200311    1.3016430   -0.1301744 
H    -5.2828816    2.8239495    0.8141597 
H    -6.1467674    1.7706705   -0.3750072 
H    -5.0314037    3.0602890   -0.9562373 
C    -2.6866409    2.0025747    0.0847392 
N    -4.2729213    0.2832801    0.9012210 
H    -3.9284695    0.8009959   -1.1238139 
H    -4.3432729    0.7396527    1.8435308 
H    -5.1844997   -0.1972335    0.7148971 
O    -2.4004164    2.6276763    1.2951571 
O    -1.7675516    2.0771670   -0.9548635 
H    -0.9481832    2.5739252   -0.6301026 
