13
UFF-Energy = 0.0640116
C    -5.2932366    1.8878796   -0.2561124 
C    -3.8519199    1.3940593   -0.0283026 
H    -5.7409441    2.2075467    0.7112585 
H    -5.9232236    1.0849991   -0.6932544 
H    -5.3098015    2.7547414   -0.9534375 
C    -2.9390179    2.5261754    0.4756567 
N    -3.8949515    0.2503785    0.9021182 
H    -3.4263692    1.0747433   -1.0087115 
H    -4.6730098   -0.4048655    0.6477611 
H    -3.0270187   -0.3233153    0.7874660 
O    -3.3017400    3.8505077    0.2512309 
O    -1.6941266    2.2801611    1.0558005 
H    -1.5336905    1.2983210    1.2081447 
