    13
 Energy =      16.5578470367
c    -3.7133889    1.6950595    0.3173519  0.00    0.0049502   -0.0369427   -0.0198360
c    -2.4962693    2.6345192    0.2419999  0.00    0.0694280    0.3382214    0.0944190
c    -4.9565486    2.3924193   -0.2155699  0.00    0.0119522    0.0212869    0.0105481
h    -5.8072983    1.7014095   -0.2223689  0.00    0.0088305    0.0133205   -0.0004002
h    -4.8071186    2.7393792   -1.2437896  0.00   -0.0067461   -0.0030224    0.0167340
h    -5.2375685    3.2516891    0.4029209  0.00   -0.0013163   -0.0140980   -0.0116986
n    -3.4097890    0.4519539   -0.4549189  0.00    0.8361991    0.2800137   -0.1064958
h    -3.8575589    1.4177196    1.3669296  0.00    0.0075955   -0.0098322   -0.0248390
h    -2.5963493    0.6418898   -1.0496997  0.00  151.0979263   94.7034554   71.4579296
h    -3.0749291   -0.2623099    0.1989099  0.00    0.0104353    0.0531078   -0.0386271
o    -2.4571893    3.7760389    0.6681628  0.00   -0.0122992   -0.2669344   -0.1029506
o    -1.4389296    2.0221094   -0.3549299  0.00   -0.2290129   -0.2430816   -0.0854932
h    -1.7862895    1.1491097   -0.6669268  0.00 -151.7979425  -94.8354944  -71.1892902
    13
 Energy =       1.5953992336
c    -3.7133918    1.6950811    0.3173635  0.00   -0.0167470   -0.0356287   -0.0054984
c    -2.4963098    2.6343219    0.2419448  0.00    0.0752566    0.3544469    0.1020588
c    -4.9565556    2.3924069   -0.2155761  0.00    0.0121755    0.0205730    0.0101856
h    -5.8073035    1.7014017   -0.2223687  0.00    0.0086687    0.0134534   -0.0003006
h    -4.8071147    2.7393810   -1.2437994  0.00   -0.0068629   -0.0026622    0.0167737
h    -5.2375677    3.2516973    0.4029277  0.00   -0.0013008   -0.0139595   -0.0116056
n    -3.4102770    0.4517905   -0.4548567  0.00    0.5179049    0.1414701   -0.1034972
h    -3.8575633    1.4177253    1.3669441  0.00    0.0077558   -0.0096637   -0.0245231
h    -2.6845217    0.5866261   -1.0913986  0.00   11.5190842    7.2764256    5.5682862
h    -3.0749352   -0.2623409    0.1989325  0.00    0.0017937    0.0473738   -0.0321406
o    -2.4571821    3.7761947    0.6682229  0.00   -0.0128119   -0.2661145   -0.1020433
o    -1.4387960    2.0222513   -0.3548800  0.00   -0.2263753   -0.3080862   -0.0904041
h    -1.6977086    1.2044504   -0.6253847  0.00  -11.8785412   -7.2176279   -5.3272915
    13
 Energy =       1.3179658367
c    -3.7117938    1.7052436    0.3502710  0.00   -0.0170853   -0.0249934   -0.0010344
c    -2.4428837    2.5837929    0.2010449  0.00    0.0562099    0.2807355    0.0837631
c    -4.9400664    2.4407830   -0.1715738  0.00    0.0109434    0.0155036    0.0099602
h    -5.7916896    1.7464619   -0.2592940  0.00    0.0049971    0.0083713   -0.0008523
h    -4.7581116    2.8699728   -1.1711987  0.00   -0.0047306   -0.0004064    0.0096757
h    -5.2342535    3.2538372    0.5103069  0.00   -0.0010587   -0.0091185   -0.0070831
n    -3.4994799    0.4106455   -0.3912360  0.00    0.3925342    0.1040534   -0.0616942
h    -3.8375827    1.4783316    1.4190998  0.00    0.0055210   -0.0075952   -0.0183268
h    -2.8047921    0.5267297   -1.1945696  0.00    9.4733553    5.9758164    4.5281982
h    -3.0777093   -0.2666380    0.2712746  0.00    0.0055286    0.0348715   -0.0193233
o    -2.2984290    3.7662983    0.5994504  0.00   -0.0063093   -0.2057855   -0.0818048
o    -1.4348850    1.9395817   -0.4617927  0.00   -0.1736466   -0.2440428   -0.0764793
h    -1.8075503    1.1559469   -0.7137116  0.00   -9.7462590   -5.9274099   -4.3649990
    13
 Energy =       0.9874479887
c    -3.6975966    1.6999528    0.2961772  0.00   -0.0099309   -0.0180184   -0.0044462
c    -2.4781362    2.6095198    0.2161160  0.00    0.0342294    0.1972579    0.0603825
c    -4.9603802    2.4159506   -0.1759560  0.00    0.0082287    0.0108837    0.0080853
h    -5.7876825    1.6911517   -0.2850811  0.00    0.0029635    0.0052984    0.0007039
h    -4.8032508    2.9096004   -1.1545249  0.00   -0.0034859    0.0013134    0.0058101
h    -5.2727293    3.1814124    0.5606972  0.00   -0.0014305   -0.0049934   -0.0021761
n    -3.4580989    0.4642974   -0.4988285  0.00    0.2812774    0.1004265   -0.0621576
h    -3.8168253    1.4213950    1.3601701  0.00    0.0040549   -0.0062410   -0.0119062
h    -2.6702683    0.5214581   -1.1599022  0.00    7.2055456    4.5500509    3.4372695
h    -3.2143847   -0.3138676    0.1722277  0.00    0.0136136    0.0051451    0.0064813
o    -2.4571821    3.8192984    0.6877792  0.00   -0.0077959   -0.1385149   -0.0548515
o    -1.3736052    2.0260112   -0.3539956  0.00   -0.1171137   -0.1633615   -0.0534472
h    -1.6490870    1.1648070   -0.6768079  0.00   -7.4101561   -4.5392468   -3.3297478
    13
 Energy =       0.5772671889
c    -3.6863904    1.6848382    0.2741937  0.00   -0.0032620   -0.0088013   -0.0025639
c    -2.5097366    2.6408874    0.2444239  0.00    0.0136982    0.0868786    0.0271093
c    -4.9749926    2.3593966   -0.1966818  0.00    0.0037480    0.0057697    0.0039744
h    -5.7845421    1.6075195   -0.2886519  0.00    0.0011043    0.0019004    0.0000754
h    -4.8296655    2.8359419   -1.1883038  0.00   -0.0017694    0.0012993    0.0030836
h    -5.2967903    3.1346431    0.5296616  0.00   -0.0008133   -0.0027047   -0.0001786
n    -3.4208151    0.5015457   -0.5671538  0.00    0.1632655    0.0802814   -0.0511086
h    -3.8108214    1.3729345    1.3342424  0.00    0.0015836   -0.0030516   -0.0048265
h    -2.5567124    0.5541952   -1.0982919  0.00    4.2701774    2.7038941    2.0355367
h    -3.3441779   -0.3562449    0.0640256  0.00    0.0092456   -0.0166830    0.0201902
o    -2.6138933    3.8837120    0.7660442  0.00   -0.0099042   -0.0557594   -0.0206415
o    -1.3203555    2.1698043   -0.2838373  0.00   -0.0516990   -0.0630610   -0.0268225
h    -1.4903339    1.2218139   -0.6015996  0.00   -4.3953747   -2.7299626   -1.9838279
    13
 Energy =       0.3105541968
c    -3.6829876    1.6698986    0.2772064  0.00   -0.0017477   -0.0030509   -0.0012933
c    -2.5164399    2.6492955    0.2603936  0.00    0.0042446    0.0118875    0.0113247
c    -4.9851652    2.3203900   -0.1922902  0.00    0.0049814    0.0002880    0.0036075
h    -5.8103529    1.5704281   -0.1748198  0.00   -0.0034972   -0.0035588    0.0005660
h    -4.8724260    2.6957063   -1.2381987  0.00    0.0001447    0.0023946   -0.0047787
h    -5.2592329    3.1736858    0.4735556  0.00   -0.0005001    0.0031817    0.0039236
n    -3.4193447    0.4998474   -0.5795368  0.00    0.0813647    0.0378897   -0.0237061
h    -3.8038750    1.3513544    1.3375668  0.00    0.0007525   -0.0012719   -0.0019692
h    -2.5328070    0.5899012   -1.0953457  0.00    2.3815593    1.5091576    1.1308605
h    -3.3684155   -0.3725292    0.0176239  0.00    0.0041803   -0.0073372    0.0089340
o    -2.7150066    3.9803442    0.6072911  0.00   -0.0146352    0.0054531   -0.0041902
o    -1.2568207    2.1960066   -0.1278222  0.00   -0.0053440   -0.0216260   -0.0085291
h    -1.4163531    1.2866584   -0.5775528  0.00   -2.4515032   -1.5334075   -1.1147496
    13
 Energy =       0.2143499760
c    -3.6882347    1.6536094    0.2712004  0.00   -0.0011535   -0.0024611   -0.0008177
c    -2.5147976    2.6299428    0.3037179  0.00    0.0032606    0.0022186    0.0051252
c    -4.9797553    2.3288148   -0.1941765  0.00    0.0031833    0.0002672    0.0022641
h    -5.8131926    1.5897849   -0.1926962  0.00   -0.0024675   -0.0026009    0.0005227
h    -4.8572891    2.7169068   -1.2324609  0.00   -0.0000438    0.0016526   -0.0032158
h    -5.2478126    3.1742601    0.4817840  0.00   -0.0003760    0.0021490    0.0028138
n    -3.4320488    0.5054844   -0.6179256  0.00    0.0557873    0.0256566   -0.0168347
h    -3.8264749    1.3043779    1.3209149  0.00    0.0005789   -0.0011642   -0.0006966
h    -2.5474859    0.6164288   -1.1436419  0.00    1.7148469    1.0859746    0.8125340
h    -3.3762562   -0.3825674   -0.0485378  0.00    0.0028743   -0.0055337    0.0063288
o    -2.6998291    3.9311076    0.7660442  0.00   -0.0106549    0.0119510   -0.0000485
o    -1.2536966    2.2124845   -0.1131439  0.00   -0.0027453   -0.0133828   -0.0046843
h    -1.4023535    1.3303526   -0.6130074  0.00   -1.7630903   -1.1047268   -0.8032911
    13
 Energy =       0.1720417292
c    -3.7193856    1.6608208    0.2737826  0.00    0.0010572   -0.0030159   -0.0007310
c    -2.5113931    2.5952866    0.3647085  0.00    0.0044973    0.0006819    0.0026663
c    -4.9493633    2.3748874   -0.3056623  0.00   -0.0015479    0.0016515    0.0026105
h    -5.8127976    1.6704682   -0.3376776  0.00   -0.0035950   -0.0027717    0.0007794
h    -4.7391745    2.7223040   -1.3479615  0.00    0.0007461    0.0029249   -0.0068106
h    -5.2301221    3.2532997    0.3230309  0.00   -0.0016506    0.0029888    0.0030817
n    -3.4511521    0.4736415   -0.5606008  0.00    0.0474355    0.0205830   -0.0160553
h    -3.9508071    1.3496549    1.3238841  0.00   -0.0006705   -0.0023718    0.0040017
h    -2.5605930    0.5652678   -1.0835353  0.00    1.4262804    0.9027559    0.6753318
h    -3.3974499   -0.3890058    0.0469714  0.00    0.0025191   -0.0061279    0.0059566
o    -2.6674336    3.8833816    0.8702854  0.00   -0.0079991    0.0115662    0.0006398
o    -1.2501696    2.1614545   -0.0333457  0.00   -0.0016051   -0.0105406   -0.0035916
h    -1.3993856    1.2895261   -0.5458085  0.00   -1.4654675   -0.9183241   -0.6678793
    13
 Energy =       0.0812905931
c    -3.7474126    1.6640472    0.2657059  0.00    0.0017275   -0.0042844   -0.0010324
c    -2.5043491    2.5476345    0.4334482  0.00    0.0043476   -0.0036488   -0.0021431
c    -4.9040190    2.4318299   -0.3943654  0.00   -0.0034481    0.0027001    0.0014938
h    -5.8000983    1.7728408   -0.4650240  0.00   -0.0035284   -0.0023425    0.0006437
h    -4.6180766    2.7477347   -1.4274925  0.00    0.0009214    0.0025768   -0.0059038
h    -5.1740502    3.3343756    0.2012112  0.00   -0.0016771    0.0019919    0.0015587
n    -3.4988792    0.4536482   -0.5395435  0.00    0.0225154    0.0109881   -0.0078322
h    -4.0614967    1.3756287    1.3018003  0.00   -0.0012010   -0.0026175    0.0049208
h    -2.5925359    0.5057196   -1.0505463  0.00    0.8166311    0.5144286    0.3834806
h    -3.4871085   -0.3989563    0.0805076  0.00    0.0013204   -0.0039898    0.0033737
o    -2.6271810    3.7997658    1.0290385  0.00   -0.0025133    0.0110705    0.0027310
o    -1.2426269    2.1154903    0.0431301  0.00   -0.0007030   -0.0044397   -0.0009727
h    -1.3813929    1.2612285   -0.4897990  0.00   -0.8343924   -0.5224331   -0.3803181
    13
 Energy =       0.0538426900
c    -3.7467165    1.6758756    0.2525986  0.00    0.0013761   -0.0024640   -0.0007377
c    -2.4849800    2.5327633    0.4246668  0.00    0.0022483   -0.0020272   -0.0011981
c    -4.8838794    2.4705228   -0.4063741  0.00   -0.0025462    0.0021952    0.0010034
h    -5.7947752    1.8336487   -0.4793842  0.00   -0.0028890   -0.0019450    0.0004678
h    -4.5893091    2.7793735   -1.4376235  0.00    0.0006967    0.0019590   -0.0044172
h    -5.1324935    3.3790768    0.1885329  0.00   -0.0013330    0.0016845    0.0012358
n    -3.5359770    0.4570661   -0.5518583  0.00    0.0088953    0.0166304   -0.0086853
h    -4.0667382    1.3985881    1.2885940  0.00   -0.0010353   -0.0018063    0.0038311
h    -2.5899295    0.4287317   -0.9976417  0.00    0.6383263    0.3969225    0.2913978
h    -3.6458616   -0.4058887    0.0544330  0.00   -0.0000276   -0.0129098    0.0091925
o    -2.5917940    3.7939680    1.0008112  0.00   -0.0020783    0.0085222    0.0022780
o    -1.2212861    2.0679806    0.0786045  0.00    0.0009511   -0.0035366   -0.0008722
h    -1.3554868    1.1992807   -0.4272880  0.00   -0.6425844   -0.4032250   -0.2934957
    13
 Energy =       0.0384265938
c    -3.7174276    1.6786443    0.2359138  0.00    0.0045538   -0.0014732   -0.0005441
c    -2.4543974    2.5463382    0.3532653  0.00    0.0022014   -0.0019446   -0.0012073
c    -4.9056608    2.4794841   -0.3265857  0.00   -0.0050315    0.0021640    0.0007030
h    -5.8131961    1.8352020   -0.3664679  0.00   -0.0031161   -0.0015937    0.0003694
h    -4.6754859    2.8246497   -1.3646792  0.00    0.0010403    0.0022952   -0.0061563
h    -5.1291427    3.3666030    0.3107340  0.00   -0.0018450    0.0023969    0.0018251
n    -3.5507082    0.4863263   -0.6210477  0.00   -0.0018277    0.0258079   -0.0144272
h    -3.9644261    1.3693230    1.2851258  0.00   -0.0015866   -0.0011748    0.0066802
h    -2.5653732    0.3752972   -0.9719786  0.00    0.5420652    0.3299110    0.2369698
h    -3.8046147   -0.3973178   -0.0739289  0.00   -0.0044435   -0.0272561    0.0169922
o    -2.5583026    3.8382147    0.8613357  0.00   -0.0020364    0.0101027    0.0033935
o    -1.1870145    2.0527521    0.0610043  0.00    0.0021407   -0.0025502   -0.0002520
h    -1.3134773    1.1554704   -0.3946196  0.00   -0.5321145   -0.3366851   -0.2443462
    13
 Energy =      -0.0120579655
c    -3.6886667    1.6700940    0.2164794  0.00    0.0034603    0.0016514    0.0004206
c    -2.4347433    2.5559320    0.2916884  0.00    0.0004416   -0.0000482   -0.0002973
c    -4.9175665    2.4743627   -0.2344734  0.00   -0.0033767    0.0006071   -0.0002869
h    -5.8176187    1.8234859   -0.2467822  0.00   -0.0006307    0.0001021   -0.0000789
h    -4.7546471    2.8606526   -1.2673217  0.00    0.0006677    0.0006536   -0.0028383
h    -5.1087890    3.3333633    0.4478450  0.00   -0.0008656    0.0014036    0.0009631
n    -3.5725122    0.5185686   -0.7010763  0.00   -0.0041114    0.0085451   -0.0075866
h    -3.8610680    1.3148409    1.2628184  0.00   -0.0008098    0.0001984    0.0040227
h    -2.5865690    0.3240300   -0.9847426  0.00    0.1976505    0.1213635    0.0842275
h    -3.9479787   -0.3548525   -0.2326820  0.00   -0.0020004   -0.0139701    0.0080277
o    -2.5541011    3.8584423    0.7534428  0.00   -0.0000252    0.0011313    0.0010788
o    -1.1544292    2.0750963    0.0460379  0.00    0.0006377    0.0007600    0.0006343
h    -1.2405374    1.1569711   -0.3631624  0.00   -0.1910379   -0.1223979   -0.0882869
    13
 Energy =      -0.0108431936
c    -3.7130165    1.6698118    0.2358545  0.00    0.0073878    0.0024472    0.0014278
c    -2.4579613    2.5522510    0.3528834  0.00    0.0001055   -0.0014661   -0.0021010
c    -4.9064334    2.4688113   -0.3188866  0.00   -0.0064145    0.0005645   -0.0002154
h    -5.8127981    1.8267588   -0.3505900  0.00   -0.0010496    0.0001577   -0.0000299
h    -4.6841642    2.8057312   -1.3606011  0.00    0.0010523    0.0014889   -0.0055874
h    -5.1256680    3.3600842    0.3150177  0.00   -0.0018595    0.0029057    0.0020496
n    -3.5656851    0.4716214   -0.6213030  0.00   -0.0168914    0.0192486   -0.0140701
h    -3.9531917    1.3651229    1.2883802  0.00   -0.0011344    0.0001409    0.0077881
h    -2.5960128    0.3661766   -1.0216183  0.00    0.2114688    0.1201151    0.0776235
h    -3.8117603   -0.4152847   -0.0739289  0.00   -0.0069833   -0.0294069    0.0167499
o    -2.5834795    3.8242556    0.8983168  0.00   -0.0006080    0.0056048    0.0032402
o    -1.1759227    2.1057835    0.0505145  0.00    0.0023494    0.0006025    0.0008508
h    -1.2531335    1.2098638   -0.4059679  0.00   -0.1874230   -0.1224029   -0.0877261
    13
 Energy =      -0.0172863868
c    -3.6888122    1.6708856    0.2302808  0.00    0.0069115   -0.0000330    0.0005040
c    -2.4455219    2.5798010    0.2762340  0.00    0.0016995   -0.0027224   -0.0029444
c    -4.9326123    2.4465305   -0.2454625  0.00   -0.0070031    0.0011205    0.0001081
h    -5.8246725    1.7827123   -0.2370446  0.00   -0.0019053   -0.0002723    0.0000848
h    -4.7749484    2.8042116   -1.2929134  0.00    0.0011266    0.0018328   -0.0062827
h    -5.1382918    3.3233243    0.4117877  0.00   -0.0019404    0.0024802    0.0017902
n    -3.5660767    0.4875639   -0.6489681  0.00   -0.0131504    0.0149604   -0.0114526
h    -3.8574595    1.3495420    1.2923776  0.00   -0.0013003   -0.0004183    0.0084179
h    -2.5945277    0.3506522   -1.0244751  0.00    0.1640295    0.0932568    0.0597902
h    -3.8514182   -0.3957560   -0.1237024  0.00   -0.0053210   -0.0234917    0.0132316
o    -2.5807656    3.8852530    0.7395636  0.00   -0.0003350    0.0089223    0.0043066
o    -1.1587058    2.1230007    0.0101187  0.00    0.0021195    0.0012730    0.0013059
h    -1.2254144    1.2032663   -0.3997250  0.00   -0.1449311   -0.0969082   -0.0688599
    13
 Energy =      -0.0235389528
c    -3.6620955    1.6698230    0.2170429  0.00    0.0077192   -0.0004111    0.0005326
c    -2.4268448    2.5916961    0.1979953  0.00    0.0025903   -0.0036288   -0.0037349
c    -4.9481721    2.4404139   -0.1492716  0.00   -0.0083841    0.0010085    0.0005015
h    -5.8294531    1.7635072   -0.1052111  0.00   -0.0022704   -0.0002841    0.0001820
h    -4.8633043    2.8351696   -1.1931712  0.00    0.0010094    0.0022648   -0.0074290
h    -5.1226700    3.2926616    0.5487282  0.00   -0.0022911    0.0027724    0.0022663
n    -3.5827173    0.5189744   -0.7082724  0.00   -0.0119437    0.0137204   -0.0116989
h    -3.7501266    1.3128668    1.2785279  0.00   -0.0010951   -0.0006921    0.0097385
h    -2.6030520    0.3228746   -1.0286947  0.00    0.1240275    0.0686365    0.0424922
h    -3.9492971   -0.3594181   -0.2292922  0.00   -0.0055925   -0.0224757    0.0119836
o    -2.5651080    3.9238350    0.5808105  0.00   -0.0001239    0.0105325    0.0045782
o    -1.1376487    2.1198035   -0.0299949  0.00    0.0019271    0.0016853    0.0016006
h    -1.1987375    1.1787796   -0.3911253  0.00   -0.1055728   -0.0731285   -0.0510126
    13
 Energy =      -0.0304546329
c    -3.6380073    1.6670629    0.1972000  0.00    0.0088294    0.0015788    0.0020957
c    -2.3990194    2.5791470    0.1306605  0.00    0.0020443   -0.0038916   -0.0036785
c    -4.9427959    2.4577882   -0.0423906  0.00   -0.0087721    0.0001051    0.0001648
h    -5.8235176    1.7834502    0.0287533  0.00   -0.0018852   -0.0000187    0.0000367
h    -4.9262774    2.9015967   -1.0698458  0.00    0.0004471    0.0022746   -0.0073547
h    -5.0632151    3.2777937    0.7056455  0.00   -0.0022962    0.0036003    0.0033401
n    -3.6234397    0.5668563   -0.7902744  0.00   -0.0125851    0.0160383   -0.0141718
h    -3.6520544    1.2563814    1.2421506  0.00   -0.0001381   -0.0005875    0.0097085
h    -2.6443640    0.2771933   -1.0353544  0.00    0.0854876    0.0419688    0.0244657
h    -4.1080502   -0.2906823   -0.3799478  0.00   -0.0088130   -0.0249831    0.0116601
o    -2.5249205    3.9320286    0.4357337  0.00   -0.0001322    0.0095965    0.0038527
o    -1.1134325    2.0795438   -0.0589762  0.00    0.0018274    0.0012861    0.0013598
h    -1.1801330    1.1228275   -0.3752831  0.00   -0.0640141   -0.0469678   -0.0314790
    13
 Energy =      -0.0352221789
c    -3.6256895    1.6643219    0.1820764  0.00    0.0078040    0.0029474    0.0037786
c    -2.3615911    2.5365417    0.0891425  0.00    0.0010997   -0.0028964   -0.0021965
c    -4.9146576    2.5026560    0.0484647  0.00   -0.0074331   -0.0002812   -0.0011738
h    -5.8117796    1.8529165    0.1383345  0.00   -0.0016714   -0.0001312   -0.0002408
h    -4.9393516    2.9901695   -0.9568622  0.00   -0.0001745    0.0016655   -0.0054478
h    -4.9662984    3.2935828    0.8355760  0.00   -0.0016815    0.0040958    0.0039561
n    -3.6911191    0.6148159   -0.8556615  0.00   -0.0106462    0.0121984   -0.0131136
h    -3.5983661    1.2026831    1.2025787  0.00    0.0006890   -0.0002797    0.0073033
h    -2.7380277    0.2364008   -1.0684816  0.00    0.0529642    0.0235097    0.0130863
h    -4.2668033   -0.2052388   -0.4981823  0.00   -0.0081240   -0.0207535    0.0083275
o    -2.4448497    3.9014549    0.3455747  0.00   -0.0000875    0.0072656    0.0026363
o    -1.0925827    1.9902092   -0.0880916  0.00    0.0023687    0.0007672    0.0008249
h    -1.1881105    1.0304739   -0.3863971  0.00   -0.0351075   -0.0281077   -0.0177403
    13
 Energy =      -0.0360504259
c    -3.6253456    1.6676097    0.1823054  0.00    0.0074507    0.0032450    0.0077537
c    -2.3078067    2.4579287    0.0497823  0.00   -0.0002984   -0.0027894   -0.0013751
c    -4.8645820    2.5900419    0.1203490  0.00   -0.0085341    0.0011008   -0.0030469
h    -5.7989840    1.9953257    0.2334133  0.00   -0.0035903   -0.0011393   -0.0002919
h    -4.8993865    3.1003597   -0.8725119  0.00   -0.0005830    0.0015320   -0.0047596
h    -4.8333753    3.3668850    0.9252947  0.00   -0.0014541    0.0058492    0.0055981
n    -3.8035152    0.6446636   -0.8718459  0.00   -0.0131153    0.0078123   -0.0151216
h    -3.5850472    1.1838462    1.1909938  0.00    0.0010788   -0.0000889    0.0064456
h    -2.8867324    0.2044421   -1.1180988  0.00    0.0439998    0.0161908    0.0086703
h    -4.4222642   -0.1394011   -0.5099597  0.00   -0.0077069   -0.0190437    0.0068334
o    -2.2966861    3.8277634    0.3064174  0.00    0.0002981    0.0114181    0.0031427
o    -1.0783570    1.8314560   -0.1707269  0.00    0.0081031    0.0013641    0.0008295
h    -1.2371449    0.8800664   -0.4773413  0.00   -0.0256483   -0.0254510   -0.0146782
    13
 Energy =      -0.0382284475
c    -3.6241934    1.6566632    0.1585191  0.00    0.0030350    0.0045207    0.0076503
c    -2.3288988    2.4881915    0.1022357  0.00   -0.0019253   -0.0003641   -0.0012582
c    -4.8840575    2.5446155    0.1050369  0.00   -0.0050377    0.0008071   -0.0015863
h    -5.8032797    1.9226286    0.1864672  0.00   -0.0029671   -0.0012175    0.0000238
h    -4.9155403    3.0859160   -0.8701937  0.00   -0.0001971    0.0011846   -0.0034763
h    -4.8838221    3.2957734    0.9320822  0.00   -0.0009330    0.0043584    0.0040726
n    -3.7324376    0.6802065   -0.9478408  0.00   -0.0074055    0.0068095   -0.0160186
h    -3.6012913    1.1244786    1.1422555  0.00    0.0003964   -0.0005527    0.0054551
h    -2.8102063    0.2181546   -1.1329993  0.00    0.0304470    0.0087491    0.0033186
h    -4.4060225   -0.0921767   -0.6687128  0.00   -0.0099453   -0.0169366    0.0071627
o    -2.3726974    3.8606178    0.3333957  0.00   -0.0002195    0.0091498    0.0025292
o    -1.0732479    1.8919394   -0.0304666  0.00    0.0103496   -0.0006444    0.0001143
h    -1.2035322    0.9339789   -0.3217076  0.00   -0.0155977   -0.0158641   -0.0079870
    13
 Energy =      -0.0387853121
c    -3.6355993    1.6492374    0.1371473  0.00   -0.0000454    0.0054864    0.0062836
c    -2.3267554    2.4586025    0.1716057  0.00   -0.0027137    0.0026865   -0.0006028
c    -4.8774429    2.5572409    0.0868547  0.00   -0.0024595   -0.0001353   -0.0009078
h    -5.8072612    1.9462660    0.1169598  0.00   -0.0028598   -0.0016213    0.0000441
h    -4.8734772    3.1410805   -0.8645198  0.00   -0.0002349    0.0016112   -0.0035855
h    -4.8868769    3.2716827    0.9442587  0.00   -0.0003344    0.0033820    0.0033000
n    -3.7139159    0.7368461   -1.0233660  0.00   -0.0032711    0.0043776   -0.0144340
h    -3.6573414    1.0633167    1.0906393  0.00    0.0003727   -0.0015087    0.0058394
h    -2.7948680    0.2699291   -1.2014396  0.00    0.0167461    0.0049980   -0.0004026
h    -4.4136429   -0.0321097   -0.8166577  0.00   -0.0089016   -0.0138166    0.0055220
o    -2.3603584    3.8319867    0.3864266  0.00   -0.0005044    0.0057238    0.0016879
o    -1.0776610    1.8357780    0.1282865  0.00    0.0120196   -0.0017070    0.0000365
h    -1.2140266    0.8811304   -0.1681242  0.00   -0.0078136   -0.0094765   -0.0027808
    13
 Energy =      -0.0401748756
c    -3.6097828    1.6498145    0.1510573  0.00   -0.0027589    0.0054525    0.0072433
c    -2.3376038    2.5252455    0.0932299  0.00   -0.0051746    0.0054582   -0.0005725
c    -4.8955858    2.5014473    0.1251035  0.00   -0.0029288    0.0001138   -0.0007454
h    -5.7983657    1.8517369    0.2108362  0.00   -0.0050987   -0.0032812    0.0001368
h    -4.9556061    3.0601530   -0.8422301  0.00   -0.0006813    0.0030766   -0.0058346
h    -4.9018351    3.2389671    0.9638233  0.00   -0.0001353    0.0039088    0.0039222
n    -3.6986615    0.6908937   -0.9726966  0.00   -0.0085101    0.0095519   -0.0172812
h    -3.5602973    1.0956819    1.1262464  0.00    0.0009087   -0.0033619    0.0088566
h    -2.8005149    0.1574739   -1.0803816  0.00    0.0180518   -0.0020547   -0.0046158
h    -4.4381384   -0.0378737   -0.7469751  0.00   -0.0117250   -0.0164992    0.0070784
o    -2.4287517    3.8979048    0.3054735  0.00   -0.0002915    0.0083172    0.0021524
o    -1.0566680    1.9710389   -0.0304666  0.00    0.0211315   -0.0020571    0.0000616
h    -1.1574159    1.0085034   -0.3149487  0.00   -0.0027878   -0.0086249   -0.0004018
    13
 Energy =      -0.0421249293
c    -3.5892129    1.6486241    0.1617497  0.00   -0.0035189    0.0038123    0.0064578
c    -2.3499001    2.5656950    0.0609687  0.00   -0.0070272    0.0057358   -0.0003260
c    -4.9003691    2.4618215    0.1456902  0.00   -0.0024436    0.0001711   -0.0007134
h    -5.7832555    1.7898934    0.2550193  0.00   -0.0044137   -0.0030108    0.0000390
h    -4.9915547    3.0092169   -0.8244928  0.00   -0.0006153    0.0027093   -0.0049012
h    -4.9147544    3.2065073    0.9766303  0.00   -0.0000567    0.0030903    0.0030733
n    -3.6641813    0.6655407   -0.9394579  0.00   -0.0137866    0.0190602   -0.0161337
h    -3.5038356    1.1133443    1.1436990  0.00    0.0008830   -0.0032687    0.0073209
h    -2.8033642    0.0528451   -0.9406591  0.00    0.0211865   -0.0126627   -0.0051889
h    -4.4660108   -0.0051721   -0.7440809  0.00   -0.0142157   -0.0160630    0.0078855
o    -2.4761745    3.9278652    0.3186611  0.00   -0.0011552    0.0083757    0.0020786
o    -1.0585076    2.0634702   -0.1519544  0.00    0.0220477   -0.0027197   -0.0001672
h    -1.1381062    1.1113358   -0.4737019  0.00    0.0031158   -0.0052298    0.0005752
    13
 Energy =      -0.0441821523
c    -3.5744378    1.6469731    0.1748207  0.00   -0.0026912    0.0021776    0.0049199
c    -2.3624702    2.5918945    0.0616365  0.00   -0.0080153    0.0033827   -0.0002278
c    -4.9025067    2.4300865    0.1495249  0.00   -0.0015920    0.0001248   -0.0006229
h    -5.7693891    1.7425502    0.2708877  0.00   -0.0027770   -0.0019477   -0.0000467
h    -5.0073791    2.9644932   -0.8239853  0.00   -0.0003974    0.0017221   -0.0029538
h    -4.9330798    3.1816419    0.9719503  0.00    0.0000139    0.0019323    0.0019116
n    -3.6167546    0.6476585   -0.9099941  0.00   -0.0116663    0.0188943   -0.0123261
h    -3.4765858    1.1275316    1.1610202  0.00    0.0006072   -0.0022189    0.0042652
h    -2.7958993   -0.0110044   -0.8173939  0.00    0.0172848   -0.0146888   -0.0032307
h    -4.4619942    0.0226179   -0.7662836  0.00   -0.0125045   -0.0118717    0.0065405
o    -2.5022133    3.9342613    0.4056714  0.00   -0.0026449    0.0094529    0.0024817
o    -1.0783259    2.1325402   -0.2573286  0.00    0.0190648   -0.0035279   -0.0004045
h    -1.1581912    1.1997427   -0.6324550  0.00    0.0053179   -0.0034318   -0.0003064
    13
 Energy =      -0.0461075948
c    -3.5679506    1.6485006    0.1954045  0.00   -0.0010425    0.0015589    0.0044007
c    -2.3713371    2.6065440    0.0893630  0.00   -0.0089461   -0.0003098   -0.0006411
c    -4.9041826    2.4129626    0.1101558  0.00   -0.0018550   -0.0002147   -0.0005483
h    -5.7634516    1.7191474    0.2349331  0.00   -0.0012760   -0.0009083   -0.0000760
h    -4.9929233    2.9150170   -0.8805617  0.00   -0.0003816    0.0011703   -0.0019520
h    -4.9666029    3.1877883    0.9084481  0.00   -0.0001595    0.0015060    0.0016539
n    -3.5555336    0.6167323   -0.8582452  0.00   -0.0080255    0.0157375   -0.0110286
h    -3.4904080    1.1611954    1.1980801  0.00    0.0005888   -0.0013397    0.0026196
h    -2.7760614   -0.0672519   -0.6586408  0.00    0.0137799   -0.0149149   -0.0002600
h    -4.4332550    0.0311324   -0.7772972  0.00   -0.0101382   -0.0073972    0.0047154
o    -2.4997099    3.9167446    0.5494891  0.00   -0.0039779    0.0124947    0.0042286
o    -1.1107154    2.1879259   -0.3528827  0.00    0.0167154   -0.0058730   -0.0019400
h    -1.2070956    1.2745486   -0.7701749  0.00    0.0047182   -0.0015097   -0.0011722
    13
 Energy =      -0.0474131103
c    -3.5746999    1.6532279    0.2173690  0.00    0.0013014    0.0011817    0.0029949
c    -2.3733568    2.6026081    0.1310390  0.00   -0.0060307   -0.0018404   -0.0012288
c    -4.9010355    2.4189710    0.0323548  0.00   -0.0031384   -0.0002623    0.0003235
h    -5.7676430    1.7351748    0.1540713  0.00   -0.0005191   -0.0002417    0.0001393
h    -4.9433297    2.8716608   -0.9856493  0.00   -0.0004208    0.0014531   -0.0028704
h    -4.9969190    3.2318603    0.7891909  0.00   -0.0007495    0.0017923    0.0019940
n    -3.5087693    0.5768481   -0.7879335  0.00   -0.0038728    0.0072598   -0.0085908
h    -3.5490889    1.2105380    1.2438622  0.00    0.0005166   -0.0011833    0.0031989
h    -2.7566670   -0.1001073   -0.4998876  0.00    0.0082884   -0.0095968    0.0008663
h    -4.3967239    0.0100255   -0.7513637  0.00   -0.0047506   -0.0029152    0.0021796
o    -2.4709206    3.8767764    0.6845698  0.00   -0.0027000    0.0099009    0.0037867
o    -1.1442486    2.2150863   -0.4067573  0.00    0.0103683   -0.0054451   -0.0022393
h    -1.2558247    1.3083175   -0.8327942  0.00    0.0017072   -0.0001027   -0.0005538
    13
 Energy =      -0.0481775496
c    -3.5899265    1.6579148    0.2394011  0.00    0.0026940    0.0001230    0.0011181
c    -2.3719979    2.5862141    0.1810954  0.00   -0.0050950   -0.0026012   -0.0013341
c    -4.8879610    2.4352814   -0.0587538  0.00   -0.0034949    0.0002784    0.0010572
h    -5.7725244    1.7734011    0.0547555  0.00   -0.0005220   -0.0000896    0.0003928
h    -4.8685789    2.8311625   -1.1013818  0.00   -0.0002210    0.0016166   -0.0035565
h    -5.0075917    3.2901459    0.6467306  0.00   -0.0011172    0.0017935    0.0017560
n    -3.4849653    0.5335077   -0.7062839  0.00   -0.0017473    0.0004910   -0.0049993
h    -3.6311926    1.2648288    1.2860417  0.00    0.0002215   -0.0012481    0.0036165
h    -2.7400562   -0.1138011   -0.3540413  0.00    0.0028335   -0.0041755    0.0009415