    27
 Energy =       0.2915193201
c    -1.4235396    2.6054793   -0.0667700  0.00   -0.0463030    0.0383335    0.0026836
c    -1.3072796    1.2134697   -0.1072300  0.00   -0.0853194   -0.0325439    0.0020245
c    -0.0178900    0.6711998   -0.1697000  0.00   -0.0887290   -0.1880498   -0.0008974
c    -0.2940599    3.4190890   -0.0891300  0.00   -0.0231889    0.0690446    0.0028571
c     0.9872197    2.8590292   -0.1560400  0.00    0.0102025    0.0642801    0.0010049
c     1.1340797    1.4562096   -0.1970299  0.00    0.0528773    0.0511862    0.0021531
n     0.3879399   -0.6395298   -0.2140799  0.00    0.1435650    0.1086054   -0.0031327
c     2.2666594    0.5727398   -0.2659299  0.00    0.1558974   -0.0859642   -0.0023132
c     1.7555995   -0.7123598   -0.2706899  0.00   -0.0992906   -0.0967984    0.0027561
h    -0.2400399   -1.4313496   -0.2047299  0.00    0.0367654    0.0480494   -0.0003726
c     3.7030089    1.0223397   -0.3320099  0.00   -0.0239803    0.0124151   -0.0337973
c     4.2197688    1.4064496   -1.7267995  0.00   -0.0794279    0.0994939    0.0526930
h     4.3261788    0.2093419    0.0639454  0.00   -0.0087751    0.0139623   -0.0037728
h     3.8370289    1.8640295    0.3610799  0.00   -0.0038883   -0.0124110   -0.0052934
c     3.7734089    0.3331939   -2.7369592  0.00    0.0622992   -0.3979578   -0.0278925
n     5.7205784    1.5052196   -1.8052095  0.00    0.0845857    0.0140939   -0.0399580
h     3.7949889    2.3605393   -2.0604594  0.00    0.0255211   -0.0157005   -0.0031533
h     5.9422883    2.4421693   -2.1574494  0.00   -0.0182941   -0.0290915    0.0199019
h     6.0817983    1.5118596   -0.8448278  0.00   -0.0270327    0.0024013   -0.0262541
h    -2.4108593    3.0588691   -0.0157800  0.00   -0.0008607    0.0002677    0.0001226
h    -2.1896094    0.5822398   -0.0890100  0.00   -0.0036156    0.0037516    0.0001268
h    -0.4052699    4.5000487   -0.0535400  0.00    0.0008536    0.0003340    0.0004235
h     1.8590495    3.5066790   -0.1715100  0.00   -0.0008521    0.0031947    0.0008041
h     2.2327294   -1.6813195   -0.3062999  0.00   -0.0427363   -0.0107922    0.0038547
o     4.1225288   -0.8355638   -2.7317292  0.00   -0.0722923    0.2894832   -0.0046569
o     2.9198892    0.8519998   -3.6604990  0.00    0.0246754    0.0309296    0.0416929
h     2.0748194    0.3457979   -3.5412290  0.00    0.0273437    0.0194829    0.0183954
    27
 Energy =       0.2800780187
c    -1.3803622    2.5705748    0.0013835  0.00   -0.0431856    0.0357983    0.0024930
c    -1.2653978    1.1810958   -0.0475759  0.00   -0.0796164   -0.0304547    0.0018750
c     0.0199999    0.6386535   -0.1102573  0.00   -0.0828969   -0.1742323   -0.0005513
c    -0.2511863    3.3817881   -0.0182642  0.00   -0.0216591    0.0644348    0.0026452
c     1.0267669    2.8209393   -0.0905256  0.00    0.0095644    0.0599881    0.0008909
c     1.1684835    1.4216549   -0.1366110  0.00    0.0490410    0.0479942    0.0019128
n     0.4185152   -0.6760003   -0.1971059  0.00    0.1342065    0.1003035   -0.0031886
c     2.2962612    0.5447293   -0.2297286  0.00    0.1437481   -0.0794158   -0.0016730
c     1.7904606   -0.7392950   -0.2567284  0.00   -0.0931139   -0.0893194    0.0027643
h    -0.2098090   -1.4707539   -0.2050110  0.00    0.0341799    0.0446218   -0.0004232
c     3.7304255    0.9938663   -0.3560042  0.00   -0.0255282    0.0113519   -0.0296693
c     4.1479204    1.4505838   -1.7663545  0.00   -0.0776108    0.0907923    0.0467329
h     4.3827836    0.1567609   -0.0519378  0.00   -0.0051227    0.0095341   -0.0023954
h     3.9088045    1.7984495    0.3751052  0.00   -0.0038158   -0.0103001   -0.0027169
c     3.7061170    0.3812157   -2.7807628  0.00    0.0584986   -0.3716048   -0.0262391
n     5.6382988    1.6298868   -1.9164272  0.00    0.0845389    0.0088082   -0.0397140
h     3.6463562    2.3901572   -2.0424798  0.00    0.0210961   -0.0110329   -0.0040320
h     5.7835352    2.5928114   -2.2536572  0.00   -0.0164150   -0.0219908    0.0163433
h     6.0591755    1.6258713   -0.9774213  0.00   -0.0235426    0.0019718   -0.0215062
h    -2.3672367    3.0247849    0.0532408  0.00   -0.0008042    0.0002498    0.0001132
h    -2.1481158    0.5500991   -0.0406831  0.00   -0.0034205    0.0034500    0.0001089
h    -0.3610093    4.4627792    0.0213374  0.00    0.0007941    0.0003207    0.0003921
h     1.9001974    3.4663286   -0.1084734  0.00   -0.0007729    0.0029683    0.0007221
h     2.2786218   -1.7008427   -0.3452428  0.00   -0.0392393   -0.0114276    0.0034668
o     4.0643007   -0.7968107   -2.7650303  0.00   -0.0674249    0.2701032   -0.0040830
o     2.8635321    0.8888335   -3.7221905  0.00    0.0238867    0.0296243    0.0381931
h     2.0035762    0.4097092   -3.5822101  0.00    0.0246145    0.0174631    0.0175383
    27
 Energy =       0.2425722598
c    -1.3472918    2.5291479   -0.0028057  0.00   -0.0286877    0.0238870    0.0016435
c    -1.2330072    1.1505298   -0.0555521  0.00   -0.0534467   -0.0204497    0.0012924
c     0.0359015    0.6106434   -0.1188804  0.00   -0.0552976   -0.1173249   -0.0001877
c    -0.2220808    3.3327194   -0.0188830  0.00   -0.0146530    0.0431170    0.0017325
c     1.0431920    2.7710750   -0.0898666  0.00    0.0066038    0.0403353    0.0004856
c     1.1665332    1.3875935   -0.1396071  0.00    0.0323666    0.0327732    0.0012446
n     0.4131352   -0.7247369   -0.2106900  0.00    0.0891111    0.0669207   -0.0021885
c     2.2795356    0.5409028   -0.2317090  0.00    0.0972232   -0.0528679   -0.0012076
c     1.8051311   -0.7413889   -0.2709647  0.00   -0.0635265   -0.0584154    0.0021422
h    -0.2116617   -1.5358664   -0.2232051  0.00    0.0231025    0.0298568   -0.0003403
c     3.7170478    0.9849002   -0.3460154  0.00   -0.0179210    0.0075641   -0.0197146
c     4.1126764    1.4813094   -1.7523699  0.00   -0.0527136    0.0612938    0.0322743
h     4.3718402    0.1325949   -0.0755864  0.00   -0.0032767    0.0057514   -0.0014944
h     3.9058582    1.7734782    0.4051980  0.00   -0.0024786   -0.0067296   -0.0014936
c     3.6919182    0.4461745   -2.8020722  0.00    0.0372358   -0.2517834   -0.0158916
n     5.5889518    1.7087142   -1.8799399  0.00    0.0581753    0.0051407   -0.0285852
h     3.5749596    2.4160217   -1.9953065  0.00    0.0137016   -0.0066368   -0.0028175
h     5.7246128    2.6841110   -2.2027714  0.00   -0.0110866   -0.0143045    0.0110968
h     6.0293784    1.6746147   -0.9434966  0.00   -0.0156485    0.0012084   -0.0135622
h    -2.3334780    2.9845296    0.0492412  0.00   -0.0005401    0.0001661    0.0000746
h    -2.1138767    0.5170967   -0.0515159  0.00   -0.0022910    0.0023128    0.0000708
h    -0.3289978    4.4139709    0.0231142  0.00    0.0005279    0.0002203    0.0002585
h     1.9220228    3.4089593   -0.1045951  0.00   -0.0004251    0.0019239    0.0004227
h     2.3543415   -1.6708304   -0.3722120  0.00   -0.0251883   -0.0088729    0.0022108
o     4.0773921   -0.7772153   -2.7849527  0.00   -0.0453023    0.1823585   -0.0031138
o     2.8729929    0.9303593   -3.7876169  0.00    0.0349914    0.0293379    0.0170783
h     1.9539877    0.5684624   -3.5665547  0.00   -0.0005557    0.0032174    0.0185692
    27
 Energy =       0.2332283946
c    -1.3347054    2.5095246   -0.0044026  0.00   -0.0230935    0.0192305    0.0013152
c    -1.2216013    1.1347207   -0.0498566  0.00   -0.0431053   -0.0165353    0.0009839
c     0.0402526    0.5948042   -0.1181829  0.00   -0.0444358   -0.0943004   -0.0005202
c    -0.2104968    3.3091875   -0.0298220  0.00   -0.0118176    0.0347617    0.0014238
c     1.0490638    2.7458492   -0.1042399  0.00    0.0053691    0.0325411    0.0004211
c     1.1642764    1.3680622   -0.1491641  0.00    0.0260461    0.0265503    0.0010326
n     0.4086000   -0.7502966   -0.1882105  0.00    0.0714937    0.0536667   -0.0012252
c     2.2702540    0.5315603   -0.2418337  0.00    0.0785419   -0.0425390   -0.0009703
c     1.8072398   -0.7500860   -0.2733028  0.00   -0.0509937   -0.0467789    0.0013907
h    -0.2159158   -1.5673517   -0.1802688  0.00    0.0184509    0.0237935   -0.0001339
c     3.7094411    0.9723707   -0.3510088  0.00   -0.0147124    0.0060663   -0.0158251
c     4.0981656    1.4907209   -1.7519945  0.00   -0.0427673    0.0495047    0.0263901
h     4.3652844    0.1138855   -0.0968144  0.00   -0.0026045    0.0044868   -0.0011656
h     3.9022825    1.7513160    0.4112155  0.00   -0.0019696   -0.0053569   -0.0011155
c     3.6978820    0.4708026   -2.8220609  0.00    0.0293044   -0.2041127   -0.0121076
n     5.5669572    1.7483428   -1.8625794  0.00    0.0475042    0.0038888   -0.0235817
h     3.5417605    2.4201749   -1.9806113  0.00    0.0108912   -0.0051081   -0.0022518
h     5.6942537    2.7315556   -2.1723656  0.00   -0.0088901   -0.0112558    0.0089376
h     6.0130367    1.6976572   -0.9268732  0.00   -0.0125959    0.0009465   -0.0106908
h    -2.3200280    2.9662253    0.0516875  0.00   -0.0004490    0.0001301    0.0000586
h    -2.1019064    0.5006127   -0.0335358  0.00   -0.0019081    0.0018148    0.0000623
h    -0.3152516    4.3908444    0.0081599  0.00    0.0004290    0.0001891    0.0002089
h     1.9300925    3.3804564   -0.1251041  0.00   -0.0002975    0.0015438    0.0003142
h     2.3770808   -1.6678074   -0.3753289  0.00   -0.0201967   -0.0072854    0.0017146
o     4.0891428   -0.7721081   -2.7987775  0.00   -0.0368666    0.1472207   -0.0024156
o     2.9023357    0.9496309   -3.8346568  0.00    0.0480328    0.0302433    0.0057543
h     1.9435181    0.7272155   -3.5496839  0.00   -0.0193595   -0.0033062    0.0219951
    27
 Energy =       0.2304584805
c    -1.3366345    2.5250098   -0.0257729  0.00   -0.0224742    0.0185423    0.0012798
c    -1.2278140    1.1515858   -0.1022190  0.00   -0.0415764   -0.0164668    0.0009375
c     0.0323259    0.6086495   -0.1580927  0.00   -0.0422026   -0.0888426   -0.0001276
c    -0.2092527    3.3205996   -0.0130786  0.00   -0.0109747    0.0338195    0.0013578
c     1.0489111    2.7541393   -0.0754336  0.00    0.0053971    0.0316781    0.0003845
c     1.1589001    1.3778566   -0.1468363  0.00    0.0253923    0.0259803    0.0010013
n     0.3935512   -0.7361483   -0.2876501  0.00    0.0671061    0.0500234   -0.0015147
c     2.2626779    0.5410646   -0.2352208  0.00    0.0762258   -0.0400574   -0.0009183
c     1.7972012   -0.7380004   -0.3094319  0.00   -0.0471982   -0.0444201    0.0014711
h    -0.2361365   -1.5506899   -0.3390219  0.00    0.0159815    0.0206076   -0.0003392
c     3.7050250    0.9786977   -0.3206386  0.00   -0.0141408    0.0059397   -0.0151451
c     4.1150545    1.4859901   -1.7209441  0.00   -0.0412316    0.0474745    0.0252519
h     4.3540127    0.1196828   -0.0501284  0.00   -0.0023626    0.0042265   -0.0010747
h     3.8879514    1.7630690    0.4387321  0.00   -0.0019142   -0.0051139   -0.0009993
c     3.7066600    0.4689442   -2.7896187  0.00    0.0283771   -0.1966405   -0.0106630
n     5.5875613    1.7237797   -1.8186623  0.00    0.0459354    0.0035649   -0.0227259
h     3.5723473    2.4224001   -1.9578292  0.00    0.0103534   -0.0047630   -0.0021952
h     5.7327665    2.7041686   -2.1308589  0.00   -0.0085009   -0.0105699    0.0085028
h     6.0249831    1.6684247   -0.8786798  0.00   -0.0120439    0.0009004   -0.0101978
h    -2.3213415    2.9842533    0.0199694  0.00   -0.0005331    0.0000736    0.0000570
h    -2.1110375    0.5205231   -0.1258419  0.00   -0.0024708    0.0011794    0.0000336
h    -0.3105000    4.4018552    0.0456407  0.00    0.0005095    0.0004293    0.0002090
h     1.9330545    3.3854158   -0.0668866  0.00    0.0000850    0.0017836    0.0002920
h     2.3696523   -1.6532983   -0.4202557  0.00   -0.0195720   -0.0071727    0.0016410
o     4.1091787   -0.7743177   -2.7782209  0.00   -0.0354302    0.1414343   -0.0022958
o     2.8764293    0.9389465   -3.7791512  0.00    0.0558341    0.0334355    0.0013826
h     1.9354876    0.6052692   -3.5234840  0.00   -0.0285709   -0.0070462    0.0243946
    27
 Energy =       0.2242037148
c    -1.3479580    2.5203090   -0.0694548  0.00   -0.0193249    0.0156206    0.0010974
c    -1.2422825    1.1509999   -0.1765552  0.00   -0.0352571   -0.0144246    0.0008984
c     0.0131488    0.6056145   -0.2205840  0.00   -0.0355024   -0.0744663    0.0006335
c    -0.2190346    3.3097174   -0.0166452  0.00   -0.0088750    0.0289497    0.0010895
c     1.0353442    2.7398478   -0.0650382  0.00    0.0048183    0.0271933    0.0002317
c     1.1378384    1.3685427   -0.1652142  0.00    0.0216833    0.0222539    0.0007893
n     0.3670167   -0.7404335   -0.3944344  0.00    0.0552537    0.0416623   -0.0021299
c     2.2369135    0.5364673   -0.2429730  0.00    0.0644156   -0.0333599   -0.0007734
c     1.7761624   -0.7387919   -0.3580781  0.00   -0.0387472   -0.0373752    0.0018501
h    -0.2650595   -1.5529034   -0.4977750  0.00    0.0121309    0.0157083   -0.0006839
c     3.6841211    0.9692867   -0.2766273  0.00   -0.0115486    0.0050217   -0.0122885
c     4.1327616    1.4974536   -1.6593022  0.00   -0.0355917    0.0405018    0.0213352
h     4.3230166    0.1030992   -0.0016533  0.00   -0.0019318    0.0035017   -0.0007853
h     3.8484054    1.7425992    0.4997905  0.00   -0.0015039   -0.0041055   -0.0005249
c     3.7562068    0.5004443   -2.7567662  0.00    0.0234270   -0.1662125   -0.0088794
n     5.6043919    1.7431705   -1.7058954  0.00    0.0397798    0.0031432   -0.0201074
h     3.5910595    2.4357751   -1.8965094  0.00    0.0087031   -0.0040047   -0.0019057
h     5.7606354    2.7282169   -2.0025327  0.00   -0.0069730   -0.0086118    0.0071723
h     6.0173759    1.6723582   -0.7538184  0.00   -0.0097718    0.0007311   -0.0078684
h    -2.3317936    2.9822881   -0.0337712  0.00   -0.0005482    0.0000111    0.0000481
h    -2.1267200    0.5232925   -0.2371580  0.00   -0.0026270    0.0005093   -0.0000137
h    -0.3168823    4.3900541    0.0642178  0.00    0.0005428    0.0006428    0.0001893
h     1.9226125    3.3661036   -0.0228523  0.00    0.0005407    0.0018977    0.0002650
h     2.3619164   -1.6466140   -0.4657405  0.00   -0.0164751   -0.0061479    0.0014721
o     4.1781405   -0.7504647   -2.7588861  0.00   -0.0296452    0.1191930   -0.0023554
o     2.9422954    0.9708132   -3.7627034  0.00    0.0536267    0.0305549   -0.0010526
h     2.0113826    0.5706242   -3.5726557  0.00   -0.0305992   -0.0083879    0.0222966
    27
 Energy =       0.2224646054
c    -1.3728146    2.5067781   -0.1292398  0.00   -0.0182516    0.0143659    0.0010150
c    -1.2667840    1.1406516   -0.2629411  0.00   -0.0328126   -0.0137396    0.0008519
c    -0.0127825    0.5947513   -0.2938107  0.00   -0.0329617   -0.0688644    0.0008559
c    -0.2442792    3.2927075   -0.0376542  0.00   -0.0078611    0.0271281    0.0010156
c     1.0090037    2.7217531   -0.0702707  0.00    0.0047196    0.0255108    0.0002046
c     1.1099281    1.3539055   -0.1965174  0.00    0.0202256    0.0207932    0.0007315
n     0.3413342   -0.7487892   -0.4985791  0.00    0.0499425    0.0384475   -0.0023242
c     2.2078628    0.5239275   -0.2595186  0.00    0.0590397   -0.0308241   -0.0005978
c     1.7510272   -0.7481220   -0.4098015  0.00   -0.0351173   -0.0345911    0.0020005
h    -0.2894124   -1.5579439   -0.6453892  0.00    0.0102500    0.0133601   -0.0009042
c     3.6573219    0.9533017   -0.2297503  0.00   -0.0102775    0.0043721   -0.0104920
c     4.1568433    1.5112521   -1.5848958  0.00   -0.0340752    0.0380702    0.0199671
h     4.2850420    0.0797203    0.0492752  0.00   -0.0017235    0.0031490   -0.0005448
h     3.7948210    1.7095366    0.5698678  0.00   -0.0011906   -0.0033643    0.0001364
c     3.8331635    0.5341302   -2.7176969  0.00    0.0224788   -0.1546730   -0.0074171
n     5.6268520    1.7696314   -1.5658568  0.00    0.0385897    0.0033258   -0.0200862
h     3.6160693    2.4496404   -1.8260722  0.00    0.0079653   -0.0036405   -0.0017439
h     5.7899804    2.7597811   -1.8437796  0.00   -0.0061640   -0.0076191    0.0066315
h     6.0011343    1.6892186   -0.5969810  0.00   -0.0082465    0.0006851   -0.0058997
h    -2.3566439    2.9695595   -0.1044492  0.00   -0.0006068   -0.0000346    0.0000400
h    -2.1505778    0.5154286   -0.3566999  0.00   -0.0028724    0.0000955   -0.0000617
h    -0.3419416    4.3715332    0.0632908  0.00    0.0006092    0.0008228    0.0001956
h     1.8966815    3.3450409    0.0053849  0.00    0.0009593    0.0021277    0.0002854
h     2.3434924   -1.6532563   -0.5053111  0.00   -0.0150995   -0.0057314    0.0013981
o     4.2652678   -0.7189020   -2.7238599  0.00   -0.0274633    0.1101593   -0.0025342
o     3.0692998    1.0168617   -3.7599185  0.00    0.0500664    0.0291372   -0.0036429
h     2.1311257    0.6157731   -3.6184411  0.00   -0.0301223   -0.0084679    0.0209197
    27
 Energy =       0.2151879930
c    -1.3634026    2.5078339   -0.1533675  0.00   -0.0138688    0.0108224    0.0007359
c    -1.2569662    1.1450002   -0.2860775  0.00   -0.0249056   -0.0103954    0.0006260
c    -0.0078131    0.5989547   -0.3073954  0.00   -0.0250367   -0.0519391    0.0005061
c    -0.2363764    3.2901611   -0.0513530  0.00   -0.0059825    0.0205267    0.0007454
c     1.0129280    2.7178271   -0.0744928  0.00    0.0035955    0.0192888    0.0001202
c     1.1092380    1.3547447   -0.2015357  0.00    0.0152711    0.0157719    0.0004666
n     0.3407397   -0.7529931   -0.4929342  0.00    0.0377853    0.0288718   -0.0017210
c     2.2027170    0.5327600   -0.2562050  0.00    0.0447638   -0.0233030   -0.0005644
c     1.7559049   -0.7384453   -0.4110412  0.00   -0.0266359   -0.0260721    0.0013804
h    -0.2900365   -1.5667716   -0.6304612  0.00    0.0077105    0.0100438   -0.0008055
c     3.6532685    0.9608064   -0.2177706  0.00   -0.0078089    0.0032479   -0.0079043
c     4.1527950    1.5245329   -1.5707701  0.00   -0.0254779    0.0289117    0.0150638
h     4.2806951    0.0853055    0.0591052  0.00   -0.0013499    0.0023514   -0.0003680
h     3.7889868    1.7161117    0.5838752  0.00   -0.0009609   -0.0025765    0.0001726
c     3.8204991    0.5616257   -2.7093444  0.00    0.0158129   -0.1175976   -0.0028844
n     5.6192431    1.7835023   -1.5435750  0.00    0.0290663    0.0023305   -0.0156684
h     3.6097925    2.4656974   -1.8027057  0.00    0.0060251   -0.0027027   -0.0012644
h     5.7880270    2.7787197   -1.8054585  0.00   -0.0045980   -0.0054910    0.0051694
h     6.0021190    1.6772420   -0.5787220  0.00   -0.0060864    0.0004354   -0.0037473
h    -2.3468148    2.9717238   -0.1366237  0.00   -0.0005238   -0.0000325   -0.0000439
h    -2.1396302    0.5196586   -0.3844871  0.00   -0.0022141    0.0000596   -0.0001614
h    -0.3332368    4.3689150    0.0492664  0.00    0.0004281    0.0006078    0.0001375
h     1.9013831    3.3383411    0.0085654  0.00    0.0007379    0.0015944    0.0002257
h     2.3645022   -1.6333592   -0.5091428  0.00   -0.0113650   -0.0044412    0.0010096
o     4.3015283   -0.6914328   -2.7505734  0.00   -0.0190878    0.0818364   -0.0019481
o     2.9967478    1.0243889   -3.7189225  0.00    0.0631420    0.0410668   -0.0090079
h     2.1241761    0.4570200   -3.6574686  0.00   -0.0484365   -0.0232165    0.0197299
    27
 Energy =       0.2123315673
c    -1.3321903    2.5119404   -0.0793856  0.00   -0.0125048    0.0093406    0.0006165
c    -1.2276618    1.1481351   -0.1905958  0.00   -0.0220524   -0.0093923    0.0004461
c     0.0195442    0.6027341   -0.2293040  0.00   -0.0219121   -0.0452881    0.0002710
c    -0.2039837    3.2956778   -0.0147186  0.00   -0.0049730    0.0182670    0.0007022
c     1.0437339    2.7237921   -0.0576665  0.00    0.0034544    0.0171019    0.0001650
c     1.1364305    1.3604451   -0.1644637  0.00    0.0134533    0.0140560    0.0004789
n     0.3621182   -0.7560887   -0.3865734  0.00    0.0313330    0.0252348   -0.0012731
c     2.2279827    0.5428188   -0.2396159  0.00    0.0385658   -0.0204835   -0.0001836
c     1.7825196   -0.7310199   -0.3647013  0.00   -0.0220658   -0.0225387    0.0011161
h    -0.2719195   -1.5759213   -0.4795668  0.00    0.0057047    0.0075418   -0.0007943
c     3.6791462    0.9757169   -0.2665865  0.00   -0.0062388    0.0025464   -0.0059360
c     4.1166781    1.5246316   -1.6483018  0.00   -0.0230129    0.0252806    0.0128267
h     4.3220269    0.1059457   -0.0054307  0.00   -0.0009170    0.0019291   -0.0001244
h     3.8458557    1.7430121    0.5187566  0.00   -0.0006596   -0.0019191    0.0007407
c     3.7417517    0.5471862   -2.7609835  0.00    0.0144419   -0.1035714   -0.0010398
n     5.5807425    1.7982283   -1.6828997  0.00    0.0270097    0.0024770   -0.0155027
h     3.5547310    2.4584791   -1.8678219  0.00    0.0050103   -0.0021722   -0.0012766
h     5.7300450    2.7957997   -1.9505355  0.00   -0.0039788   -0.0044670    0.0043705
h     6.0122766    1.6877411   -0.7374751  0.00   -0.0042008    0.0001784   -0.0013462
h    -2.3154214    2.9755868   -0.0483636  0.00   -0.0006032   -0.0000674   -0.0000454
h    -2.1118075    0.5200404   -0.2560870  0.00   -0.0023949   -0.0002922   -0.0001832
h    -0.2990138    4.3760121    0.0700608  0.00    0.0004681    0.0006813    0.0001358
h     1.9339520    3.3458280   -0.0069977  0.00    0.0010921    0.0017151    0.0002299
h     2.3959444   -1.6207450   -0.4826681  0.00   -0.0096726   -0.0039795    0.0008207
o     4.2630581   -0.6962562   -2.8248961  0.00   -0.0153989    0.0706111   -0.0011750
o     2.8484020    0.9796450   -3.7279540  0.00    0.0554707    0.0396045   -0.0119286
h     2.0160736    0.3585055   -3.6648403  0.00   -0.0454184   -0.0223944    0.0178889
    27
 Energy =       0.2085673064
c    -1.3022800    2.5078105   -0.0112392  0.00   -0.0094162    0.0067568    0.0004063
c    -1.1968559    1.1454933   -0.1107934  0.00   -0.0164228   -0.0070049    0.0002047
c     0.0472959    0.6025573   -0.1673426  0.00   -0.0160948   -0.0332263   -0.0000811
c    -0.1754749    3.2923704    0.0252825  0.00   -0.0035691    0.0135940    0.0005450
c     1.0696405    2.7222077   -0.0373755  0.00    0.0027760    0.0126195    0.0001674
c     1.1597339    1.3613934   -0.1337708  0.00    0.0098743    0.0105472    0.0004251
n     0.3859323   -0.7622019   -0.3069467  0.00    0.0216994    0.0186444   -0.0005156
c     2.2482720    0.5522748   -0.2302214  0.00    0.0279688   -0.0152168    0.0001483
c     1.8102278   -0.7231060   -0.3361277  0.00   -0.0152360   -0.0162766    0.0005660
h    -0.2481990   -1.5875672   -0.3661268  0.00    0.0035935    0.0048284   -0.0005670
c     3.6965370    0.9909571   -0.3110832  0.00   -0.0042291    0.0015454   -0.0036093
c     4.0745975    1.5349208   -1.7127722  0.00   -0.0171595    0.0180276    0.0089129
h     4.3555445    0.1267313   -0.0689548  0.00   -0.0003852    0.0012431    0.0000649
h     3.8874009    1.7661996    0.4617371  0.00   -0.0003680   -0.0012359    0.0009109
c     3.6825564    0.5428794   -2.8046204  0.00    0.0090473   -0.0738560    0.0043169
n     5.5279523    1.8457977   -1.7926715  0.00    0.0214141    0.0017745   -0.0127995
h     3.4811125    2.4536199   -1.9204927  0.00    0.0032748   -0.0010986   -0.0011906
h     5.6472302    2.8500490   -2.0558786  0.00   -0.0029567   -0.0025103    0.0028899
h     6.0030196    1.7268374   -0.8676350  0.00   -0.0022167   -0.0001567    0.0006791
h    -2.2855480    2.9701435    0.0343615  0.00   -0.0005766   -0.0000594   -0.0000385
h    -2.0802545    0.5145698   -0.1510733  0.00   -0.0020481   -0.0003940   -0.0001595
h    -0.2704007    4.3732231    0.1017556  0.00    0.0003890    0.0005462    0.0001060
h     1.9600416    3.3452468   -0.0113037  0.00    0.0010783    0.0014164    0.0001828
h     2.4335350   -1.6037937   -0.4743992  0.00   -0.0068283   -0.0030639    0.0004978
o     4.3053901   -0.6673683   -2.9247117  0.00   -0.0042715    0.0450282   -0.0000908
o     2.6926520    0.9168726   -3.7085668  0.00    0.0439185    0.0425124   -0.0170994
h     1.9413558    0.1997524   -3.6686454  0.00   -0.0432554   -0.0249847    0.0151275
    27
 Energy =       0.2090313791
c    -1.3266559    2.4813983   -0.0404298  0.00   -0.0088996    0.0063418    0.0003860
c    -1.2095416    1.1206231   -0.1439705  0.00   -0.0154533   -0.0065987    0.0001971
c     0.0388378    0.5879344   -0.1939495  0.00   -0.0151403   -0.0311386   -0.0000605
c    -0.2066368    3.2745535    0.0068113  0.00   -0.0033274    0.0128097    0.0005158
c     1.0429005    2.7145002   -0.0484620  0.00    0.0026784    0.0118548    0.0001563
c     1.1440080    1.3553199   -0.1489634  0.00    0.0092524    0.0099095    0.0004007
n     0.3897159   -0.7745519   -0.3337680  0.00    0.0201916    0.0174429   -0.0005099
c     2.2394387    0.5565439   -0.2365179  0.00    0.0261003   -0.0142371    0.0001343
c     1.8145755   -0.7221546   -0.3483619  0.00   -0.0141954   -0.0152552    0.0005224
h    -0.2370189   -1.6052841   -0.4016812  0.00    0.0032837    0.0044176   -0.0005376
c     3.6843825    1.0089010   -0.2954415  0.00   -0.0039921    0.0014615   -0.0033423
c     4.0760035    1.5539118   -1.6922774  0.00   -0.0173557    0.0172508    0.0091661
h     4.3505868    0.1535123   -0.0407833  0.00   -0.0002271    0.0010660    0.0000679
h     3.8542342    1.7887247    0.4780730  0.00   -0.0003188   -0.0010039    0.0010208
c     3.7470514    0.5373662   -2.7845236  0.00    0.0061823   -0.0655264    0.0049501
n     5.5193461    1.9163801   -1.7391473  0.00    0.0217120    0.0012814   -0.0124043
h     3.4541114    2.4492056   -1.9232055  0.00    0.0023494   -0.0003642   -0.0011053
h     5.6099569    2.9216822   -2.0118955  0.00   -0.0026557   -0.0015863    0.0025891
h     5.9769634    1.8240740   -0.8016695  0.00   -0.0013570   -0.0000311    0.0013744
h    -2.3139040    2.9357409   -0.0000231  0.00   -0.0005945   -0.0000373   -0.0000339
h    -2.0874626    0.4827200   -0.1921637  0.00   -0.0019804   -0.0004096   -0.0001509
h    -0.3106837    4.3543593    0.0864603  0.00    0.0003670    0.0005624    0.0001026
h     1.9281532    3.3443953   -0.0130978  0.00    0.0010838    0.0013714    0.0001735
h     2.4487147   -1.5968303   -0.4759998  0.00   -0.0062872   -0.0029646    0.0004525
o     4.4641432   -0.6256093   -2.9151430  0.00   -0.0002074    0.0361952   -0.0007663
o     2.7422004    0.8508424   -3.6960699  0.00    0.0401795    0.0413926   -0.0174134
h     2.0175943    0.1096118   -3.6434154  0.00   -0.0413883   -0.0242046    0.0141149
    27
 Energy =       0.2083454152
c    -1.2968265    2.4807564    0.0070237  0.00   -0.0087536    0.0062964    0.0003841
c    -1.1911798    1.1203872   -0.1115403  0.00   -0.0151367   -0.0064893    0.0001858
c     0.0523116    0.5783790   -0.1759348  0.00   -0.0148097   -0.0302183   -0.0000353
c    -0.1702484    3.2643436    0.0547986  0.00   -0.0033234    0.0126096    0.0005108
c     1.0743256    2.6949336   -0.0154938  0.00    0.0026779    0.0116395    0.0001517
c     1.1637944    1.3362987   -0.1319234  0.00    0.0089345    0.0096941    0.0003911
n     0.3902406   -0.7852345   -0.3366778  0.00    0.0196493    0.0168057   -0.0005204
c     2.2517470    0.5300567   -0.2414146  0.00    0.0253105   -0.0138035    0.0002222
c     1.8154538   -0.7436593   -0.3661853  0.00   -0.0137691   -0.0149397    0.0005111
h    -0.2439773   -1.6101155   -0.4081701  0.00    0.0031560    0.0042289   -0.0005292
c     3.7002620    0.9698114   -0.3159163  0.00   -0.0040532    0.0013979   -0.0027411
c     4.0684614    1.5656566   -1.7000829  0.00   -0.0168229    0.0177563    0.0102219
h     4.3618872    0.0963012   -0.1103889  0.00    0.0005985    0.0000096    0.0003792
h     3.8959277    1.7176450    0.4842653  0.00   -0.0002020   -0.0002605    0.0019224
c     3.6671812    0.6150728   -2.8308586  0.00    0.0062412   -0.0629590    0.0059648
n     5.5230972    1.8796661   -1.7736117  0.00    0.0208883   -0.0013482   -0.0145661
h     3.4716764    2.4941455   -1.8690906  0.00    0.0006836    0.0018409   -0.0013427
h     5.6405057    2.8973784   -1.9919919  0.00   -0.0026001    0.0015317    0.0018745
h     6.0085541    1.7180394   -0.8565943  0.00    0.0012228   -0.0006561    0.0054093
h    -2.2801551    2.9425434    0.0589368  0.00   -0.0006682    0.0000269   -0.0000264
h    -2.0744168    0.4899592   -0.1609577  0.00   -0.0019639   -0.0004318   -0.0001496
h    -0.2651174    4.3441245    0.1465617  0.00    0.0003289    0.0006677    0.0001113
h     1.9647928    3.3173206    0.0202651  0.00    0.0011242    0.0013578    0.0001481
h     2.4413653   -1.6209002   -0.5172074  0.00   -0.0059279   -0.0031478    0.0003816
o     4.3322434   -0.5709629   -3.0440438  0.00    0.0027423    0.0297462   -0.0017728
o     2.6386377    1.0075586   -3.6897650  0.00    0.0352137    0.0433567   -0.0211760
h     1.9104712    0.2683650   -3.6736179  0.00   -0.0407409   -0.0247118    0.0140896
    27
 Energy =       0.2106892081
c    -1.3130474    2.4338510   -0.0176604  0.00   -0.0088042    0.0062258    0.0003854
c    -1.2009781    1.0763379   -0.1619897  0.00   -0.0149428   -0.0066999    0.0001549
c     0.0451373    0.5402560   -0.2233145  0.00   -0.0146454   -0.0297152   -0.0000139
c    -0.1900030    3.2205195    0.0590130  0.00   -0.0030349    0.0126430    0.0005254
c     1.0573187    2.6570222   -0.0070861  0.00    0.0027100    0.0117780    0.0001797
c     1.1531057    1.3012584   -0.1506036  0.00    0.0088837    0.0095503    0.0003869
n     0.3900544   -0.8188340   -0.4099791  0.00    0.0191917    0.0162614   -0.0005617
c     2.2453256    0.5013303   -0.2615883  0.00    0.0246769   -0.0136012    0.0004559
c     1.8157091   -0.7715039   -0.4160823  0.00   -0.0135106   -0.0149306    0.0004554
h    -0.2404866   -1.6442661   -0.5093440  0.00    0.0027144    0.0036453   -0.0005805
c     3.6936489    0.9474772   -0.2998135  0.00   -0.0045715    0.0005179   -0.0020208
c     4.0773864    1.6085606   -1.6515244  0.00   -0.0170409    0.0191393    0.0101992
h     4.3561941    0.0672800   -0.1259094  0.00    0.0006849   -0.0005683    0.0005327
h     3.8767198    1.6600975    0.5365345  0.00    0.0000127    0.0005888    0.0028693
c     3.7012219    0.7078795   -2.8327704  0.00   -0.0000158   -0.0523777    0.0085571