    13
 Energy =       0.1244002180
c    -3.7133889    1.6950595    0.3173519  0.00   -0.0488782   -0.0243015    0.0190087
c    -2.4962693    2.6345192    0.2419999  0.00    0.0809164    0.3370900    0.1002706
c    -4.9565486    2.3924193   -0.2155699  0.00    0.0209553    0.0083731    0.0081494
h    -5.8072983    1.7014095   -0.2223689  0.00    0.0131818    0.0091513   -0.0034391
h    -4.8071186    2.7393792   -1.2437896  0.00   -0.0064883   -0.0063532    0.0163124
h    -5.2375685    3.2516891    0.4029209  0.00   -0.0013627   -0.0152463   -0.0120496
n    -3.4097890    0.4519539   -0.4549189  0.00    0.0744215   -0.0179502   -0.0541274
h    -3.8575589    1.4177196    1.3669296  0.00    0.0001009   -0.0028866   -0.0219472
h    -4.2340588    0.2238779   -1.0206697  0.00    0.0198572    0.0303232    0.0214083
h    -2.6878492    0.6694128   -1.1486897  0.00    0.0367354    0.0815042    0.0806323
o    -2.4571893    3.7760389    0.6681628  0.00   -0.0151725   -0.2709863   -0.1114309
o    -1.4389296    2.0221094   -0.3549299  0.00   -0.1354286   -0.1236109   -0.0305029
h    -0.7518168    1.9408394    0.3531709  0.00   -0.0388381   -0.0051068   -0.0122846
    13
 Energy =       0.0981083340
c    -3.7062903    1.6886740    0.3085745  0.00   -0.0315865   -0.0151810    0.0131931
c    -2.4773995    2.5997228    0.2377853  0.00    0.0527478    0.2138056    0.0673269
c    -4.9526019    2.4192289   -0.1959010  0.00    0.0161766    0.0006952    0.0082290
h    -5.8020099    1.7188085   -0.3079128  0.00    0.0052259    0.0012609   -0.0032168
h    -4.7652272    2.8981323   -1.1806700  0.00   -0.0021414    0.0005509    0.0021078
h    -5.2593502    3.2064309    0.5219667  0.00   -0.0022264   -0.0049123   -0.0020381
n    -3.4494486    0.4527992   -0.4781182  0.00    0.0491357   -0.0109167   -0.0345176
h    -3.8402050    1.4053807    1.3651888  0.00    0.0000964   -0.0018535   -0.0139395
h    -4.2879070    0.2156960   -1.0332011  0.00    0.0120296    0.0197969    0.0136223
h    -2.7136890    0.6512916   -1.1781685  0.00    0.0283926    0.0577720    0.0549982
o    -2.4608961    3.8029418    0.6735932  0.00   -0.0107618   -0.1724988   -0.0724229
o    -1.3983527    2.0329772   -0.3889766  0.00   -0.1001418   -0.0826899   -0.0383915
h    -0.7420065    1.8243440    0.3454391  0.00   -0.0169468   -0.0058290    0.0050490
    13
 Energy =       0.0886488469
c    -3.6895463    1.6886420    0.2953811  0.00   -0.0227494   -0.0104895    0.0098727
c    -2.4684222    2.6040208    0.2085688  0.00    0.0401834    0.1590466    0.0511090
c    -4.9603328    2.4175615   -0.1548267  0.00    0.0153187    0.0000268    0.0071591
h    -5.8321072    1.7240263   -0.1491597  0.00   -0.0015122   -0.0031977   -0.0021648
h    -4.8364245    2.8265846   -1.1858382  0.00   -0.0003938    0.0016255   -0.0034487
h    -5.1880986    3.2619387    0.5356482  0.00   -0.0018025   -0.0003260    0.0020399
n    -3.4626609    0.4651667   -0.5154262  0.00    0.0374669   -0.0084326   -0.0260665
h    -3.7870523    1.3929301    1.3565493  0.00    0.0000685   -0.0015014   -0.0096490
h    -4.3102294    0.2413940   -1.0699659  0.00    0.0086712    0.0148158    0.0098205
h    -2.7205179    0.6589469   -1.2176070  0.00    0.0230697    0.0452458    0.0421105
o    -2.4719275    3.8339835    0.6516523  0.00   -0.0085688   -0.1283907   -0.0539202
o    -1.3676619    2.0581332   -0.4077994  0.00   -0.0834404   -0.0610973   -0.0402850
h    -0.7604024    1.7430996    0.3424227  0.00   -0.0063111   -0.0073253    0.0134226
    13
 Energy =       0.0811358854
c    -3.6618238    1.6852935    0.2746112  0.00   -0.0109249   -0.0047366    0.0062593
c    -2.4506022    2.6092976    0.1604243  0.00    0.0263695    0.0942053    0.0327874
c    -4.9701175    2.4223052   -0.0670839  0.00    0.0067500    0.0015746    0.0050674
h    -5.8414500    1.7307732    0.0061860  0.00   -0.0031878   -0.0026113   -0.0011153
h    -4.9250580    2.8376405   -1.1034156  0.00   -0.0000539    0.0017177   -0.0050602
h    -5.1381608    3.2651656    0.6442782  0.00   -0.0014887    0.0009338    0.0028362
n    -3.4922986    0.4872003   -0.5869083  0.00    0.0254405   -0.0073141   -0.0160682
h    -3.6934555    1.3561387    1.3361463  0.00    0.0002356   -0.0014199   -0.0031091
h    -4.3465311    0.3133260   -1.1598053  0.00    0.0034650    0.0078835    0.0039015
h    -2.7300900    0.6631010   -1.2803917  0.00    0.0173601    0.0308465    0.0269180
o    -2.4748292    3.8674658    0.6198607  0.00   -0.0057086   -0.0768143   -0.0318962
o    -1.3235716    2.0943741   -0.4474230  0.00   -0.0716478   -0.0228629   -0.0588392
h    -0.8073956    1.5843465    0.2931204  0.00    0.0133911   -0.0214023    0.0383185
    13
 Energy =       0.0792834332
c    -3.6891254    1.7024289    0.2805183  0.00   -0.0087742   -0.0033371    0.0061997
c    -2.4507863    2.5942351    0.1983911  0.00    0.0234692    0.0847746    0.0293085
c    -4.9590878    2.4550926   -0.1736322  0.00    0.0027316    0.0024913    0.0055248
h    -5.8521413    1.7902493   -0.1128787  0.00   -0.0036209   -0.0024854   -0.0005528
h    -4.8460157    2.8171251   -1.2277803  0.00    0.0002592    0.0028646   -0.0080665
h    -5.1449721    3.3380921    0.4855251  0.00   -0.0024181    0.0025767    0.0038017
n    -3.4996741    0.4608535   -0.5154376  0.00    0.0236407   -0.0092988   -0.0134939
h    -3.7930251    1.4238905    1.3557804  0.00   -0.0002083   -0.0023084    0.0009003
h    -4.3352281    0.2600582   -1.1084781  0.00    0.0025352    0.0062136    0.0023212
h    -2.7051237    0.5879240   -1.1863816  0.00    0.0178281    0.0275412    0.0218507
o    -2.4655900    3.8660246    0.6354079  0.00   -0.0052741   -0.0684601   -0.0284489
o    -1.3077700    2.0492821   -0.3554412  0.00   -0.0630339   -0.0204272   -0.0549608
h    -0.8068442    1.5711720    0.4140062  0.00    0.0128655   -0.0201452    0.0356160
    13
 Energy =       0.0744484746
c    -3.7142620    1.7163747    0.2704196  0.00   -0.0060094    0.0006890    0.0035410
c    -2.4461538    2.5686914    0.2073269  0.00    0.0091476    0.0444784    0.0177385
c    -4.9451053    2.4865431   -0.2576064  0.00    0.0003584    0.0014873    0.0035685
h    -5.8605512    1.8561305   -0.1834853  0.00   -0.0025790   -0.0019392    0.0001376
h    -4.7916978    2.7888706   -1.3237971  0.00    0.0005239    0.0025484   -0.0066119
h    -5.1159714    3.4109555    0.3467724  0.00   -0.0021349    0.0032804    0.0031777
n    -3.5509760    0.4309166   -0.4579959  0.00    0.0073303   -0.0082504   -0.0003140
h    -3.8673947    1.4917851    1.3541656  0.00   -0.0006145   -0.0021338    0.0028734
h    -4.3580605    0.2424304   -1.0978828  0.00   -0.0009722    0.0033530   -0.0002200
h    -2.6945459    0.4609678   -1.0761356  0.00    0.0215106    0.0160035    0.0054041
o    -2.4626691    3.8854072    0.5762495  0.00   -0.0045554   -0.0321035   -0.0153199
o    -1.2670503    1.9866724   -0.2411909  0.00   -0.0321623   -0.0123645   -0.0379098
h    -0.7809459    1.5906826    0.5727594  0.00    0.0101569   -0.0150488    0.0239346
    13
 Energy =       0.0737268692
c    -3.7115964    1.7079254    0.2492047  0.00   -0.0030461    0.0012742    0.0024314
c    -2.4349043    2.5488126    0.1719605  0.00    0.0019192    0.0251284    0.0131598
c    -4.9528732    2.4970822   -0.2242096  0.00   -0.0007688    0.0015206    0.0022060
h    -5.8694118    1.8719186   -0.1328028  0.00   -0.0019565   -0.0012505    0.0001129
h    -4.8299857    2.8158620   -1.2877614  0.00    0.0004311    0.0017321   -0.0049677
h    -5.0961823    3.4125821    0.3986107  0.00   -0.0016129    0.0026111    0.0024387
n    -3.5930732    0.4316622   -0.5040070  0.00    0.0060557   -0.0074283    0.0089657
h    -3.8357954    1.4669774    1.3324145  0.00   -0.0004262   -0.0013128    0.0024588
h    -4.3619842    0.3211242   -1.2154081  0.00   -0.0085190    0.0010418   -0.0065963
h    -2.6900045    0.4082860   -1.0570827  0.00    0.0213802    0.0121963    0.0003422
o    -2.4647025    3.9076609    0.4174964  0.00   -0.0055423   -0.0105351   -0.0085214
o    -1.2307923    1.9289541   -0.1599346  0.00   -0.0176414   -0.0123276   -0.0329397
h    -0.7840781    1.5975800    0.7011187  0.00    0.0097270   -0.0126502    0.0209094
    13
 Energy =       0.0733294430
c    -3.7106240    1.7269604    0.2694685  0.00   -0.0005198    0.0046091    0.0040449
c    -2.4516271    2.5936006    0.1767325  0.00    0.0011191    0.0233893    0.0120619
c    -4.9514691    2.4633935   -0.2918041  0.00   -0.0031610    0.0018543    0.0017855
h    -5.8615223    1.8317488   -0.1822045  0.00   -0.0019847   -0.0013834    0.0001403
h    -4.8050569    2.7130984   -1.3729105  0.00    0.0003106    0.0023200   -0.0072763
h    -5.1258359    3.4178389    0.2664334  0.00   -0.0021076    0.0051529    0.0038003
n    -3.5440971    0.4057708   -0.3995866  0.00    0.0116110   -0.0117929    0.0144414
h    -3.8623409    1.5526629    1.3642540  0.00   -0.0002026   -0.0014086    0.0049003
h    -4.3470331    0.1883040   -1.0566550  0.00   -0.0168124   -0.0029300   -0.0141179
h    -2.6711860    0.4060974   -1.0010882  0.00    0.0225295    0.0122549   -0.0009767
o    -2.5063595    3.9463351    0.4552795  0.00   -0.0053115   -0.0086781   -0.0074385
o    -1.2395083    2.0102335   -0.1918144  0.00   -0.0146198   -0.0115483   -0.0312704
h    -0.7787237    1.6603835    0.6534948  0.00    0.0091492   -0.0118394    0.0199051
    13
 Energy =       0.0720586485
c    -3.6894705    1.7482639    0.2847696  0.00    0.0006448    0.0035520    0.0038092
c    -2.4683671    2.6635620    0.1213021  0.00    0.0009536    0.0122520    0.0067739
c    -4.9621280    2.4011452   -0.3046853  0.00   -0.0022872    0.0011873    0.0000224
h    -5.8497063    1.7493439   -0.1368317  0.00   -0.0023255   -0.0021892    0.0001098
h    -4.8406837    2.5822830   -1.4009238  0.00   -0.0001548    0.0019966   -0.0058227
h    -5.1565426    3.3857481    0.1891368  0.00   -0.0008656    0.0046147    0.0029337
n    -3.4922939    0.3922660   -0.2986923  0.00    0.0072158   -0.0097690    0.0106997
h    -3.8212632    1.6407056    1.3904805  0.00    0.0003595   -0.0012191    0.0045572
h    -4.3104123    0.0913283   -0.8979018  0.00   -0.0131679   -0.0037064   -0.0119539
h    -2.6550832    0.3840175   -0.9415176  0.00    0.0126022    0.0059241   -0.0008119
o    -2.5719674    4.0191782    0.3923788  0.00   -0.0022756   -0.0021245   -0.0030246
o    -1.2362682    2.1405485   -0.2636849  0.00   -0.0061875   -0.0042593   -0.0216197
h    -0.8011976    1.7180377    0.5557691  0.00    0.0054883   -0.0062594    0.0143268
    13
 Energy =       0.0714396027
c    -3.7098379    1.7455183    0.2815786  0.00    0.0005644    0.0018932    0.0040584
c    -2.4574849    2.6375119    0.2286058  0.00    0.0046066    0.0161990    0.0087795
c    -4.9247922    2.4412936   -0.3879444  0.00   -0.0045957    0.0030304   -0.0002591
h    -5.8432067    1.8137964   -0.2857181  0.00   -0.0053423   -0.0038514    0.0004254
h    -4.7263405    2.6312467   -1.4752418  0.00    0.0002912    0.0030177   -0.0098406
h    -5.1243804    3.4266163    0.1048985  0.00   -0.0012811    0.0055661    0.0035652
n    -3.4907307    0.4051055   -0.3303978  0.00    0.0069956   -0.0124694    0.0192590
h    -3.9229948    1.6088125    1.3756010  0.00   -0.0002196   -0.0021283    0.0090110
h    -4.3422380    0.0719972   -0.8711789  0.00   -0.0198066   -0.0058431   -0.0159031
h    -2.7004991    0.4565368   -1.0379038  0.00    0.0202045    0.0067120   -0.0072038
o    -2.5421731    3.9839099    0.5511319  0.00   -0.0016951   -0.0004061   -0.0032533
o    -1.2246854    2.0996409   -0.1364959  0.00   -0.0090477    0.0000870   -0.0324662
h    -0.8460202    1.5944420    0.6726643  0.00    0.0093259   -0.0118072    0.0238275
    13
 Energy =       0.0689712456
c    -3.7248631    1.7547610    0.2760139  0.00    0.0010379   -0.0012510    0.0012564
c    -2.4596019    2.6251490    0.3198809  0.00    0.0045558    0.0069828    0.0050058
c    -4.8747654    2.4652825   -0.4829189  0.00   -0.0051322    0.0028525   -0.0004131
h    -5.8148825    1.8681223   -0.4222895  0.00   -0.0043688   -0.0023756    0.0006943
h    -4.6051397    2.6218647   -1.5582663  0.00    0.0006668    0.0021234   -0.0080887
h    -5.0783388    3.4654258   -0.0276126  0.00   -0.0014829    0.0035972    0.0021773
n    -3.4756332    0.4238693   -0.3288959  0.00    0.0063607   -0.0055441    0.0244410
h    -4.0207444    1.6167864    1.3497928  0.00   -0.0008314   -0.0015614    0.0080640
h    -4.3596433    0.0213211   -0.7610790  0.00   -0.0220929   -0.0079237   -0.0140978
h    -2.7705389    0.5234734   -1.1202813  0.00    0.0203492    0.0062581   -0.0128820
o    -2.5398284    3.9559045    0.7098850  0.00    0.0003700    0.0028198   -0.0009070
o    -1.2183941    2.0925235   -0.0159695  0.00   -0.0087145    0.0075410   -0.0301053
h    -0.9130103    1.4819445    0.7513397  0.00    0.0092820   -0.0135190    0.0248552
    13
 Energy =       0.0675695505
c    -3.7422080    1.7588015    0.2731652  0.00    0.0016322   -0.0026750    0.0005164
c    -2.4709549    2.6104831    0.3821445  0.00    0.0039801    0.0006347    0.0014003
c    -4.8388883    2.4808267   -0.5467947  0.00   -0.0045578    0.0026328   -0.0003753
h    -5.7916119    1.9028243   -0.5248403  0.00   -0.0037522   -0.0017646    0.0006070
h    -4.5159190    2.6184952   -1.6085241  0.00    0.0007467    0.0016068   -0.0066842
h    -5.0440757    3.4890966   -0.1134357  0.00   -0.0012883    0.0025197    0.0014627
n    -3.4801756    0.4271450   -0.3160011  0.00    0.0048589   -0.0033614    0.0174210
h    -4.0950584    1.6280379    1.3294601  0.00   -0.0009331   -0.0012590    0.0067453
h    -4.3681078   -0.0025114   -0.7002121  0.00   -0.0158935   -0.0060178   -0.0100143
h    -2.8131866    0.5324757   -1.1335583  0.00    0.0142644    0.0045997   -0.0091738
o    -2.5430401    3.9127683    0.8686381  0.00    0.0003832    0.0077961    0.0016423
o    -1.2322908    2.0924389    0.0183870  0.00   -0.0054246    0.0041030   -0.0199790
h    -0.9198670    1.4655461    0.7611710  0.00    0.0059840   -0.0088149    0.0164316
    13
 Energy =       0.0663040920
c    -3.7624626    1.7684621    0.2761012  0.00    0.0027529   -0.0030000    0.0001674
c    -2.4887937    2.6010167    0.4438901  0.00    0.0024438   -0.0028418   -0.0008699
c    -4.7954526    2.4898735   -0.6201823  0.00   -0.0042399    0.0026060   -0.0002780
h    -5.7571470    1.9286732   -0.6435894  0.00   -0.0031839   -0.0010531    0.0004219
h    -4.4086648    2.5995562   -1.6628362  0.00    0.0010337    0.0010985   -0.0057721
h    -5.0072123    3.5095875   -0.2199211  0.00   -0.0011645    0.0018264    0.0009809
n    -3.4869697    0.4258176   -0.2735249  0.00    0.0045335   -0.0017807    0.0117874
h    -4.1781549    1.6633066    1.3115398  0.00   -0.0011967   -0.0009213    0.0056895
h    -4.3786048   -0.0380622   -0.5949890  0.00   -0.0112277   -0.0051032   -0.0066567
h    -2.8654082    0.5215028   -1.1228535  0.00    0.0090144    0.0034527   -0.0062725
o    -2.5564618    3.8647919    1.0273912  0.00   -0.0002920    0.0102087    0.0035263
o    -1.2546816    2.1114879    0.0284725  0.00   -0.0017529    0.0008081   -0.0123382
h    -0.9153698    1.4704141    0.7401009  0.00    0.0032793   -0.0053002    0.0096140
    13
 Energy =       0.0652177284
c    -3.7821754    1.7864027    0.2881716  0.00    0.0037197   -0.0007092    0.0004836
c    -2.5109618    2.6070136    0.4923549  0.00   -0.0015190   -0.0025372   -0.0003460
c    -4.7499722    2.4827474   -0.6934969  0.00   -0.0038260    0.0022305   -0.0003836
h    -5.7119100    1.9278678   -0.7602463  0.00   -0.0022283   -0.0002423    0.0000944
h    -4.2974142    2.5545344   -1.7119136  0.00    0.0012527    0.0005471   -0.0048029
h    -4.9762809    3.5167356   -0.3409950  0.00   -0.0010710    0.0017610    0.0008616
n    -3.4947200    0.4204448   -0.1905306  0.00    0.0045634   -0.0020016    0.0079710
h    -4.2564624    1.7304287    1.3016075  0.00   -0.0013932   -0.0004153    0.0047693
h    -4.3883549   -0.0795603   -0.4362358  0.00   -0.0079910   -0.0050000   -0.0041562
h    -2.9206704    0.4799238   -1.0731229  0.00    0.0052353    0.0024850   -0.0048823
o    -2.5763504    3.8251333    1.1648543  0.00   -0.0014473    0.0089086    0.0038519
o    -1.2860866    2.1678462   -0.0043639  0.00    0.0021742   -0.0004658   -0.0099821
h    -0.9040246    1.4969098    0.6535161  0.00    0.0025305   -0.0045608    0.0065213
    13
 Energy =       0.0644641368
c    -3.8014225    1.8073107    0.3001617  0.00    0.0030827    0.0011445    0.0006156
c    -2.5326578    2.6185548    0.5326603  0.00   -0.0028311   -0.0017719    0.0005619
c    -4.7033075    2.4676366   -0.7623377  0.00   -0.0027962    0.0015719   -0.0004803
h    -5.6590013    1.9103822   -0.8714953  0.00   -0.0013831    0.0000927   -0.0001872
h    -4.1870356    2.5037644   -1.7506721  0.00    0.0011462    0.0001345   -0.0033703
h    -4.9471859    3.5133244   -0.4610406  0.00   -0.0008245    0.0015154    0.0007009
n    -3.5075171    0.4180875   -0.0986016  0.00    0.0027989   -0.0025792    0.0042913
h    -4.3293030    1.8055306    1.2875321  0.00   -0.0013007   -0.0000158    0.0034886
h    -4.4011434   -0.1036848   -0.2774827  0.00   -0.0038003   -0.0032250   -0.0018421
h    -2.9666199    0.4244981   -1.0016137  0.00    0.0025314    0.0010994   -0.0033999
o    -2.5917467    3.7868948    1.2854982  0.00   -0.0015712    0.0058585    0.0029824
o    -1.3224049    2.2378264   -0.0414051  0.00    0.0024164    0.0006914   -0.0081937
h    -0.9060382    1.5263021    0.5483959  0.00    0.0025315   -0.0045163    0.0048327
    13
 Energy =       0.0640597391
c    -3.8200224    1.8310780    0.3118484  0.00    0.0014971    0.0018499    0.0006465
c    -2.5535175    2.6366562    0.5642167  0.00   -0.0018081   -0.0016400    0.0003755
c    -4.6557964    2.4419390   -0.8282672  0.00   -0.0015686    0.0005945   -0.0006228
h    -5.6006974    1.8758034   -0.9725605  0.00   -0.0004831    0.0001510   -0.0002352
h    -4.0798384    2.4388350   -1.7821966  0.00    0.0007663   -0.0000716   -0.0017228
h    -4.9172797    3.4984564   -0.5873846  0.00   -0.0005749    0.0012692    0.0004264
n    -3.5248289    0.4202841    0.0034462  0.00    0.0006951   -0.0025998    0.0017452
h    -4.3969444    1.8887288    1.2685247  0.00   -0.0009021    0.0001913    0.0019739
h    -4.4193532   -0.1115252   -0.1187296  0.00   -0.0006007   -0.0010804   -0.0002795
h    -3.0026638    0.3619731   -0.9071440  0.00    0.0010993   -0.0000674   -0.0021232
o    -2.5998855    3.7477325    1.3975083  0.00   -0.0011055    0.0032282    0.0021663
o    -1.3637750    2.3212473   -0.0836755  0.00    0.0007136    0.0020954   -0.0055225
h    -0.9207815    1.5652192    0.4240130  0.00    0.0022716   -0.0039205    0.0031722
    13
 Energy =       0.0639746035
c    -3.8286155    1.8429879    0.3168239  0.00   -0.0003160   -0.0002221    0.0000111
c    -2.5634037    2.6489531    0.5739231  0.00    0.0003491    0.0000370   -0.0002413
c    -4.6343685    2.4220988   -0.8571020  0.00    0.0001683   -0.0001765    0.0000591
h    -5.5747240    1.8512276   -1.0091225  0.00    0.0001408   -0.0000205    0.0000746
h    -4.0353064    2.3944441   -1.7940647  0.00   -0.0001302    0.0000489    0.0002092
h    -4.8998232    3.4836391   -0.6521412  0.00    0.0000533   -0.0000568   -0.0000285
n    -3.5352673    0.4245530    0.0565740  0.00   -0.0002199    0.0000909   -0.0003246
h    -4.4260215    1.9305945    1.2560885  0.00    0.0001522   -0.0000615   -0.0002419
h    -4.4313022   -0.1060204   -0.0525464  0.00    0.0002329    0.0003400    0.0000588
h    -3.0092559    0.3335840   -0.8471902  0.00   -0.0001083    0.0000122    0.0002234
o    -2.5990422    3.7265998    1.4467089  0.00    0.0000860   -0.0001710   -0.0001898
o    -1.3863072    2.3678306   -0.1062713  0.00   -0.0000048   -0.0005197    0.0007607
h    -0.9319462    1.5959359    0.3579192  0.00   -0.0004033    0.0006991   -0.0003708
    13
 Energy =       0.0639730303
c    -3.8301789    1.8448559    0.3176700  0.00   -0.0000213   -0.0000079    0.0000060
c    -2.5650760    2.6503748    0.5762388  0.00    0.0000246   -0.0000134   -0.0000214
c    -4.6308436    2.4199812   -0.8620979  0.00    0.0000008   -0.0000143   -0.0000015
h    -5.5712899    1.8495035   -1.0157326  0.00    0.0000119   -0.0000013    0.0000064
h    -4.0278680    2.3878260   -1.7966815  0.00   -0.0000024    0.0000033    0.0000041
h    -4.8961826    3.4826389   -0.6625234  0.00   -0.0000010    0.0000081   -0.0000017
n    -3.5370071    0.4248797    0.0646009  0.00   -0.0000179   -0.0000154   -0.0000172
h    -4.4313223    1.9371237    1.2544320  0.00    0.0000042   -0.0000021   -0.0000071
h    -4.4331458   -0.1062289   -0.0429693  0.00    0.0000221    0.0000301    0.0000061
h    -3.0101713    0.3293253   -0.8383469  0.00   -0.0000013   -0.0000033    0.0000061
o    -2.5994799    3.7235275    1.4548413  0.00    0.0000014    0.0000082    0.0000040
o    -1.3894631    2.3738412   -0.1090319  0.00    0.0000002   -0.0000289    0.0000393
h    -0.9333554    1.5987791    0.3491997  0.00   -0.0000213    0.0000369   -0.0000230
    13
 Energy =       0.0639730279
c    -3.8301868    1.8448666    0.3176790  0.00   -0.0000000   -0.0000000   -0.0000000
c    -2.5650955    2.6503867    0.5762760  0.00   -0.0000000   -0.0000000   -0.0000000
c    -4.6308266    2.4199809   -0.8621216  0.00    0.0000000   -0.0000000    0.0000000
h    -5.5713216    1.8495634   -1.0157502  0.00   -0.0000000   -0.0000000    0.0000000
h    -4.0278473    2.3877493   -1.7967052  0.00    0.0000000   -0.0000000   -0.0000000
h    -4.8961072    3.4826525   -0.6625828  0.00   -0.0000000    0.0000000   -0.0000000
n    -3.5369988    0.4248844    0.0646416  0.00    0.0000000    0.0000000    0.0000000
h    -4.4313609    1.9371483    1.2544292  0.00   -0.0000000    0.0000000    0.0000000
h    -4.4331239   -0.1062882   -0.0429241  0.00   -0.0000000   -0.0000000    0.0000000
h    -3.0101653    0.3293340   -0.8383115  0.00   -0.0000000   -0.0000000    0.0000000
o    -2.5994870    3.7234505    1.4549797  0.00   -0.0000000    0.0000000    0.0000000
o    -1.3894910    2.3739261   -0.1090710  0.00   -0.0000000    0.0000000   -0.0000000
h    -0.9333722    1.5987734    0.3490602  0.00    0.0000000   -0.0000000    0.0000000
