    27
 Energy =       0.5009010947
c    -1.4235396    2.6054793   -0.0667700  0.00   -0.0466123    0.0383902    0.0028502
c    -1.3072796    1.2134697   -0.1072300  0.00   -0.0852219   -0.0326060    0.0020709
c    -0.0178900    0.6711998   -0.1697000  0.00   -0.0889195   -0.1882841   -0.0012594
c    -0.2940599    3.4190890   -0.0891300  0.00   -0.0218909    0.0691398    0.0031335
c     0.9872197    2.8590292   -0.1560400  0.00    0.0504324    0.0711187    0.0019880
c     1.1340797    1.4562096   -0.1970299  0.00    0.0574831    0.0530841   -0.0043803
n     0.3879399   -0.6395298   -0.2140799  0.00    0.1430831    0.1101817   -0.0028339
c     2.2666594    0.5727398   -0.2659299  0.00    0.1538860   -0.1008071    0.0046700
c     1.7555995   -0.7123598   -0.2706899  0.00   -0.1017956   -0.0974057   -0.0006174
h    -0.2400399   -1.4313496   -0.2047299  0.00    0.0369712    0.0480754   -0.0006484
c     3.7030089    1.0223397   -0.3320099  0.00    0.0301274    0.0264523   -0.0552420
c     3.9341689    2.4461793   -0.8604738  0.00   -0.0485363   -0.1672625   -0.1078320
h     4.2453388    0.3150949   -0.9737027  0.00    0.1042289    0.1246329   -0.1646051
h     4.1472888    0.9178277    0.6672218  0.00   -0.0037792   -0.0011073   -0.0146604
c     5.4257385    2.6142793   -1.2047197  0.00    0.2531613    0.2621666    0.1361082
n     3.5749390    3.5208790    0.1316430  0.00   -1.0776207    0.0862897   -0.1613766
h     3.3678090    2.6262393   -1.7818095  0.00    0.0071766    0.0047909    0.0228184
h     4.1089188    3.3319090    0.9861927  0.00   -0.0170163    0.0018616   -0.0418140
h     3.9666689    4.4045787   -0.2125809  0.00   -0.0067235   -0.0482622    0.0079515
h    -2.4108593    3.0588691   -0.0157800  0.00   -0.0006801    0.0002066   -0.0000064
h    -2.1896094    0.5822398   -0.0890100  0.00   -0.0035733    0.0037653    0.0000372
h    -0.4052699    4.5000487   -0.0535400  0.00    0.0009759   -0.0001942    0.0001114
h     1.8590495    3.5066790   -0.1715100  0.00    1.1278240    0.0055784    0.1865301
h     2.2327294   -1.6813195   -0.3062999  0.00   -0.0410448   -0.0112201    0.0022954
o     6.1645482    3.4761890   -0.7584458  0.00   -0.1872436   -0.2044666   -0.1030256
o     5.8368683    1.6637395   -2.0867794  0.00   -0.0863563   -0.0202255    0.0262470
h     5.0250886    1.1277897   -2.2826993  0.00   -0.1483356   -0.0338928    0.2614896
    27
 Energy =       0.4407928779
c    -1.4031085    2.6494050   -0.0222982  0.00   -0.0387527    0.0316641    0.0023474
c    -1.3077152    1.2615441   -0.0649481  0.00   -0.0707522   -0.0273358    0.0016813
c    -0.0352086    0.7028847   -0.1220980  0.00   -0.0729367   -0.1546450   -0.0003046
c    -0.2629779    3.4419435   -0.0478690  0.00   -0.0184785    0.0573509    0.0026547
c     1.0021477    2.8592121   -0.1165732  0.00    0.0418635    0.0589702    0.0017722
c     1.1167021    1.4679864   -0.1476130  0.00    0.0476047    0.0439070   -0.0036496
n     0.3368578   -0.6230213   -0.2088877  0.00    0.1184716    0.0896962   -0.0034372
c     2.2283781    0.5906086   -0.2255225  0.00    0.1257287   -0.0828097    0.0031653
c     1.7160956   -0.6881851   -0.2433722  0.00   -0.0840746   -0.0797049   -0.0000869
h    -0.3043886   -1.4123483   -0.2267101  0.00    0.0301881    0.0393298   -0.0008305
c     3.6737173    1.0045477   -0.3459632  0.00    0.0219178    0.0265633   -0.0448922
c     3.9497314    2.4324135   -0.8520113  0.00   -0.0404898   -0.1387713   -0.0898578
h     4.1032699    0.2951253   -1.0707061  0.00    0.0873071    0.0978797   -0.1407855
h     4.1876210    0.8352397    0.6185921  0.00   -0.0003355   -0.0008589   -0.0079413
c     5.4254511    2.5539392   -1.2593724  0.00    0.2079961    0.2173527    0.1145030
n     3.6354072    3.4993944    0.1661562  0.00   -0.9190354    0.0720582   -0.1384345
h     3.3594893    2.6366674   -1.7584764  0.00    0.0051804    0.0040716    0.0185986
h     4.2676719    3.3380203    0.9711485  0.00   -0.0071607   -0.0001676   -0.0269793
h     3.9754752    4.3915343   -0.2287314  0.00   -0.0034368   -0.0371742    0.0033905
h    -2.3833434    3.1184029    0.0256318  0.00   -0.0007183    0.0002194    0.0000032
h    -2.1984769    0.6417664   -0.0577525  0.00   -0.0030914    0.0029911    0.0000097
h    -0.3548109    4.5251486   -0.0190662  0.00    0.0007787    0.0000649    0.0001133
h     1.8988685    3.4671082   -0.1537913  0.00    0.9529650    0.0031359    0.1559615
h     2.2128557   -1.6466525   -0.3125871  0.00   -0.0337672   -0.0099048    0.0018565
o     6.2339881    3.4085543   -0.8379209  0.00   -0.1528706   -0.1677662   -0.0855359
o     5.7902753    1.6116600   -2.1799116  0.00   -0.0711247   -0.0186871    0.0198056
h     4.9711410    1.0846403   -2.3649790  0.00   -0.1229764   -0.0274294    0.2168723
    27
 Energy =       0.3882563385
c    -1.4306183    2.5406467   -0.0392455  0.00   -0.0316774    0.0260140    0.0018970
c    -1.2897020    1.1623884   -0.0865819  0.00   -0.0576678   -0.0224743    0.0013486
c    -0.0077202    0.6449650   -0.1560839  0.00   -0.0589401   -0.1238308   -0.0010691
c    -0.3204327    3.3659344   -0.0579429  0.00   -0.0147770    0.0469263    0.0021309
c     0.9566891    2.8275443   -0.1303944  0.00    0.0334621    0.0469549    0.0012412
c     1.1138438    1.4432532   -0.1849311  0.00    0.0385426    0.0352617   -0.0030835
n     0.3970700   -0.6846646   -0.2056848  0.00    0.0932726    0.0713380   -0.0013608
c     2.2471307    0.6085202   -0.2706794  0.00    0.1012079   -0.0663212    0.0017775
c     1.7865557   -0.6813331   -0.2808887  0.00   -0.0659696   -0.0626595   -0.0007185
h    -0.2115205   -1.5083201   -0.1927838  0.00    0.0230634    0.0294534   -0.0003476
c     3.6959663    1.0481525   -0.3424421  0.00    0.0156674    0.0237081   -0.0362201
c     3.9314183    2.4761273   -0.8530032  0.00   -0.0348868   -0.1127299   -0.0722875
h     4.2215528    0.3410197   -1.0184018  0.00    0.0756072    0.0770927   -0.1181428
h     4.1574865    0.9310568    0.6603450  0.00    0.0012116   -0.0000860   -0.0034930
c     5.3993124    2.6617550   -1.2596357  0.00    0.1654302    0.1734047    0.0907658
n     3.5837734    3.4992761    0.1832183  0.00   -0.7587417    0.0515178   -0.1130813
h     3.3315196    2.6658108   -1.7596552  0.00    0.0040195    0.0033219    0.0149695
h     4.2426196    3.3740906    0.9787512  0.00   -0.0043120   -0.0007056   -0.0208271
h     3.8421001    4.4301694   -0.2043991  0.00   -0.0019588   -0.0239897    0.0003752
h    -2.4257307    2.9774764    0.0179570  0.00   -0.0012049    0.0005232    0.0000370
h    -2.1589816    0.5122534   -0.0678208  0.00   -0.0031515    0.0020061    0.0000385
h    -0.4476714    4.4458076   -0.0115604  0.00    0.0006137    0.0008778    0.0001456
h     1.8202903    3.4886685   -0.1325571  0.00    0.7856683    0.0057811    0.1291376
h     2.3432540   -1.6090117   -0.3349135  0.00   -0.0261035   -0.0097403    0.0013048
o     6.1624817    3.5668622   -0.7714820  0.00   -0.1218201   -0.1312416   -0.0649660
o     5.8326725    1.7704131   -2.2052439  0.00   -0.0470892   -0.0108009    0.0134464
h     5.0617547    1.1486775   -2.3595730  0.00   -0.1094661   -0.0296018    0.1769820
    27
 Energy =       0.3045489309
c    -1.4319797    2.4963316    0.0171706  0.00   -0.0152818    0.0130058    0.0007101
c    -1.2732118    1.1326129   -0.0324930  0.00   -0.0286818   -0.0109006    0.0003101
c    -0.0030344    0.6350219   -0.1196273  0.00   -0.0294640   -0.0616487   -0.0014658
c    -0.3376551    3.3267530   -0.0126033  0.00   -0.0071762    0.0231462    0.0008806
c     0.9307086    2.8026807   -0.1025977  0.00    0.0181714    0.0233987    0.0006697
c     1.0897817    1.4392967   -0.1669506  0.00    0.0185453    0.0184617   -0.0013852
n     0.3939342   -0.7116123   -0.1683857  0.00    0.0433783    0.0352332    0.0013829
c     2.2161329    0.6492980   -0.2839781  0.00    0.0507239   -0.0325155    0.0015441
c     1.7994260   -0.6427694   -0.2902274  0.00   -0.0324798   -0.0287394   -0.0014589
h    -0.2023839   -1.5576732   -0.1349810  0.00    0.0113676    0.0138481    0.0001794
c     3.6736977    1.0708937   -0.3969015  0.00    0.0085671    0.0125099   -0.0205680
c     3.9394053    2.5154404   -0.8610602  0.00   -0.0139121   -0.0609635   -0.0393637
h     4.1421575    0.3829372   -1.1354326  0.00    0.0455036    0.0449680   -0.0739590
h     4.1771636    0.8928257    0.5810458  0.00    0.0020665   -0.0005568    0.0007669
c     5.3851800    2.6800133   -1.3331742  0.00    0.0807393    0.0869210    0.0479518
n     3.6192467    3.4835661    0.2266547  0.00   -0.4689757    0.0264587   -0.0701970
h     3.3130795    2.7428064   -1.7496176  0.00    0.0012596    0.0018617    0.0064874
h     4.2723413    3.2992467    1.0240965  0.00   -0.0001819   -0.0013539   -0.0084413
h     3.8825880    4.4441852   -0.0984390  0.00   -0.0006659   -0.0086954   -0.0000898
h    -2.4311330    2.9208949    0.0889728  0.00   -0.0007728    0.0003602    0.0000067
h    -2.1307423    0.4679862   -0.0004491  0.00   -0.0017928    0.0009056    0.0000096
h    -0.4744975    4.4049937    0.0404807  0.00    0.0002999    0.0005067    0.0000652
h     1.7900917    3.4621366   -0.1065117  0.00    0.4784754    0.0016768    0.0787488
h     2.4238045   -1.5286153   -0.3764969  0.00   -0.0108500   -0.0066173    0.0000873
o     6.2003631    3.6164420   -0.8417978  0.00   -0.0599147   -0.0652233   -0.0333364
o     5.8118087    1.8310055   -2.3340030  0.00   -0.0220029   -0.0058967    0.0044963
h     5.0588408    1.1908413   -2.5183261  0.00   -0.0669454   -0.0201510    0.1059680
    27
 Energy =       0.2994504074
c    -1.4374171    2.4900353   -0.0180515  0.00   -0.0149915    0.0124077    0.0006861
c    -1.2785155    1.1282748   -0.1029643  0.00   -0.0274995   -0.0110496    0.0002890
c    -0.0079099    0.6323615   -0.1804729  0.00   -0.0280673   -0.0581816   -0.0012455
c    -0.3423875    3.3202957   -0.0047002  0.00   -0.0063605    0.0225863    0.0008317
c     0.9270300    2.7982725   -0.0837510  0.00    0.0175236    0.0229292    0.0006309
c     1.0858797    1.4366282   -0.1831007  0.00    0.0180280    0.0178925   -0.0013438
n     0.3861802   -0.7140355   -0.2770529  0.00    0.0404744    0.0326829    0.0011919
c     2.2131473    0.6493063   -0.2980409  0.00    0.0483745   -0.0304402    0.0014535
c     1.7965812   -0.6419615   -0.3486635  0.00   -0.0303211   -0.0274889   -0.0013241
h    -0.2130232   -1.5606088   -0.2937341  0.00    0.0096618    0.0115527    0.0001059
c     3.6742010    1.0720806   -0.3614500  0.00    0.0084437    0.0125941   -0.0197579
c     3.9468054    2.5192696   -0.8135569  0.00   -0.0132471   -0.0581896   -0.0376540
h     4.1720358    0.3860749   -1.0839461  0.00    0.0438359    0.0427292   -0.0710237
h     4.1450536    0.8941314    0.6330849  0.00    0.0022660   -0.0005497    0.0013023
c     5.3950524    2.6876565   -1.2773557  0.00    0.0770117    0.0828887    0.0457634
n     3.6212772    3.4758335    0.2811036  0.00   -0.4478909    0.0251597   -0.0669665
h     3.3260035    2.7558343   -1.7039665  0.00    0.0011838    0.0017761    0.0061278
h     4.2728329    3.2878162    1.0791809  0.00   -0.0001722   -0.0012900   -0.0080358
h     3.8809531    4.4406992   -0.0349793  0.00   -0.0006147   -0.0082105   -0.0001085
h    -2.4377112    2.9132034    0.0457628  0.00   -0.0008105    0.0002937    0.0000067
h    -2.1371751    0.4632822   -0.1094698  0.00   -0.0022585    0.0002975   -0.0000033
h    -0.4797721    4.3971438    0.0753503  0.00    0.0004029    0.0008885    0.0000868
h     1.7856378    3.4595104   -0.0509392  0.00    0.4574445    0.0021470    0.0752619
h     2.4247930   -1.5248235   -0.4377954  0.00   -0.0103960   -0.0063845    0.0000992
o     6.2020420    3.6330700   -0.7825586  0.00   -0.0571276   -0.0621324   -0.0317685
o     5.8323189    1.8435931   -2.2781876  0.00   -0.0208503   -0.0055834    0.0042605
h     5.0812008    1.2045949   -2.4753783  0.00   -0.0640428   -0.0193252    0.1011339
    27
 Energy =       0.2838187689
c    -1.4465684    2.4642192   -0.0374541  0.00   -0.0128466    0.0105054    0.0005737
c    -1.2787455    1.1083348   -0.1633079  0.00   -0.0229136   -0.0099562    0.0002654
c    -0.0072363    0.6220804   -0.2387210  0.00   -0.0233881   -0.0478091   -0.0005393
c    -0.3573009    3.2984823    0.0179919  0.00   -0.0047964    0.0193549    0.0006369
c     0.9141961    2.7860584   -0.0573613  0.00    0.0147081    0.0198336    0.0004601
c     1.0800680    1.4301703   -0.1986020  0.00    0.0152422    0.0150443   -0.0012112
n     0.3898216   -0.7219288   -0.3870652  0.00    0.0332410    0.0260845    0.0004985
c     2.2101890    0.6546750   -0.3203777  0.00    0.0402354   -0.0247602    0.0012451
c     1.8041628   -0.6359714   -0.4178346  0.00   -0.0249434   -0.0231103   -0.0008019
h    -0.2064916   -1.5714326   -0.4524872  0.00    0.0069516    0.0079924   -0.0001362
c     3.6733652    1.0794474   -0.3390802  0.00    0.0072780    0.0108497   -0.0166017
c     3.9522456    2.5337018   -0.7668216  0.00   -0.0107753   -0.0486162   -0.0316355
h     4.1964887    0.4015781   -1.0530561  0.00    0.0373886    0.0358909   -0.0603542
h     4.1156639    0.8921358    0.6668040  0.00    0.0020897   -0.0004421    0.0015289
c     5.3997516    2.7118172   -1.2311518  0.00    0.0638349    0.0686544    0.0381878
n     3.6250646    3.4638405    0.3464938  0.00   -0.3784696    0.0205417   -0.0563673
h     3.3317204    2.7874041   -1.6538021  0.00    0.0009644    0.0015084    0.0049195
h     4.2787657    3.2659092    1.1412220  0.00   -0.0001062   -0.0011066   -0.0065772
h     3.8739169    4.4385637    0.0498175  0.00   -0.0004383   -0.0063797   -0.0002094
h    -2.4500161    2.8799593    0.0244986  0.00   -0.0007247    0.0002519    0.0000087
h    -2.1332673    0.4387080   -0.2063602  0.00   -0.0023477   -0.0003187   -0.0000390
h    -0.5017004    4.3719653    0.1302600  0.00    0.0004252    0.0013317    0.0001232
h     1.7662320    3.4536148    0.0126594  0.00    0.3866100    0.0026019    0.0637442
h     2.4456514   -1.5084485   -0.5163017  0.00   -0.0086198   -0.0055145    0.0001161
o     6.1964530    3.6770674   -0.7334745  0.00   -0.0473786   -0.0512778   -0.0263690
o     5.8529932    1.8832402   -2.2399043  0.00   -0.0167781   -0.0043942    0.0034398
h     5.1096908    1.2423475   -2.4622166  0.00   -0.0544427   -0.0167603    0.0850939
    27
 Energy =       0.2601368013
c    -1.4617321    2.4078014   -0.0281246  0.00   -0.0088893    0.0075862    0.0003748
c    -1.2731890    1.0637017   -0.2081088  0.00   -0.0150188   -0.0076832    0.0001717
c     0.0008326    0.5990089   -0.2944252  0.00   -0.0155579   -0.0311698    0.0004069
c    -0.3865023    3.2520861    0.0707138  0.00   -0.0026645    0.0136529    0.0002900
c     0.8893900    2.7608367   -0.0143930  0.00    0.0098328    0.0142368    0.0002199
c     1.0728121    1.4166658   -0.2124131  0.00    0.0101367    0.0098057   -0.0009973
n     0.4088615   -0.7386164   -0.5009095  0.00    0.0219573    0.0156710   -0.0003799
c     2.2092709    0.6655406   -0.3582111  0.00    0.0266352   -0.0156344    0.0010681
c     1.8261000   -0.6243201   -0.5105639  0.00   -0.0165865   -0.0159237   -0.0001417
h    -0.1777029   -1.5941784   -0.6112403  0.00    0.0036769    0.0036928   -0.0004038
c     3.6733486    1.0943194   -0.3417695  0.00    0.0049916    0.0067312   -0.0111722
c     3.9546586    2.5639469   -0.7211033  0.00   -0.0062618   -0.0328094   -0.0220491
h     4.2129532    0.4355383   -1.0626856  0.00    0.0265232    0.0247706   -0.0430491
h     4.0969612    0.8794470    0.6663165  0.00    0.0015232   -0.0003271    0.0014979
c     5.3961396    2.7686689   -1.1997057  0.00    0.0407709    0.0431300    0.0255771
n     3.6332539    3.4402651    0.4327519  0.00   -0.2688440    0.0124977   -0.0387162
h     3.3241157    2.8497760   -1.5933229  0.00    0.0004823    0.0012366    0.0025334
h     4.2996110    3.2225815    1.2133559  0.00    0.0002652   -0.0009895   -0.0037376
h     3.8562838    4.4338788    0.1735499  0.00   -0.0000881   -0.0023006   -0.0006245
h    -2.4713316    2.8068750    0.0428566  0.00   -0.0006366    0.0003698    0.0000325
h    -2.1169224    0.3835128   -0.2862414  0.00   -0.0019807   -0.0008658   -0.0000888
h    -0.5468555    4.3185333    0.2267772  0.00    0.0002738    0.0020343    0.0002217
h     1.7266987    3.4411369    0.0943968  0.00    0.2730550    0.0031479    0.0455332
h     2.4914487   -1.4764920   -0.6339414  0.00   -0.0052995   -0.0042906    0.0000487
o     6.1681439    3.7804213   -0.7117714  0.00   -0.0300530   -0.0316111   -0.0173283
o     5.8768393    1.9711210   -2.2250028  0.00   -0.0090284   -0.0018935    0.0018194
h     5.1516265    1.3254830   -2.4924178  0.00   -0.0392152   -0.0130647    0.0588933
    27
 Energy =       0.2510976439
c    -1.4683404    2.3498530    0.0235180  0.00   -0.0072787    0.0064892    0.0003198
c    -1.2619930    1.0146864   -0.1886776  0.00   -0.0120944   -0.0064087    0.0001007
c     0.0158723    0.5701022   -0.2968956  0.00   -0.0124267   -0.0247825    0.0004275
c    -0.4051605    3.2055330    0.1331713  0.00   -0.0023408    0.0112651    0.0002324
c     0.8757356    2.7349244    0.0254633  0.00    0.0079191    0.0116161    0.0001992
c     1.0763349    1.3990417   -0.2070557  0.00    0.0079270    0.0076649   -0.0008084
n     0.4361046   -0.7594573   -0.5370387  0.00    0.0174192    0.0120068   -0.0003838
c     2.2196050    0.6672782   -0.3854118  0.00    0.0213688   -0.0123355    0.0009737
c     1.8526942   -0.6227201   -0.5635788  0.00   -0.0129653   -0.0128783   -0.0001213
h    -0.1412805   -1.6206195   -0.6586586  0.00    0.0028508    0.0027315   -0.0003532
c     3.6826888    1.1051901   -0.3854096  0.00    0.0037777    0.0045765   -0.0087428
c     3.9450134    2.5923922   -0.7150549  0.00   -0.0049507   -0.0270425   -0.0191973
h     4.2110287    0.4711016   -1.1366899  0.00    0.0216372    0.0191849   -0.0352000
h     4.1267196    0.8576237    0.6066815  0.00    0.0014399   -0.0006197    0.0019476
c     5.3725175    2.8486785   -1.2205315  0.00    0.0290187    0.0275914    0.0190310
n     3.6354149    3.4108853    0.4830316  0.00   -0.2212365    0.0093396   -0.0293149
h     3.2910439    2.9049729   -1.5618730  0.00    0.0000825    0.0014954    0.0012102
h     4.3263587    3.1769042    1.2383758  0.00    0.0009806   -0.0012966   -0.0020189
h     3.8245657    4.4221390    0.2614805  0.00    0.0000035    0.0004968   -0.0011116
h    -2.4829097    2.7328581    0.1125296  0.00   -0.0007697    0.0005033    0.0000613
h    -2.0963751    0.3243821   -0.2747606  0.00   -0.0016601   -0.0007967   -0.0000822
h    -0.5795592    4.2656183    0.3160980  0.00    0.0000960    0.0020984    0.0002527
h     1.6999586    3.4285439    0.1456806  0.00    0.2219353    0.0030972    0.0373011
h     2.5314921   -1.4596857   -0.7186907  0.00   -0.0037638   -0.0039593   -0.0000671
o     6.0871238    3.9391744   -0.7888176  0.00   -0.0190280   -0.0185106   -0.0125963
o     5.8830277    2.0705482   -2.2479675  0.00   -0.0059620   -0.0007443    0.0009097
h     5.1774325    1.4175909   -2.5445508  0.00   -0.0319794   -0.0107824    0.0470307
    27
 Energy =       0.2492327668
c    -1.4788072    2.3719621   -0.0206088  0.00   -0.0073546    0.0062494    0.0002964
c    -1.2774938    1.0386421   -0.2487439  0.00   -0.0119860   -0.0064512    0.0000756
c    -0.0008673    0.5882252   -0.3455781  0.00   -0.0122811   -0.0244159    0.0004126
c    -0.4118616    3.2194627    0.1163988  0.00   -0.0021333    0.0112266    0.0002521
c     0.8675598    2.7420099    0.0212094  0.00    0.0079513    0.0115301    0.0001927
c     1.0629058    1.4093617   -0.2276690  0.00    0.0079168    0.0075949   -0.0007709
n     0.4150702   -0.7402402   -0.5989576  0.00    0.0166790    0.0117589   -0.0003807
c     2.2043646    0.6743017   -0.3961274  0.00    0.0206680   -0.0119389    0.0010030
c     1.8331370   -0.6114458   -0.5967464  0.00   -0.0125429   -0.0126863   -0.0001053
h    -0.1655426   -1.5959964   -0.7440291  0.00    0.0025084    0.0022954   -0.0004113
c     3.6700683    1.1019600   -0.3553317  0.00    0.0040117    0.0045394   -0.0085056
c     3.9619464    2.5832109   -0.6891214  0.00   -0.0056949   -0.0269993   -0.0190715
h     4.2119672    0.4607626   -1.0911374  0.00    0.0213629    0.0187298   -0.0346070
h     4.0847580    0.8549571    0.6500181  0.00    0.0015790   -0.0007769    0.0023530
c     5.4122590    2.8034628   -1.1494151  0.00    0.0242418    0.0209622    0.0156755
n     3.6338021    3.4190963    0.4915155  0.00   -0.2178293    0.0090605   -0.0283272
h     3.3364572    2.8993064   -1.5566647  0.00   -0.0003225    0.0017853    0.0008206
h     4.3015683    3.1834181    1.2677271  0.00    0.0014575   -0.0015132   -0.0014008
h     3.8428971    4.4248151    0.2625124  0.00   -0.0000861    0.0008999   -0.0012591
h    -2.4922943    2.7599025    0.0593195  0.00   -0.0008282    0.0004691    0.0000571
h    -2.1147063    0.3545034   -0.3564712  0.00   -0.0018275   -0.0009577   -0.0001074
h    -0.5821493    4.2780041    0.3119391  0.00    0.0001404    0.0021596    0.0002642
h     1.6950212    3.4256871    0.1645523  0.00    0.2176496    0.0032118    0.0364559
h     2.5102354   -1.4509566   -0.7456823  0.00   -0.0036424   -0.0038842   -0.0000646
o     6.1764943    3.8268884   -0.6300645  0.00   -0.0126566   -0.0115888   -0.0095725
o     5.9230583    2.0356975   -2.1847558  0.00   -0.0056542   -0.0005572    0.0007993
h     5.2152662    1.3905409   -2.4937207  0.00   -0.0313267   -0.0107032    0.0459256
    27
 Energy =       0.2451134829
c    -1.4927022    2.3648603   -0.0386053  0.00   -0.0069057    0.0057484    0.0002819
c    -1.2875322    1.0391362   -0.3026976  0.00   -0.0108024   -0.0063863   -0.0000239
c    -0.0101763    0.5933331   -0.4007146  0.00   -0.0111895   -0.0221159    0.0004279
c    -0.4282463    3.2088102    0.1336281  0.00   -0.0015852    0.0105501    0.0002866
c     0.8520550    2.7351250    0.0380950  0.00    0.0071895    0.0109694    0.0002360
c     1.0510826    1.4115079   -0.2487791  0.00    0.0073030    0.0068169   -0.0007289
n     0.4081471   -0.7279502   -0.6883182  0.00    0.0150819    0.0101399   -0.0004823
c     2.1941678    0.6834166   -0.4261881  0.00    0.0185864   -0.0103654    0.0009869
c     1.8263986   -0.5968422   -0.6657380  0.00   -0.0114386   -0.0118831   -0.0001162
h    -0.1705875   -1.5798920   -0.8649258  0.00    0.0018231    0.0013759   -0.0005181
c     3.6609763    1.1051984   -0.3537484  0.00    0.0035616    0.0040778   -0.0076635
c     3.9751482    2.5891823   -0.6583555  0.00   -0.0057577   -0.0244793   -0.0172811
h     4.2072606    0.4740837   -1.0952927  0.00    0.0190058    0.0166782   -0.0312351
h     4.0592540    0.8367310    0.6528361  0.00    0.0015280   -0.0007833    0.0024448
c     5.4423586    2.7977342   -1.0743592  0.00    0.0188187    0.0157011    0.0119809
n     3.6296409    3.4115524    0.5249606  0.00   -0.1969449    0.0079906   -0.0256384
h     3.3727568    2.9239867   -1.5356595  0.00   -0.0005858    0.0017307    0.0003876
h     4.2775453    3.1605657    1.3137305  0.00    0.0016859   -0.0014416   -0.0007442
h     3.8498070    4.4185871    0.3130612  0.00   -0.0000455    0.0011214   -0.0012332
h    -2.5073244    2.7493668    0.0425790  0.00   -0.0007556    0.0004425    0.0000553
h    -2.1226750    0.3570613   -0.4378944  0.00   -0.0018772   -0.0012013   -0.0001587
h    -0.6014303    4.2612518    0.3586788  0.00    0.0001680    0.0024257    0.0003313
h     1.6760124    3.4136094    0.2133094  0.00    0.1967174    0.0032139    0.0330007
h     2.5071716   -1.4310840   -0.8272587  0.00   -0.0032769   -0.0036345   -0.0000750
o     6.2245217    3.7667888   -0.4713114  0.00   -0.0074226   -0.0060995   -0.0059564
o     5.9711543    2.0586145   -2.1222677  0.00   -0.0042640   -0.0003718    0.0004804
h     5.2703293    1.4228044   -2.4643971  0.00   -0.0286178   -0.0102206    0.0409546
    27
 Energy =       0.2420977086
c    -1.5122666    2.3188244   -0.0211584  0.00   -0.0065980    0.0058004    0.0003901
c    -1.2921488    1.0072000   -0.3386914  0.00   -0.0096144   -0.0067543   -0.0002534
c    -0.0105214    0.5794215   -0.4532091  0.00   -0.0101275   -0.0196727    0.0004986
c    -0.4575849    3.1657456    0.1895848  0.00   -0.0012113    0.0102988    0.0004364
c     0.8273459    2.7094200    0.0781017  0.00    0.0062110    0.0108951    0.0004297
c     1.0419452    1.4018822   -0.2671075  0.00    0.0064783    0.0057513   -0.0007711
n     0.4198146   -0.7261271   -0.7952187  0.00    0.0141109    0.0078033   -0.0007854
c     2.1922909    0.6937945   -0.4766390  0.00    0.0169673   -0.0085037    0.0009774
c     1.8367498   -0.5799746   -0.7676806  0.00   -0.0104311   -0.0114908   -0.0002578
h    -0.1504925   -1.5766812   -1.0070615  0.00    0.0011303    0.0002837   -0.0006965
c     3.6593701    1.1182386   -0.3962944  0.00    0.0017207    0.0031761   -0.0066694
c     3.9822178    2.6157794   -0.6318530  0.00   -0.0058410   -0.0216807   -0.0165285
h     4.1934035    0.5222558   -1.1773924  0.00    0.0163702    0.0131067   -0.0281718
h     4.0674812    0.7998183    0.5927820  0.00    0.0017391   -0.0012316    0.0034308
c     5.4637992    2.8435917   -0.9954014  0.00    0.0147000    0.0131168    0.0099564
n     3.6107479    3.3896856    0.5746477  0.00   -0.1762732    0.0066444   -0.0217229
h     3.3998791    2.9857827   -1.5092797  0.00   -0.0008015    0.0016472   -0.0004583
h     4.2392859    3.1082195    1.3696524  0.00    0.0020308   -0.0012894    0.0004129
h     3.8308339    4.4059564    0.4075971  0.00    0.0003191    0.0026367   -0.0013282
h    -2.5310918    2.6891349    0.0737145  0.00   -0.0008253    0.0006320    0.0001065
h    -2.1195000    0.3217529   -0.5033021  0.00   -0.0019002   -0.0015520   -0.0002500
h    -0.6423982    4.2063517    0.4599814  0.00    0.0000424    0.0033352    0.0005868
h     1.6398206    3.3879584    0.2925792  0.00    0.1755495    0.0034289    0.0296995
h     2.5269016   -1.3995346   -0.9648621  0.00   -0.0025606   -0.0039874   -0.0002445
o     6.2284034    3.7783909   -0.3125583  0.00   -0.0038946   -0.0021579   -0.0028233
o     6.0354066    2.1541206   -2.0561850  0.00   -0.0011581   -0.0001575   -0.0006425
h     5.3554210    1.5265312   -2.4503790  0.00   -0.0261328   -0.0100788    0.0346783
    27
 Energy =       0.2433994775
c    -1.5267645    2.2377209    0.0401853  0.00   -0.0068759    0.0062546    0.0005286
c    -1.2846631    0.9385993   -0.3117591  0.00   -0.0098501   -0.0069642   -0.0003088
c     0.0039599    0.5392739   -0.4546917  0.00   -0.0101540   -0.0191991    0.0005825
c    -0.4863502    3.0993673    0.2597235  0.00   -0.0016528    0.0107074    0.0005915
c     0.8058791    2.6713540    0.1197374  0.00    0.0062871    0.0111174    0.0005521
c     1.0436303    1.3785074   -0.2664300  0.00    0.0060774    0.0053685   -0.0007621
n     0.4538574   -0.7490595   -0.8367287  0.00    0.0137931    0.0070256   -0.0009628
c     2.2051949    0.6995331   -0.5198194  0.00    0.0164617   -0.0080099    0.0008549
c     1.8679514   -0.5738179   -0.8358018  0.00   -0.0098034   -0.0114899   -0.0002742
h    -0.1031554   -1.6062693   -1.0577004  0.00    0.0010094    0.0000455   -0.0007471
c     3.6704696    1.1465043   -0.4850308  0.00   -0.0005196    0.0031957   -0.0060061
c     3.9721773    2.6630218   -0.6379256  0.00   -0.0062538   -0.0206735   -0.0185897
h     4.1689198    0.6080051   -1.3361455  0.00    0.0171871    0.0099371   -0.0300875
h     4.1321106    0.7695653    0.4631272  0.00    0.0030338   -0.0029872    0.0065510
c     5.4567123    2.9390847   -0.9684246  0.00    0.0135597    0.0131608    0.0100735
n     3.5785975    3.3694929    0.6029157  0.00   -0.1751030    0.0058636   -0.0186143
h     3.3912977    3.0682137   -1.5013207  0.00   -0.0008492    0.0018777   -0.0012333
h     4.2007454    3.0547529    1.3912005  0.00    0.0023903   -0.0013361    0.0014837
h     3.7842942    4.3978887    0.4905880  0.00    0.0007584    0.0053034   -0.0015275
h    -2.5516542    2.5854213    0.1579761  0.00   -0.0013019    0.0009253    0.0001980
h    -2.1006067    0.2407496   -0.4818336  0.00   -0.0019934   -0.0016508   -0.0002732
h    -0.6881318    4.1286564    0.5619172  0.00   -0.0002078    0.0039688    0.0007827
h     1.6034298    3.3588379    0.3527735  0.00    0.1725471    0.0035710    0.0292691
h     2.5702955   -1.3725359   -1.0764923  0.00   -0.0016435   -0.0048429   -0.0005276
o     6.1866593    3.8646418   -0.2337226  0.00   -0.0025862   -0.0004348   -0.0013849
o     6.0680903    2.3077160   -2.0441792  0.00    0.0013180   -0.0005157   -0.0023615
h     5.4121677    1.6823139   -2.4777712  0.00   -0.0256285   -0.0102182    0.0321929
    27
 Energy =       0.2400836922
c    -1.5274387    2.3092024   -0.0201248  0.00   -0.0066167    0.0058699    0.0005188
c    -1.3019493    1.0045344   -0.3612138  0.00   -0.0094724   -0.0064653   -0.0002702
c    -0.0185087    0.5828523   -0.4821575  0.00   -0.0096525   -0.0177316    0.0005770
c    -0.4758785    3.1551253    0.2074926  0.00   -0.0017563    0.0101642    0.0006212
c     0.8111516    2.7045437    0.0896155  0.00    0.0061414    0.0103642    0.0005582
c     1.0316745    1.4042733   -0.2793074  0.00    0.0054864    0.0049676   -0.0006328
n     0.4152353   -0.7164794   -0.8459321  0.00    0.0121827    0.0064366   -0.0009366
c     2.1852754    0.7022548   -0.4991032  0.00    0.0142025   -0.0072005    0.0006838
c     1.8329073   -0.5672074   -0.8128291  0.00   -0.0086624   -0.0105645   -0.0001541
h    -0.1531486   -1.5645191   -1.0739215  0.00    0.0007913   -0.0001210   -0.0007369
c     3.6569656    1.1185829   -0.4035678  0.00   -0.0013191    0.0033280   -0.0050785
c     3.9943206    2.6202750   -0.6223383  0.00   -0.0058280   -0.0183627   -0.0187522
h     4.1919384    0.5257534   -1.1949023  0.00    0.0176521    0.0073955   -0.0300912
h     4.0597067    0.7806635    0.5880651  0.00    0.0038243   -0.0042710    0.0088833
c     5.4880071    2.8461558   -0.9508325  0.00    0.0122542    0.0126419    0.0097776