    13
 Energy =       5.6757266993
c    -3.7133889    1.6950595    0.3173519  0.00    0.0123563   -0.0373892   -0.0122146
c    -2.4962693    2.6345192    0.2419999  0.00    0.0613526    0.3324777    0.0834410
c    -4.9565486    2.3924193   -0.2155699  0.00    0.0171873   -0.0008550    0.0023027
h    -5.2099685    3.2528291    0.4143399  0.00    0.0033437   -0.0148168   -0.0109397
h    -5.8205883    1.7190695   -0.2147749  0.00    0.0128096    0.0114528   -0.0022636
h    -4.8083986    2.7651692   -1.2348596  0.00   -0.0058509   -0.0030768    0.0181980
n    -3.4097890    0.4519539   -0.4549189  0.00    0.8387778    0.3086392   -0.1504688
h    -3.8575589    1.4177196    1.3669296  0.00   -0.0010645   -0.0030083   -0.0239059
h    -4.2340588    0.2238779   -1.0206697  0.00    0.0256754    0.0328157    0.0224937
h    -2.6878492    0.6694128   -1.1486897  0.00   46.1284919   24.6069940   24.7065959
o    -2.4571893    3.7760389    0.6681628  0.00   -0.0094289   -0.2737675   -0.1061774
o    -1.4389296    2.0221094   -0.3549299  0.00   -0.1625179   -0.1594037   -0.0442888
h    -1.7862895    1.1491097   -0.6669268  0.00  -46.9211324  -24.8000621  -24.4827725
    13
 Energy =       4.0484479089
c    -3.7071135    1.7010069    0.3311093  0.00    0.0083457   -0.0224799   -0.0077000
c    -2.4683013    2.5966452    0.2377204  0.00    0.0364689    0.2067010    0.0554981
c    -4.9403847    2.4238172   -0.2073050  0.00    0.0112203    0.0000048    0.0015111
h    -5.1625521    3.3087005    0.4135476  0.00    0.0016032   -0.0091795   -0.0052899
h    -5.8286278    1.7724018   -0.1852098  0.00    0.0072777    0.0069306   -0.0016988
h    -4.7815982    2.7708571   -1.2410389  0.00   -0.0032492   -0.0007750    0.0117290
n    -3.4480628    0.4474377   -0.4360516  0.00    0.5705013    0.2117458   -0.0606803
h    -3.8450102    1.4453587    1.3948620  0.00   -0.0003991   -0.0020909   -0.0146974
h    -4.3459600    0.1034138   -0.8619166  0.00   -0.0104060    0.0101690    0.0041933
h    -2.7218950    0.6461509   -1.2448075  0.00   31.9104804   17.0132803   17.0389027
o    -2.4111908    3.8056441    0.6633603  0.00   -0.0046617   -0.1700049   -0.0688419
o    -1.4208562    2.0081222   -0.4194191  0.00   -0.1034570   -0.1049866   -0.0322764
h    -1.7952741    1.1397320   -0.7474063  0.00  -32.4237245  -17.1393146  -16.9206495
    13
 Energy =       3.4639608208
c    -3.7137104    1.6910721    0.3001127  0.00    0.0059754   -0.0182049   -0.0067359
c    -2.5017131    2.6173902    0.2606910  0.00    0.0264920    0.1711638    0.0464093
c    -4.9745225    2.3901651   -0.2114684  0.00    0.0092570    0.0013926    0.0020157
h    -5.1985616    3.2766218    0.4097163  0.00    0.0014062   -0.0076732   -0.0042133
h    -5.8472171    1.7155449   -0.1543582  0.00    0.0051711    0.0050214   -0.0004077
h    -4.8504690    2.7284387   -1.2548093  0.00   -0.0030757   -0.0008533    0.0093112
n    -3.4158229    0.4739604   -0.4995397  0.00    0.4817995    0.1770151   -0.0479970
h    -3.8485889    1.3950442    1.3570266  0.00   -0.0002333   -0.0018843   -0.0113705
h    -4.2773224    0.1545760   -1.0206697  0.00   -0.0155699    0.0047240   -0.0004058
h    -2.6418208    0.6660715   -1.1970138  0.00   26.9792942   14.3875143   14.4085927
o    -2.5185708    3.8348339    0.7260598  0.00   -0.0049568   -0.1373072   -0.0560036
o    -1.3862756    2.0593875   -0.3231818  0.00   -0.0788772   -0.0836046   -0.0274769
h    -1.7022317    1.1661820   -0.6951207  0.00  -27.4066824  -14.4973038  -14.3117182
    13
 Energy =       2.6643348448
c    -3.7229282    1.6698228    0.2772321  0.00    0.0031763   -0.0115923   -0.0049133
c    -2.5289908    2.6167475    0.3112907  0.00    0.0169132    0.1204695    0.0333509
c    -4.9992765    2.3606702   -0.2158292  0.00    0.0072792    0.0017519    0.0025326
h    -5.1994071    3.2751767    0.3785744  0.00    0.0015766   -0.0043464   -0.0024603
h    -5.8701278    1.6851243   -0.0983769  0.00    0.0023600    0.0022898    0.0011728
h    -4.9098571    2.6537771   -1.2800208  0.00   -0.0023991   -0.0012111    0.0049324
n    -3.3938452    0.4981713   -0.5714401  0.00    0.3658891    0.1323900   -0.0358660
h    -3.8654604    1.3236941    1.3222605  0.00   -0.0002344   -0.0016025   -0.0067557
h    -4.2145275    0.2170466   -1.1794228  0.00   -0.0175764    0.0001598   -0.0049213
h    -2.5791390    0.7007669   -1.1692790  0.00   20.2240512   10.7881233   10.8066390
o    -2.6257490    3.8606878    0.7756894  0.00   -0.0064123   -0.0933798   -0.0391029
o    -1.3499110    2.0956055   -0.1953124  0.00   -0.0469457   -0.0537945   -0.0164328
h    -1.6176070    1.2119973   -0.6579212  0.00  -20.5476774  -10.8792577  -10.7381754
    13
 Energy =       1.6052634604
c    -3.7340772    1.6463571    0.2739730  0.00    0.0010606   -0.0048376   -0.0026594
c    -2.5688229    2.6326746    0.3580522  0.00    0.0102668    0.0375244    0.0169543
c    -5.0250119    2.3049041   -0.2412875  0.00    0.0096106   -0.0013138    0.0026844
h    -5.3252173    3.1494838    0.4317568  0.00   -0.0018272    0.0050445    0.0058878
h    -5.8631842    1.5615075   -0.2571300  0.00   -0.0068592   -0.0067838    0.0004216
h    -4.8715496    2.7124347   -1.2714781  0.00    0.0016725    0.0023513   -0.0056115
n    -3.3594302    0.4989930   -0.5860806  0.00    0.2060090    0.0728387   -0.0193156
h    -3.8939328    1.2810596    1.3134969  0.00   -0.0003639   -0.0006667   -0.0024669
h    -4.1224058    0.2404599   -1.2719191  0.00   -0.0131564   -0.0023663   -0.0066148
h    -2.5101430    0.7438877   -1.1136161  0.00   11.4766897    6.1287729    6.1376266
o    -2.7742161    3.9421405    0.7235044  0.00   -0.0104152   -0.0234623   -0.0169922
o    -1.3241714    2.1782760   -0.0809387  0.00   -0.0139682   -0.0187964   -0.0052813
h    -1.5046642    1.2771095   -0.5808886  0.00  -11.6587191   -6.1883050   -6.1046332
    13
 Energy =       0.7538376686
c    -3.7327675    1.6491275    0.2565496  0.00    0.0009659    0.0000888    0.0005315
c    -2.5842105    2.6620196    0.3314982  0.00    0.0021590   -0.0134162   -0.0125167
c    -5.0490085    2.2643833   -0.2531212  0.00    0.0014857   -0.0011569    0.0017050
h    -5.3447085    3.1356236    0.3765215  0.00   -0.0009283    0.0005686    0.0012844
h    -5.8673906    1.5081308   -0.2025262  0.00   -0.0021217   -0.0038525    0.0005933
h    -4.9403590    2.6093820   -1.3078653  0.00   -0.0003580   -0.0000353   -0.0031689
n    -3.3565206    0.4926347   -0.5886932  0.00    0.0530976    0.0157261    0.0014828
h    -3.8705467    1.3028774    1.3084014  0.00    0.0009685    0.0011972    0.0009124
h    -4.1101681    0.2056098   -1.2610158  0.00   -0.0012654   -0.0012391    0.0005821
h    -2.4974754    0.7795077   -1.1482501  0.00    4.8083768    2.5733697    2.5497564
o    -2.7874233    3.9329815    0.8822575  0.00   -0.0060735    0.0175079    0.0056033
o    -1.3151603    2.2790977   -0.1187480  0.00    0.0019332    0.0028772    0.0010336
h    -1.4210877    1.3479127   -0.5775637  0.00   -4.8582397   -2.5916354   -2.5477991
    13
 Energy =       0.4804570302
c    -3.7452867    1.6218311    0.2334891  0.00    0.0029491    0.0007577    0.0020382
c    -2.5533652    2.5799463    0.3787399  0.00    0.0029132   -0.0084222   -0.0066074
c    -5.0334644    2.3411384   -0.2237534  0.00   -0.0010257    0.0007699   -0.0001908
h    -5.2819457    3.1801543    0.4714765  0.00   -0.0008289    0.0030960    0.0028718
h    -5.8891733    1.6249532   -0.2254431  0.00   -0.0027012   -0.0040517    0.0000642
h    -4.9115777    2.7609186   -1.2507422  0.00   -0.0009792    0.0014048   -0.0041537
n    -3.4408098    0.4940036   -0.6834287  0.00    0.0337949    0.0025974    0.0110471
h    -3.8992751    1.2129246    1.2622579  0.00    0.0011654   -0.0010023    0.0023864
h    -4.1869481    0.3389467   -1.4197689  0.00   -0.0129472   -0.0040975   -0.0113299
h    -2.5258874    0.7052065   -1.1822051  0.00    2.7858010    1.4884381    1.4706309
o    -2.7103711    3.8133928    1.0175810  0.00   -0.0029471    0.0143115    0.0049927
o    -1.2957489    2.1973674   -0.0933481  0.00    0.0003822    0.0011762    0.0000343
h    -1.4029733    1.2985046   -0.5874102  0.00   -2.8055765   -1.4949779   -1.4717838
    13
 Energy =       0.3219005456
c    -3.7828838    1.6226253    0.2330774  0.00    0.0039549   -0.0035396   -0.0003866
c    -2.5516996    2.5179590    0.4659843  0.00    0.0053571   -0.0055164   -0.0053344
c    -4.9887233    2.4182585   -0.3292732  0.00   -0.0048307    0.0042259    0.0014226
h    -5.2344926    3.2817262    0.3341522  0.00   -0.0015578    0.0021079    0.0015871
h    -5.8914590    1.7622129   -0.3841962  0.00   -0.0049815   -0.0039059    0.0004952
h    -4.7614958    2.8150059   -1.3507946  0.00    0.0004621    0.0031017   -0.0068921
n    -3.4814225    0.4692809   -0.6495679  0.00    0.0180785    0.0012028    0.0051169
h    -4.0440693    1.2326647    1.2519565  0.00   -0.0006591   -0.0031025    0.0060496
h    -4.2172029    0.3047461   -1.3863134  0.00   -0.0057459   -0.0026096   -0.0058154
h    -2.5585535    0.6403136   -1.1411549  0.00    1.6514153    0.8809762    0.8712133
o    -2.6824236    3.7139214    1.1732986  0.00   -0.0004082    0.0107832    0.0041062
o    -1.2930420    2.1325584    0.0018856  0.00    0.0001397    0.0010142    0.0002095
h    -1.3893587    1.2580152   -0.5216095  0.00   -1.6612244   -0.8847379   -0.8717721
    13
 Energy =       0.2761713550
c    -3.7900972    1.6076023    0.2383775  0.00    0.0032500   -0.0036029   -0.0011102
c    -2.5660547    2.4944446    0.5333520  0.00    0.0031188   -0.0054958   -0.0044409
c    -4.9631170    2.4202001   -0.3640709  0.00   -0.0044477    0.0035808    0.0010525
h    -5.2167238    3.2881668    0.2898381  0.00   -0.0013637    0.0017019    0.0013239
h    -5.8740966    1.7802033   -0.4476129  0.00   -0.0044454   -0.0032886    0.0004411
h    -4.6963702    2.8102780   -1.3777658  0.00    0.0005038    0.0027057   -0.0061591
n    -3.4583200    0.4695942   -0.6514992  0.00    0.0128233   -0.0012198    0.0109460
h    -4.0955434    1.2046395    1.2395347  0.00   -0.0008045   -0.0027551    0.0058406
h    -4.2310435    0.2422405   -1.3357983  0.00   -0.0097920   -0.0031503   -0.0082671
h    -2.5789090    0.7087616   -1.2014860  0.00    1.3422611    0.7145528    0.7003400
o    -2.7078036    3.6333867    1.3320517  0.00   -0.0014624    0.0143987    0.0073623
o    -1.3084068    2.1735563    0.0133111  0.00    0.0029260    0.0013205   -0.0000154
h    -1.3903409    1.3362143   -0.5707873  0.00   -1.3425673   -0.7187479   -0.7073136
    13
 Energy =       0.1954047965
c    -3.8159670    1.6042552    0.2398331  0.00    0.0038529   -0.0047881   -0.0017293
c    -2.5808567    2.4437080    0.6134733  0.00    0.0038172   -0.0043219   -0.0035472
c    -4.9096809    2.4638477   -0.4410250  0.00   -0.0047690    0.0040125    0.0009962
h    -5.1610107    3.3498794    0.1879921  0.00   -0.0013240    0.0012034    0.0007680
h    -5.8442806    1.8689772   -0.5750124  0.00   -0.0044406   -0.0025266    0.0003641
h    -4.5626203    2.8287800   -1.4396029  0.00    0.0010765    0.0026545   -0.0060010
n    -3.4746941    0.4554010   -0.6276091  0.00    0.0074137   -0.0006958    0.0072824
h    -4.2035630    1.2165231    1.2186069  0.00   -0.0013785   -0.0027790    0.0058291
h    -4.2629753    0.1844282   -1.2734135  0.00   -0.0064583   -0.0026817   -0.0059519
h    -2.6279033    0.7086095   -1.2136319  0.00    0.7985814    0.4249823    0.4160360
o    -2.7193827    3.5217558    1.4908048  0.00   -0.0007310    0.0119525    0.0068842
o    -1.3234909    2.1619739    0.0728381  0.00    0.0015971    0.0011503    0.0001978
h    -1.3904013    1.3611489   -0.5558089  0.00   -0.7972373   -0.4281625   -0.4211284
    13
 Energy =       0.1419205363
c    -3.8399684    1.6010970    0.2406238  0.00    0.0038446   -0.0051588   -0.0021071
c    -2.5989873    2.3901611    0.6899458  0.00    0.0035805   -0.0040347   -0.0030521
c    -4.8492352    2.5039275   -0.5086422  0.00   -0.0041800    0.0040769    0.0007088
h    -5.0969675    3.4040674    0.1005493  0.00   -0.0010807    0.0008105    0.0003998
h    -5.8002704    1.9526554   -0.6982592  0.00   -0.0043406   -0.0019617    0.0001195
h    -4.4258572    2.8458352   -1.4851660  0.00    0.0014432    0.0023306   -0.0054494
n    -3.4915226    0.4440775   -0.6077755  0.00    0.0041393   -0.0005593    0.0072599
h    -4.3038243    1.2296388    1.1918405  0.00   -0.0017342   -0.0025482    0.0052274
h    -4.3022825    0.1263909   -1.2014030  0.00   -0.0059254   -0.0028847   -0.0050536
h    -2.6905532    0.7191615   -1.2431428  0.00    0.4581718    0.2439548    0.2358897
o    -2.7364270    3.3954121    1.6495579  0.00   -0.0007048    0.0109377    0.0076503
o    -1.3431554    2.1574759    0.1232550  0.00    0.0011979    0.0011112    0.0001807
h    -1.3977756    1.3993879   -0.5539390  0.00   -0.4544116   -0.2460744   -0.2417738
    13
 Energy =       0.1012387620
c    -3.8668343    1.6035892    0.2379148  0.00    0.0031297   -0.0046762   -0.0017974
c    -2.6184320    2.3269577    0.7626540  0.00    0.0035118   -0.0036518   -0.0029463
c    -4.7735964    2.5543312   -0.5772767  0.00   -0.0030894    0.0041846    0.0006245
h    -5.0146545    3.4670294    0.0147179  0.00   -0.0007234    0.0004632    0.0000978
h    -5.7360445    2.0532663   -0.8346201  0.00   -0.0042231   -0.0014891   -0.0003060
h    -4.2671041    2.8717755   -1.5211748  0.00    0.0017631    0.0019087   -0.0046487
n    -3.5264315    0.4300286   -0.5857295  0.00    0.0021699   -0.0004481    0.0064941
h    -4.4099418    1.2612085    1.1568816  0.00   -0.0020239   -0.0022743    0.0041339
h    -4.3623833    0.0746225   -1.1177074  0.00   -0.0046048   -0.0026940   -0.0036144
h    -2.7798591    0.7091344   -1.2779215  0.00    0.2130304    0.1139227    0.1072269
o    -2.7527946    3.2490208    1.8008949  0.00   -0.0003506    0.0083125    0.0069332
o    -1.3627397    2.1393418    0.1812695  0.00    0.0002353    0.0010925    0.0003689
h    -1.4060107    1.4289821   -0.5424580  0.00   -0.2088251   -0.1146506   -0.1125665
    13
 Energy =       0.0772687751
c    -3.8891821    1.6106338    0.2302457  0.00    0.0013836   -0.0028660   -0.0010382
c    -2.6345437    2.2611212    0.8234512  0.00    0.0025303   -0.0030965   -0.0031741
c    -4.6915223    2.6069331   -0.6331485  0.00   -0.0013674    0.0030928    0.0006244
h    -4.9279398    3.5252073   -0.0488796  0.00   -0.0002183    0.0001008   -0.0000060
h    -5.6543169    2.1536644   -0.9630835  0.00   -0.0031690   -0.0009701   -0.0006266
h    -4.1083510    2.9070986   -1.5355065  0.00    0.0013695    0.0011680   -0.0029631
n    -3.5747886    0.4172123   -0.5719133  0.00    0.0014317   -0.0003872    0.0075591
h    -4.5007715    1.3049538    1.1167750  0.00   -0.0015771   -0.0015729    0.0022298
h    -4.4433410    0.0317251   -1.0244380  0.00   -0.0048785   -0.0026178   -0.0029396
h    -2.8990354    0.6847857   -1.3346580  0.00    0.0791734    0.0425842    0.0353488
o    -2.7666843    3.0912988    1.9347974  0.00   -0.0000741    0.0055048    0.0056733
o    -1.3767171    2.1155695    0.2368187  0.00   -0.0002160    0.0012751    0.0009016
h    -1.4096329    1.4590844   -0.5330159  0.00   -0.0743881   -0.0422153   -0.0415893
    13
 Energy =       0.0671691654
c    -3.9070047    1.6246779    0.2187068  0.00    0.0005285   -0.0010564   -0.0002463
c    -2.6470421    2.2000820    0.8728256  0.00    0.0018927   -0.0019207   -0.0023269
c    -4.6055095    2.6596778   -0.6861088  0.00   -0.0010924    0.0024157    0.0007138
h    -4.8430415    3.5819165   -0.1089004  0.00   -0.0001152    0.0000448    0.0000530
h    -5.5588955    2.2490365   -1.0885021  0.00   -0.0023185   -0.0005325   -0.0007773
h    -3.9495979    2.9434683   -1.5417831  0.00    0.0013123    0.0009368   -0.0022185
n    -3.6352026    0.4031875   -0.5572277  0.00    0.0018792   -0.0007646    0.0090367
h    -4.5785488    1.3688926    1.0771015  0.00   -0.0015872   -0.0011652    0.0015927
h    -4.5374669   -0.0069469   -0.9127377  0.00   -0.0059434   -0.0029009   -0.0027808
h    -3.0460069    0.6376282   -1.3975863  0.00    0.0251694    0.0130653    0.0045681
o    -2.7810453    2.9452648    2.0403160  0.00    0.0003110    0.0027500    0.0032766
o    -1.3825377    2.0821506    0.2959519  0.00   -0.0000270    0.0014439    0.0015383
h    -1.4049273    1.4802524   -0.5146110  0.00   -0.0200094   -0.0123162   -0.0124292
    13
 Energy =       0.0648136593
c    -3.9113545    1.6391138    0.2146374  0.00   -0.0004624    0.0004822    0.0002776
c    -2.6309318    2.1480458    0.8834682  0.00    0.0012711   -0.0009307   -0.0016498
c    -4.5450517    2.7041541   -0.6995220  0.00   -0.0004729    0.0011823    0.0001405
h    -4.7619844    3.6323271   -0.1236260  0.00   -0.0001016    0.0002830   -0.0000323
h    -5.4997861    2.3305386   -1.1295021  0.00   -0.0006705   -0.0002291   -0.0001818
h    -3.8573171    2.9667459   -1.5341227  0.00    0.0002660    0.0003989   -0.0004212
n    -3.7042736    0.3960854   -0.5494864  0.00    0.0024602   -0.0009407    0.0086872
h    -4.6039893    1.4293792    1.0674933  0.00   -0.0008301   -0.0005543    0.0004687
h    -4.6364741   -0.0202625   -0.8075171  0.00   -0.0064686   -0.0028703   -0.0023774
h    -3.2047600    0.5970320   -1.4537457  0.00    0.0094794    0.0041527   -0.0044136
o    -2.7379821    2.8322170    2.0899209  0.00    0.0000265    0.0018462    0.0026516
o    -1.3736746    2.0360485    0.2894520  0.00   -0.0000042    0.0010567    0.0012343
h    -1.4092474    1.4778631   -0.5500052  0.00   -0.0044927   -0.0038769   -0.0043839
    13
 Energy =       0.0644168847
c    -3.9327853    1.6419181    0.1933921  0.00   -0.0001417   -0.0012847   -0.0007882
c    -2.6893682    2.1270963    0.9476206  0.00   -0.0001280   -0.0014967   -0.0006785
c    -4.4884949    2.7157657   -0.7621179  0.00   -0.0009322    0.0007405    0.0003171
h    -4.7348244    3.6448005   -0.1992424  0.00   -0.0002578    0.0002507    0.0005310
h    -5.4161686    2.3536775   -1.2604350  0.00   -0.0022324   -0.0004698   -0.0012691
h    -3.7391452    2.9713422   -1.5473858  0.00    0.0018845    0.0006036   -0.0022200
n    -3.6987610    0.3940339   -0.5544217  0.00    0.0004469   -0.0003113   -0.0010644
h    -4.6836238    1.4480875    1.0020668  0.00   -0.0016753   -0.0004370    0.0019855
h    -4.6197397   -0.0456134   -0.7955629  0.00   -0.0001040    0.0002020   -0.0001075
h    -3.2173770    0.5864999   -1.4644079  0.00    0.0005317    0.0003239    0.0007187
o    -2.8601748    2.7578247    2.1764725  0.00    0.0000701    0.0021864    0.0038216
o    -1.4018850    2.0469964    0.4128648  0.00    0.0033382    0.0015553    0.0013918
h    -1.3944787    1.5268586   -0.4513985  0.00   -0.0008001   -0.0018630   -0.0026381
    13
 Energy =       0.0643659601
c    -3.9321871    1.6468105    0.1980309  0.00    0.0000725    0.0003025    0.0002175
c    -2.6903344    2.1395022    0.9436834  0.00   -0.0002237   -0.0000404    0.0000900
c    -4.4802085    2.7049648   -0.7757834  0.00   -0.0000486   -0.0000012   -0.0001142
h    -4.7261962    3.6445926   -0.2312208  0.00   -0.0000454    0.0001694    0.0001135
h    -5.4042958    2.3359707   -1.2704155  0.00   -0.0000246    0.0000077   -0.0000335
h    -3.7290948    2.9448386   -1.5605219  0.00    0.0000574    0.0000701   -0.0000982
n    -3.7018134    0.3832638   -0.5244087  0.00    0.0002315   -0.0002722    0.0004801
h    -4.6841495    1.4719373    1.0069651  0.00   -0.0000699   -0.0000496    0.0001764
h    -4.6233252   -0.0687082   -0.7409525  0.00   -0.0004906   -0.0003355   -0.0001975
h    -3.2345533    0.5551405   -1.4464487  0.00    0.0002567    0.0000728   -0.0005382
o    -2.8572270    2.7530001    2.1791567  0.00   -0.0001462    0.0001294    0.0001505
o    -1.4092792    2.0824228    0.3948549  0.00    0.0003700    0.0000237   -0.0000875
h    -1.4041623    1.5755523   -0.4754949  0.00    0.0000610   -0.0000766   -0.0001589
    13
 Energy =       0.0643647528
c    -3.9335744    1.6471235    0.1989997  0.00   -0.0000035   -0.0000251   -0.0000245
c    -2.6917205    2.1376306    0.9458934  0.00   -0.0000055   -0.0000409   -0.0000616
c    -4.4761174    2.7037493   -0.7792368  0.00   -0.0000056    0.0000033    0.0000089
h    -4.7195284    3.6460523   -0.2385902  0.00   -0.0000006   -0.0000052   -0.0000055
h    -5.4007827    2.3362918   -1.2738835  0.00    0.0000006   -0.0000014    0.0000039
h    -3.7230650    2.9379538   -1.5636499  0.00    0.0000069   -0.0000025   -0.0000018
n    -3.7049503    0.3811315   -0.5189678  0.00   -0.0000148    0.0000062   -0.0000281
h    -4.6881069    1.4768278    1.0063125  0.00   -0.0000038    0.0000006   -0.0000078
h    -4.6269696   -0.0681036   -0.7371334  0.00    0.0000405    0.0000304    0.0000215
h    -3.2336989    0.5484139   -1.4393619  0.00   -0.0000173   -0.0000027    0.0000232
o    -2.8566273    2.7373184    2.1883444  0.00   -0.0000263    0.0000536    0.0001161
o    -1.4126785    2.0915080    0.3920194  0.00    0.0000188    0.0000155    0.0000128
h    -1.4090069    1.5933909   -0.4833013  0.00    0.0000106   -0.0000317   -0.0000572
    13
 Energy =       0.0643647411
c    -3.9335922    1.6471148    0.1990327  0.00   -0.0000000    0.0000000   -0.0000000
c    -2.6917092    2.1376118    0.9458875  0.00    0.0000000   -0.0000000   -0.0000000
c    -4.4761114    2.7037252   -0.7792401  0.00   -0.0000000   -0.0000000    0.0000000
h    -4.7194496    3.6460656   -0.2386125  0.00   -0.0000000    0.0000000    0.0000000
h    -5.4008134    2.3363071   -1.2738504  0.00   -0.0000000   -0.0000000    0.0000000
h    -3.7230872    2.9378680   -1.5636905  0.00   -0.0000000    0.0000000   -0.0000000
n    -3.7050532    0.3810675   -0.5188966  0.00    0.0000000   -0.0000000    0.0000001
h    -4.6881054    1.4768707    1.0063769  0.00    0.0000000   -0.0000000    0.0000000
h    -4.6271170   -0.0679938   -0.7373809  0.00   -0.0000001   -0.0000000   -0.0000000
h    -3.2334669    0.5482705   -1.4391508  0.00    0.0000001    0.0000000   -0.0000001
o    -2.8565597    2.7371827    2.1883187  0.00   -0.0000000    0.0000000    0.0000000
o    -1.4126977    2.0915923    0.3919990  0.00    0.0000000    0.0000000    0.0000000
h    -1.4090637    1.5936056   -0.4833485  0.00    0.0000000   -0.0000000   -0.0000000
    13
 Energy =       0.0643647411
c    -3.9335924    1.6471148    0.1990329  0.00    0.0000000    0.0000000   -0.0000000
c    -2.6917093    2.1376112    0.9458880  0.00   -0.0000000   -0.0000000   -0.0000000
c    -4.4761105    2.7037251   -0.7792407  0.00   -0.0000000    0.0000000   -0.0000000
h    -4.7194484    3.6460660   -0.2386136  0.00   -0.0000000    0.0000000    0.0000000
h    -5.4008126    2.3363073   -1.2738511  0.00   -0.0000000    0.0000000   -0.0000000
h    -3.7230860    2.9378670   -1.5636909  0.00    0.0000000    0.0000000   -0.0000000
n    -3.7050539    0.3810671   -0.5188957  0.00    0.0000000   -0.0000000    0.0000000
h    -4.6881061    1.4768716    1.0063769  0.00   -0.0000000   -0.0000000    0.0000000
h    -4.6271177   -0.0679941   -0.7373798  0.00   -0.0000000   -0.0000000   -0.0000000
h    -3.2334673    0.5482692   -1.4391498  0.00    0.0000000   -0.0000000   -0.0000000
o    -2.8565593    2.7371790    2.1883208  0.00   -0.0000000    0.0000000    0.0000000
o    -1.4126983    2.0915942    0.3919982  0.00    0.0000000    0.0000000    0.0000000
h    -1.4090648    1.5936098   -0.4833505  0.00    0.0000000   -0.0000000   -0.0000000
