    13
 Energy =       0.1446297860
c    -3.7133889    1.6950595    0.3173519  0.00   -0.1150257    0.1320100    0.0946194
c    -2.4962693    2.6345192    0.2419999  0.00    0.3526215   -0.0646059   -0.1541013
c    -4.9565486    2.3924193   -0.2155699  0.00    0.0405260    0.0362646    0.0275903
h    -5.2099685    3.2528291    0.4143399  0.00    0.1344962    0.0298105    0.0545355
h    -5.8205883    1.7190695   -0.2147749  0.00    0.0099884    0.0161571    0.0002769
h    -4.8083986    2.7651692   -1.2348596  0.00   -0.0047905   -0.0026583    0.0188194
n    -3.4097890    0.4519539   -0.4549189  0.00    0.0841696   -0.0393147   -0.0386990
h    -3.8575589    1.4177196    1.3669296  0.00    0.0013118    0.0021444   -0.0234500
h    -3.4845290    0.6754588   -1.4528996  0.00    0.0016769   -0.0006548    0.0399563
h    -2.4188593    0.2248379   -0.3273229  0.00   -0.0351276    0.0352395   -0.0063951
o    -1.4178396    2.3555893   -0.2533479  0.00   -0.2669964    0.0546580    0.1174579
o    -2.7764392    3.8468189    0.7908148  0.00   -0.0802576   -0.0498824   -0.0018781
h    -3.6817390    3.7529189    1.1803597  0.00   -0.1225925   -0.1491679   -0.1287322
    13
 Energy =       0.0923018907
c    -3.6854443    1.7017221    0.2931864  0.00   -0.0431799    0.0687276    0.0432781
c    -2.5032339    2.6633045    0.2616668  0.00    0.1346778   -0.0348201   -0.0669257
c    -4.9763679    2.3668782   -0.1849762  0.00    0.0258615    0.0219953    0.0202087
h    -5.1991088    3.2723113    0.3983913  0.00    0.0727561    0.0170353    0.0304513
h    -5.8319499    1.6659506   -0.0618881  0.00   -0.0015363    0.0016689    0.0018085
h    -4.9106886    2.6529150   -1.2585630  0.00   -0.0013607   -0.0005475   -0.0004613
n    -3.4305703    0.4801352   -0.5104674  0.00    0.0285626   -0.0162431   -0.0016571
h    -3.7980415    1.4010529    1.3536513  0.00    0.0006689    0.0013957   -0.0086345
h    -3.6285336    0.6748093   -1.5193876  0.00   -0.0038087    0.0023878    0.0042008
h    -2.4157006    0.2318060   -0.4860760  0.00   -0.0050016    0.0126477   -0.0052944
o    -1.3353427    2.3523042   -0.2740373  0.00   -0.1056452    0.0204437    0.0480057
o    -2.6916507    3.8646200    0.9104918  0.00   -0.0192466   -0.0111625    0.0027450
h    -3.6452835    3.8565540    1.2361100  0.00   -0.0827480   -0.0835286   -0.0677254
    13
 Energy =       0.0897789210
c    -3.7007294    1.6990777    0.2870620  0.00   -0.0408333    0.0675338    0.0425236
c    -2.5158240    2.6549195    0.2707283  0.00    0.1314342   -0.0338143   -0.0655803
c    -4.9838839    2.3691578   -0.1983321  0.00    0.0253637    0.0211841    0.0197205
h    -5.2172285    3.2587283    0.4062387  0.00    0.0710006    0.0169010    0.0300075
h    -5.8383643    1.6616219   -0.1057098  0.00   -0.0018317    0.0012949    0.0017767
h    -4.9020755    2.6771824   -1.2650059  0.00   -0.0013722   -0.0003944   -0.0008130
n    -3.4406969    0.4948211   -0.5352752  0.00    0.0075296   -0.0188292    0.0192034
h    -3.8248502    1.3842190    1.3426325  0.00    0.0007421    0.0012895   -0.0082440
h    -3.4697805    0.7686037   -1.5623163  0.00   -0.0048204    0.0110280   -0.0224262
h    -2.4493572    0.1655711   -0.3688855  0.00    0.0156173    0.0065543    0.0006332
o    -1.3521817    2.3422831   -0.2772249  0.00   -0.1032838    0.0196170    0.0465961
o    -2.6986545    3.8528669    0.9274870  0.00   -0.0184538   -0.0108158    0.0026419
h    -3.6582897    3.8553107    1.2367031  0.00   -0.0810924   -0.0815488   -0.0660393
    13
 Energy =       0.0678129684
c    -3.7339410    1.6882203    0.2722617  0.00    0.0102140   -0.0011751   -0.0051478
c    -2.5403498    2.6409582    0.3221089  0.00   -0.0348356    0.0074248    0.0155337
c    -4.9902012    2.3824634   -0.2694385  0.00    0.0002871    0.0025391    0.0026842
h    -5.2171288    3.2864269    0.3341449  0.00    0.0236404    0.0084104    0.0106399
h    -5.8572025    1.6841128   -0.2336621  0.00   -0.0008887   -0.0011402   -0.0003177
h    -4.8396660    2.6987802   -1.3276507  0.00    0.0006108    0.0007897   -0.0018613
n    -3.4982496    0.4854034   -0.5394089  0.00   -0.0310744    0.0088189    0.0102592
h    -3.9169110    1.3815395    1.3329713  0.00   -0.0007023   -0.0004219    0.0035207
h    -3.3466961    0.7634876   -1.5513436  0.00   -0.0012177    0.0058183   -0.0185710
h    -2.5871639    0.0232575   -0.2256465  0.00    0.0281214   -0.0115125    0.0099632
o    -1.3178238    2.2673486   -0.2667965  0.00    0.0257560   -0.0106062   -0.0135690
o    -2.6291638    3.8683011    0.9799408  0.00    0.0211704    0.0041172   -0.0041445
h    -3.5774188    4.0140639    1.3306211  0.00   -0.0410814   -0.0130624   -0.0089897
    13
 Energy =       0.0634255443
c    -3.7464373    1.7019308    0.2517951  0.00   -0.0053433    0.0008035    0.0023807
c    -2.5405464    2.6519366    0.3071907  0.00    0.0176487   -0.0068302   -0.0134372
c    -5.0085385    2.3805655   -0.2957882  0.00    0.0042796   -0.0026937   -0.0018956
h    -5.3281854    3.2300891    0.3568000  0.00    0.0000166    0.0066396    0.0064056
h    -5.8432495    1.6410838   -0.3404988  0.00   -0.0026844   -0.0024195    0.0003359
h    -4.8297399    2.7621385   -1.3271704  0.00    0.0006866   -0.0000028   -0.0016088
n    -3.4949238    0.5007469   -0.5633403  0.00    0.0113606   -0.0070653    0.0029775
h    -3.9335549    1.3899369    1.3048065  0.00    0.0004309    0.0001387   -0.0019486
h    -3.2427279    0.7885995   -1.5391217  0.00   -0.0003064   -0.0004506    0.0020816
h    -2.6523377    0.0057140   -0.2011429  0.00   -0.0089804    0.0064127   -0.0057021
o    -1.3660860    2.3203923   -0.3414383  0.00   -0.0108818    0.0021188    0.0076322
o    -2.5849528    3.8304682    1.0566361  0.00   -0.0078506    0.0021461    0.0057762
h    -3.4806362    3.9807610    1.4893742  0.00    0.0016239    0.0012027   -0.0029973
    13
 Energy =       0.0632989890
c    -3.7502301    1.7162062    0.2706099  0.00   -0.0053605    0.0023758    0.0024343
c    -2.5364001    2.6588397    0.2729642  0.00    0.0157271   -0.0063860   -0.0126513
c    -5.0069544    2.3772307   -0.3105182  0.00    0.0038574   -0.0025061   -0.0016416
h    -5.3248591    3.2533827    0.3070821  0.00   -0.0002131    0.0067103    0.0062932
h    -5.8445362    1.6398421   -0.3286866  0.00   -0.0025946   -0.0025193    0.0003224
h    -4.8224314    2.7163134   -1.3565200  0.00    0.0007046    0.0003540   -0.0023740
n    -3.5108469    0.4695325   -0.4809580  0.00    0.0094242   -0.0097218    0.0030682
h    -3.9385392    1.4620028    1.3407338  0.00    0.0001014   -0.0003060   -0.0000636
h    -3.2525310    0.7026614   -1.4714703  0.00    0.0003236    0.0000626   -0.0007062
h    -2.6751822   -0.0164224   -0.0883260  0.00   -0.0074335    0.0051368   -0.0048304
o    -1.3720839    2.2909876   -0.3771612  0.00   -0.0090131    0.0016173    0.0064353
o    -2.5633138    3.8691600    0.9726219  0.00   -0.0065232    0.0038580    0.0061169
h    -3.4540080    4.0446265    1.4077302  0.00    0.0009998    0.0013244   -0.0024032
    13
 Energy =       0.0629286340
c    -3.7616019    1.7151317    0.2558504  0.00   -0.0044271    0.0011356    0.0022219
c    -2.5657402    2.6782032    0.3344433  0.00    0.0117330   -0.0068567   -0.0104486
c    -4.9931435    2.3676609   -0.3875228  0.00    0.0018936   -0.0024896   -0.0015846
h    -5.3326686    3.2531569    0.2038438  0.00   -0.0005717    0.0059858    0.0053943
h    -5.8296607    1.6307961   -0.4324078  0.00   -0.0025624   -0.0021886    0.0002316
h    -4.7637965    2.6944402   -1.4292650  0.00    0.0007223    0.0005356   -0.0030253
n    -3.4625570    0.4807868   -0.4959510  0.00    0.0058555   -0.0092319    0.0020753
h    -4.0063993    1.4463027    1.3125668  0.00   -0.0003350   -0.0001892    0.0017215
h    -3.1544904    0.7278657   -1.4702612  0.00    0.0011236    0.0001568   -0.0029117
h    -2.6404145    0.0035323   -0.0615296  0.00   -0.0048118    0.0037138   -0.0032469
o    -1.3989725    2.3954898   -0.3615606  0.00   -0.0032544   -0.0010461    0.0018635
o    -2.6219950    3.8354497    1.1234125  0.00   -0.0040689    0.0086500    0.0081294
h    -3.5204762    3.9555474    1.5664833  0.00   -0.0012966    0.0018244   -0.0004205
    13
 Energy =       0.0626429421
c    -3.7502027    1.7235815    0.2627512  0.00   -0.0028035    0.0006332    0.0020442
c    -2.5821323    2.7213653    0.2926165  0.00    0.0006994   -0.0021384   -0.0007116
c    -5.0075924    2.3266896   -0.3787672  0.00    0.0006294   -0.0006992   -0.0011656
h    -5.3607441    3.2149367    0.1945679  0.00   -0.0000930    0.0033136    0.0029440
h    -5.8241280    1.5679172   -0.3968530  0.00   -0.0018557   -0.0016112    0.0000279
h    -4.8009737    2.6368865   -1.4292493  0.00    0.0003337    0.0005001   -0.0019069
n    -3.4309851    0.4777978   -0.4584886  0.00    0.0009924   -0.0058052    0.0009500
h    -3.9713897    1.4765674    1.3296112  0.00   -0.0000957   -0.0003613    0.0013956
h    -3.1520801    0.7059085   -1.4460092  0.00    0.0007075    0.0005131   -0.0025358
h    -2.5838988    0.0364692   -0.0270712  0.00   -0.0011268    0.0013290   -0.0008289
o    -1.4549707    2.5050666   -0.4986413  0.00    0.0062402   -0.0012590   -0.0042904
o    -2.6288877    3.8580409    1.1054418  0.00    0.0015609    0.0043583    0.0018956
h    -3.5039310    3.9331360    1.6081931  0.00   -0.0051889    0.0012268    0.0021820
    13
 Energy =       0.0624268884
c    -3.7756132    1.7397499    0.2598077  0.00    0.0019604   -0.0002452   -0.0005114
c    -2.5968800    2.7172007    0.3240162  0.00    0.0003741   -0.0007602   -0.0004260
c    -4.9860409    2.3457099   -0.4651508  0.00   -0.0022724    0.0004587    0.0003426
h    -5.3537982    3.2536573    0.0604389  0.00   -0.0004481    0.0004581    0.0002730
h    -5.8126394    1.6024233   -0.5065596  0.00   -0.0001656    0.0001882    0.0001466
h    -4.7179710    2.6226144   -1.5110997  0.00    0.0002920    0.0005829   -0.0018782
n    -3.4380708    0.4721529   -0.4094858  0.00   -0.0032335    0.0008840    0.0004204
h    -4.0599030    1.5236136    1.3190249  0.00   -0.0004731   -0.0003095    0.0021063
h    -3.0988278    0.6677251   -1.3856664  0.00    0.0011043    0.0004899   -0.0032061
h    -2.6270489    0.0201621    0.0846157  0.00    0.0035004   -0.0022608    0.0021048
o    -1.4910403    2.5265496   -0.4953255  0.00   -0.0005595   -0.0006548    0.0000879
o    -2.6147147    3.8150333    1.1841398  0.00   -0.0004503    0.0013225    0.0010052
h    -3.4793681    3.8777712    1.6993464  0.00    0.0003713   -0.0001539   -0.0004650
    13
 Energy =       0.0623900507
c    -3.7762653    1.7436299    0.2575270  0.00    0.0001290   -0.0000212    0.0000257
c    -2.6025546    2.7277783    0.3130538  0.00   -0.0012605   -0.0003727    0.0007401
c    -4.9883794    2.3396115   -0.4674750  0.00   -0.0002251    0.0000727    0.0000257
h    -5.3562082    3.2496530    0.0536153  0.00   -0.0000113    0.0000723    0.0000573
h    -5.8123287    1.5930499   -0.5036232  0.00   -0.0000311    0.0000037    0.0000110
h    -4.7229794    2.6110359   -1.5138555  0.00    0.0000330    0.0000692   -0.0001997
n    -3.4350511    0.4740858   -0.4048308  0.00   -0.0004279    0.0000445    0.0000200
h    -4.0581506    1.5314218    1.3162590  0.00   -0.0000345   -0.0000311    0.0002301
h    -3.1021972    0.6652749   -1.3822163  0.00    0.0001262    0.0000700   -0.0003630
h    -2.6204139    0.0319326    0.0869463  0.00    0.0003956   -0.0002808    0.0002599
o    -1.5249531    2.5756757   -0.5536001  0.00    0.0019501   -0.0006345   -0.0019022
o    -2.6012831    3.7989095    1.2066238  0.00    0.0002283    0.0008330    0.0004497
h    -3.4511516    3.8423046    1.7496775  0.00   -0.0008719    0.0001749    0.0006454
    13
 Energy =       0.0623855005
c    -3.7786308    1.7454868    0.2578697  0.00    0.0000124    0.0000163    0.0000065
c    -2.6041522    2.7285931    0.3150743  0.00    0.0000034   -0.0000062   -0.0000037
c    -4.9861897    2.3394760   -0.4757581  0.00   -0.0000229   -0.0000007    0.0000014
h    -5.3557147    3.2520122    0.0396451  0.00   -0.0000086    0.0000160    0.0000100
h    -5.8106338    1.5935471   -0.5131655  0.00   -0.0000027    0.0000003    0.0000007
h    -4.7150685    2.6062668   -1.5216865  0.00    0.0000036    0.0000069   -0.0000252
n    -3.4352919    0.4728126   -0.3972014  0.00   -0.0000096   -0.0000243   -0.0000017
h    -4.0663208    1.5378881    1.3157438  0.00   -0.0000048   -0.0000037    0.0000268
h    -3.0989535    0.6592854   -1.3740822  0.00    0.0000079    0.0000038   -0.0000275
h    -2.6226159    0.0331520    0.0993695  0.00    0.0000213   -0.0000141    0.0000095
o    -1.5287875    2.5786808   -0.5521642  0.00    0.0000050   -0.0000055   -0.0000001
o    -2.6001516    3.7967998    1.2108357  0.00   -0.0000027    0.0000121    0.0000047
h    -3.4494054    3.8403624    1.7536218  0.00   -0.0000024   -0.0000008   -0.0000016
    13
 Energy =       0.0623854856
c    -3.7787579    1.7456580    0.2578290  0.00   -0.0000000    0.0000001    0.0000000
c    -2.6043151    2.7288079    0.3148837  0.00   -0.0000008   -0.0000003    0.0000004
c    -4.9861763    2.3394080   -0.4761433  0.00   -0.0000000   -0.0000000    0.0000000
h    -5.3557085    3.2521213    0.0389068  0.00    0.0000000    0.0000001    0.0000001
h    -5.8106342    1.5934910   -0.5134236  0.00   -0.0000000   -0.0000000   -0.0000000
h    -4.7148973    2.6058468   -1.5220962  0.00    0.0000000    0.0000000   -0.0000001
n    -3.4353051    0.4728146   -0.3967999  0.00   -0.0000001   -0.0000001   -0.0000000
h    -4.0666319    1.5383436    1.3156808  0.00    0.0000000   -0.0000000    0.0000001
h    -3.0988272    0.6589929   -1.3736726  0.00    0.0000000    0.0000000   -0.0000001
h    -2.6227177    0.0333223    0.1000279  0.00    0.0000001   -0.0000000    0.0000000
o    -1.5297463    2.5797909   -0.5534904  0.00    0.0000012   -0.0000004   -0.0000012
o    -2.5996647    3.7962958    1.2114911  0.00    0.0000001    0.0000006    0.0000004
h    -3.4485341    3.8394704    1.7549087  0.00   -0.0000005    0.0000001    0.0000003
    13
 Energy =       0.0623854856
c    -3.7787585    1.7456589    0.2578288  0.00   -0.0000000    0.0000000    0.0000000
c    -2.6043159    2.7288089    0.3148829  0.00   -0.0000000   -0.0000000    0.0000000
c    -4.9861764    2.3394076   -0.4761450  0.00   -0.0000000   -0.0000000    0.0000000
h    -5.3557091    3.2521215    0.0389035  0.00   -0.0000000    0.0000000    0.0000000
h    -5.8106343    1.5934905   -0.5134249  0.00   -0.0000000   -0.0000000    0.0000000
h    -4.7148968    2.6058451   -1.5220981  0.00   -0.0000000    0.0000000   -0.0000000
n    -3.4353051    0.4728148   -0.3967982  0.00   -0.0000000   -0.0000000   -0.0000000
h    -4.0666334    1.5383456    1.3156806  0.00    0.0000000   -0.0000000    0.0000000
h    -3.0988264    0.6589919   -1.3736708  0.00   -0.0000000    0.0000000   -0.0000000
h    -2.6227181    0.0333231    0.1000308  0.00    0.0000000   -0.0000000   -0.0000000
o    -1.5297509    2.5797957   -0.5534950  0.00    0.0000000   -0.0000000   -0.0000000
o    -2.5996621    3.7962935    1.2114934  0.00    0.0000000    0.0000000    0.0000000
h    -3.4485293    3.8394661    1.7549139  0.00   -0.0000000    0.0000000    0.0000000
