    27
 Energy =       0.2977896152
c    -1.4235396    2.6054793   -0.0667700  0.00   -0.0462791    0.0382804    0.0026834
c    -1.3072796    1.2134697   -0.1072300  0.00   -0.0853183   -0.0325679    0.0019359
c    -0.0178900    0.6711998   -0.1697000  0.00   -0.0888358   -0.1877926   -0.0008640
c    -0.2940599    3.4190890   -0.0891300  0.00   -0.0231646    0.0690727    0.0028611
c     0.9872197    2.8590292   -0.1560400  0.00    0.0105781    0.0641230    0.0008733
c     1.1340797    1.4562096   -0.1970299  0.00    0.0530969    0.0518736    0.0022612
n     0.3879399   -0.6395298   -0.2140799  0.00    0.1464614    0.1074917   -0.0054243
c     2.2666594    0.5727398   -0.2659299  0.00    0.1508859   -0.0648197   -0.0071237
c     1.7555995   -0.7123598   -0.2706899  0.00   -0.0755789   -0.1035477    0.0041686
h    -0.2400399   -1.4313496   -0.2047299  0.00    0.0368141    0.0481779    0.0001124
c     3.7030089    1.0223397   -0.3320099  0.00    0.0057137   -0.0150213   -0.0111849
c     4.7465686   -0.0024900    0.1378100  0.00    0.0770564    0.1462191   -0.0265653
h     3.7978489    1.9290294    0.2803699  0.00   -0.0054363   -0.0082612   -0.0119099
h     3.9233889    1.3348996   -1.3618196  0.00   -0.0021198   -0.0034842    0.0147478
c     4.8964886   -1.0916697   -0.9404947  0.00   -0.2803892   -0.2839372   -0.1262396
n     4.3764788   -0.6892298    1.4261196  0.00   -0.0245833   -0.0852865    0.0448148
h     5.7313184    0.4619039    0.2668599  0.00   -0.0158930   -0.0151652    0.0014173
h     3.5102190   -0.2546209    1.7604995  0.00    0.0183271   -0.0064076   -0.0428326
h     4.0970388   -1.6495395    1.1968197  0.00    0.0116903    0.0435495   -0.0294005
h    -2.4108593    3.0588691   -0.0157800  0.00   -0.0008531    0.0002803    0.0000768
h    -2.1896094    0.5822398   -0.0890100  0.00   -0.0036452    0.0037866    0.0001406
h    -0.4052699    4.5000487   -0.0535400  0.00    0.0008806    0.0002934    0.0003242
h     1.8590495    3.5066790   -0.1715100  0.00   -0.0005934    0.0027491    0.0007724
h     2.2327294   -1.6813195   -0.3062999  0.00    0.0325886   -0.0161742   -0.0324068
o     4.0245989   -1.8702095   -1.2891796  0.00    0.1283491    0.1992611    0.1408383
o     6.1470682   -1.0846497   -1.4758196  0.00   -0.0100291    0.0340707    0.0402598
h     6.0125883   -0.8847017   -2.4383893  0.00   -0.0097231    0.0132362    0.0356638
    27
 Energy =       0.2592858168
c    -1.3514589    2.7071694   -0.1316068  0.00   -0.0349205    0.0280796    0.0020882
c    -1.2732105    1.3223725   -0.1606333  0.00   -0.0636470   -0.0248770    0.0015563
c    -0.0136305    0.7473626   -0.2185673  0.00   -0.0645510   -0.1372876   -0.0009875
c    -0.2026001    3.4819807   -0.1580715  0.00   -0.0177361    0.0515385    0.0022836
c     1.0538611    2.8847883   -0.2164353  0.00    0.0078109    0.0482177    0.0007743
c     1.1477152    1.4903530   -0.2461893  0.00    0.0388244    0.0388655    0.0018479
n     0.3242725   -0.5913949   -0.2273300  0.00    0.1085299    0.0775500   -0.0042021
c     2.2420566    0.5908095   -0.2831152  0.00    0.1113957   -0.0475024   -0.0058940
c     1.7072204   -0.6742143   -0.2595128  0.00   -0.0567238   -0.0746942    0.0032230
h    -0.3364575   -1.3689541   -0.2088601  0.00    0.0263563    0.0350458    0.0001458
c     3.7037163    0.9765980   -0.3140560  0.00    0.0045632   -0.0106020   -0.0082819
c     4.6983862   -0.1023544    0.1715848  0.00    0.0583296    0.1076371   -0.0205135
h     3.8288089    1.8733906    0.3144481  0.00   -0.0037102   -0.0056362   -0.0085602
h     3.9629461    1.2841959   -1.3405740  0.00   -0.0012152   -0.0023063    0.0103205
c     4.8711313   -1.2060637   -0.8888270  0.00   -0.2083268   -0.2104865   -0.0936211
n     4.2983251   -0.7327615    1.4713461  0.00   -0.0182722   -0.0613682    0.0354047
h     5.6976693    0.3411472    0.3075215  0.00   -0.0113354   -0.0112274    0.0008785
h     3.4263889   -0.2877020    1.7952254  0.00    0.0131662   -0.0044814   -0.0318836
h     4.0453108   -1.7178524    1.2900097  0.00    0.0082767    0.0299029   -0.0232717
h    -2.3256995    3.1891595   -0.0844216  0.00   -0.0011364    0.0003805    0.0000843
h    -2.1709921    0.7128975   -0.1334984  0.00   -0.0029898    0.0024428    0.0001386
h    -0.2811974    4.5666030   -0.1305613  0.00    0.0005395    0.0008223    0.0002655
h     1.9483814    3.5015787   -0.2308854  0.00    0.0001118    0.0025320    0.0005552
h     2.1966391   -1.6335263   -0.2080518  0.00    0.0237283   -0.0131476   -0.0222206
o     3.9632428   -2.0063128   -1.2571617  0.00    0.0967126    0.1463858    0.1023520
o     6.1259142   -1.2434028   -1.4278816  0.00   -0.0024277    0.0182453    0.0468309
h     6.0146039   -0.9043108   -2.3705990  0.00   -0.0113528    0.0159711    0.0106870
    27
 Energy =       0.2473770596
c    -1.2963820    2.7916395   -0.1738620  0.00   -0.0296774    0.0233789    0.0017940
c    -1.2524335    1.4101118   -0.2074994  0.00   -0.0535355   -0.0211742    0.0013911
c    -0.0137053    0.8053161   -0.2525112  0.00   -0.0531321   -0.1138424   -0.0002152
c    -0.1292993    3.5339988   -0.1864217  0.00   -0.0150147    0.0434643    0.0019126
c     1.1081769    2.9047314   -0.2317713  0.00    0.0067834    0.0405997    0.0006032
c     1.1608550    1.5142058   -0.2620357  0.00    0.0324492    0.0326466    0.0015419
n     0.2745050   -0.5484005   -0.2798877  0.00    0.0884211    0.0644277   -0.0046173
c     2.2268151    0.5953301   -0.2772788  0.00    0.0932569   -0.0395178   -0.0050675
c     1.6648789   -0.6537425   -0.2489887  0.00   -0.0454880   -0.0618876    0.0034569
h    -0.4123232   -1.3102441   -0.2949660  0.00    0.0206967    0.0281081   -0.0001677
c     3.7028985    0.9372040   -0.2984571  0.00    0.0040553   -0.0085059   -0.0068993
c     4.6690268   -0.1733014    0.1864795  0.00    0.0490544    0.0897778   -0.0176341
h     3.8530973    1.8279409    0.3364402  0.00   -0.0029737   -0.0044169   -0.0069829
h     3.9756139    1.2391642   -1.3247774  0.00   -0.0009256   -0.0018911    0.0085325
c     4.8308590   -1.2973027   -0.8579388  0.00   -0.1754387   -0.1747967   -0.0786679
n     4.2659045   -0.7619034    1.5011437  0.00   -0.0153765   -0.0499665    0.0305638
h     5.6805335    0.2519866    0.3098805  0.00   -0.0091232   -0.0092240    0.0006221
h     3.3911309   -0.3128417    1.8201825  0.00    0.0109078   -0.0036411   -0.0266338
h     4.0279214   -1.7607835    1.3601074  0.00    0.0065427    0.0234355   -0.0197326
h    -2.2586568    3.2984994   -0.1368734  0.00   -0.0013801    0.0004786    0.0000908
h    -2.1652480    0.8220734   -0.1969143  0.00   -0.0029099    0.0017249    0.0001152
h    -0.1794630    4.6205748   -0.1574014  0.00    0.0004108    0.0011211    0.0002317
h     2.0203063    3.4959223   -0.2331102  0.00    0.0005743    0.0024512    0.0004517
h     2.1433551   -1.6138370   -0.1453258  0.00    0.0200660   -0.0115504   -0.0178624
o     3.8865217   -2.0898930   -1.2230760  0.00    0.0804979    0.1217385    0.0845482
o     6.0910409   -1.4021559   -1.3859567  0.00    0.0048033    0.0041592    0.0575992
h     6.0354140   -0.9227371   -2.2858837  0.00   -0.0135443    0.0229025   -0.0089740
    27
 Energy =       0.2552220330
c    -1.2360535    2.8843203   -0.2068867  0.00   -0.0300168    0.0233352    0.0017739
c    -1.2258199    1.5032907   -0.2660255  0.00   -0.0535443   -0.0215946    0.0013123
c    -0.0022016    0.8689977   -0.2979413  0.00   -0.0519882   -0.1111300    0.0000036
c    -0.0500118    3.5970779   -0.1851914  0.00   -0.0145695    0.0437469    0.0018911
c     1.1730262    2.9372376   -0.2161657  0.00    0.0072826    0.0406397    0.0005808
c     1.1913030    1.5460916   -0.2679602  0.00    0.0323009    0.0329785    0.0014534
n     0.2452075   -0.4897786   -0.3758073  0.00    0.0834217    0.0633847   -0.0049986
c     2.2321384    0.5962000   -0.2663788  0.00    0.0925751   -0.0390813   -0.0051482
c     1.6306782   -0.6355907   -0.2574138  0.00   -0.0413622   -0.0606214    0.0038560
h    -0.4663265   -1.2285702   -0.4537191  0.00    0.0175629    0.0248823   -0.0005429
c     3.7215971    0.8851989   -0.2512037  0.00    0.0041204   -0.0076110   -0.0072155
c     4.6404208   -0.2801178    0.2067547  0.00    0.0490322    0.0879514   -0.0170559
h     3.8929679    1.7466668    0.4198114  0.00   -0.0024160   -0.0033844   -0.0062018
h     4.0216379    1.2141371   -1.2621498  0.00   -0.0009199   -0.0013949    0.0076525
c     4.7576397   -1.4058201   -0.8501899  0.00   -0.1734336   -0.1694012   -0.0798457
n     4.2200348   -0.8653499    1.5172108  0.00   -0.0140618   -0.0488520    0.0303133
h     5.6709559    0.0991463    0.3343732  0.00   -0.0078357   -0.0086875    0.0005979
h     3.3608547   -0.3877269    1.8400347  0.00    0.0100626   -0.0031810   -0.0260302
h     3.9419630   -1.8537300    1.3673269  0.00    0.0060636    0.0218147   -0.0196455
h    -2.1863689    3.4146589   -0.1808349  0.00   -0.0017921    0.0006108    0.0000958
h    -2.1536889    0.9378287   -0.2911740  0.00   -0.0037501    0.0011006    0.0000798
h    -0.0733516    4.6844213   -0.1385948  0.00    0.0005019    0.0016606    0.0002496
h     2.1004781    3.5048204   -0.1867276  0.00    0.0013523    0.0029117    0.0004661
h     2.0740168   -1.6074876   -0.1102943  0.00    0.0202984   -0.0126433   -0.0171728
o     3.7745556   -2.1515116   -1.2210268  0.00    0.0788559    0.1191826    0.0823890
o     6.0068127   -1.5439204   -1.3983282  0.00    0.0086296   -0.0691461    0.1237448
h     6.0388781   -0.7689346   -2.1482015  0.00   -0.0163699    0.0925289   -0.0726027
    27
 Energy =       0.2551005153
c    -1.1653025    2.9925509   -0.2440176  0.00   -0.0297707    0.0229189    0.0017328
c    -1.1915849    1.6130258   -0.3113252  0.00   -0.0526544   -0.0213400    0.0012629
c     0.0136729    0.9466439   -0.3375281  0.00   -0.0507903   -0.1079933    0.0000935
c     0.0397790    3.6721454   -0.2088077  0.00   -0.0141634    0.0431883    0.0018508
c     1.2451966    2.9789806   -0.2321084  0.00    0.0075918    0.0398777    0.0005574
c     1.2256992    1.5883292   -0.2913812  0.00    0.0314774    0.0324915    0.0013385
n     0.2168729   -0.4173871   -0.4254156  0.00    0.0802552    0.0616188   -0.0050602
c     2.2375173    0.6062613   -0.2763472  0.00    0.0898703   -0.0378391   -0.0051454
c     1.5952962   -0.6051512   -0.2713986  0.00   -0.0399201   -0.0589609    0.0039616
h    -0.5191034   -1.1312276   -0.5251529  0.00    0.0160767    0.0232681   -0.0007025
c     3.7394447    0.8355582   -0.2319283  0.00    0.0045463   -0.0062111   -0.0070104
c     4.6052122   -0.3692492    0.2422675  0.00    0.0480935    0.0850931   -0.0169227
h     3.9323482    1.6895520    0.4433849  0.00   -0.0022332   -0.0030012   -0.0059683
h     4.0726062    1.1522075   -1.2371096  0.00   -0.0006520   -0.0010229    0.0069343
c     4.6934588   -1.5158492   -0.8008948  0.00   -0.1681456   -0.1649737   -0.0772637
n     4.1534032   -0.9195310    1.5574549  0.00   -0.0132693   -0.0482848    0.0304510
h     5.6510054   -0.0312729    0.3735688  0.00   -0.0066788   -0.0081892    0.0004581
h     3.2834838   -0.4364416    1.8452127  0.00    0.0088661   -0.0026102   -0.0248151
h     3.8801229   -1.9126967    1.4285999  0.00    0.0057893    0.0208039   -0.0192415
h    -2.1014149    3.5484872   -0.2228313  0.00   -0.0021593    0.0008128    0.0001012
h    -2.1343938    1.0725385   -0.3483702  0.00   -0.0040978    0.0007976    0.0000575
h     0.0457732    4.7598306   -0.1560750  0.00    0.0005068    0.0020944    0.0002644
h     2.1880971    3.5204691   -0.1890171  0.00    0.0018236    0.0031254    0.0004712
h     2.0020045   -1.5856701   -0.0845712  0.00    0.0196136   -0.0133488   -0.0158998
o     3.6821575   -2.2304413   -1.1701310  0.00    0.0766684    0.1151005    0.0792075
o     5.9342847   -1.6924185   -1.3578064  0.00    0.0092488   -0.0675970    0.1200549
h     5.9757066   -0.9276877   -2.1149748  0.00   -0.0158928    0.0901811   -0.0707679
    27
 Energy =       0.2415209145
c    -1.1394690    3.0138626   -0.2636277  0.00   -0.0252673    0.0197748    0.0014713
c    -1.1854939    1.6363132   -0.2994115  0.00   -0.0446014   -0.0184578    0.0009125
c     0.0051614    0.9531020   -0.3239434  0.00   -0.0413970   -0.0880785   -0.0008177
c     0.0735255    3.6749385   -0.2526690  0.00   -0.0117993    0.0369396    0.0016796
c     1.2642777    2.9645010   -0.2747567  0.00    0.0067097    0.0341454    0.0005994
c     1.2199349    1.5783699   -0.3074178  0.00    0.0268661    0.0276647    0.0010676
n     0.1814420   -0.4244690   -0.3380882  0.00    0.0653539    0.0501849   -0.0032505
c     2.2171429    0.5960163   -0.2878526  0.00    0.0765022   -0.0319247   -0.0043496
c     1.5740162   -0.6119129   -0.2627519  0.00   -0.0303272   -0.0488622    0.0028549
h    -0.5677765   -1.1380181   -0.3663998  0.00    0.0104597    0.0168422   -0.0005733
c     3.7195335    0.8250699   -0.2482468  0.00    0.0037438   -0.0051894   -0.0058337
c     4.5880002   -0.3698921    0.2453795  0.00    0.0404707    0.0718349   -0.0140994
h     3.9135499    1.6880034    0.4170804  0.00   -0.0018554   -0.0025224   -0.0049677
h     4.0519931    1.1279935   -1.2591680  0.00   -0.0004722   -0.0009123    0.0057997
c     4.7097572   -1.5093944   -0.7943789  0.00   -0.1423277   -0.1394903   -0.0650179
n     4.1298360   -0.9124820    1.5592243  0.00   -0.0095899   -0.0387048    0.0260584
h     5.6284668   -0.0158172    0.3870987  0.00   -0.0055042   -0.0070343    0.0004925
h     3.2361197   -0.4611458    1.8333833  0.00    0.0060773   -0.0015314   -0.0208454
h     3.9095532   -1.9248059    1.4513997  0.00    0.0043455    0.0146881   -0.0168590
h    -2.0668569    3.5839436   -0.2433023  0.00   -0.0018574    0.0009068    0.0000464
h    -2.1357835    1.1076866   -0.3057694  0.00   -0.0038989    0.0004134   -0.0000322
h     0.0966516    4.7634079   -0.2215696  0.00    0.0006121    0.0022556    0.0002482
h     2.2161320    3.4914730   -0.2533728  0.00    0.0019664    0.0029008    0.0004410
h     1.9966566   -1.5921109   -0.1052421  0.00    0.0173435   -0.0117964   -0.0137417
o     3.7008628   -2.2412261   -1.1870385  0.00    0.0640629    0.0972110    0.0670254
o     5.9577378   -1.6762256   -1.3447587  0.00    0.0079899   -0.0574767    0.1014327
h     6.0063722   -0.9256253   -2.1005037  0.00   -0.0136058    0.0762188   -0.0597416
    27
 Energy =       0.2398571205
c    -1.1625958    2.9917006   -0.2874256  0.00   -0.0244772    0.0192335    0.0014071
c    -1.2042107    1.6136075   -0.2816692  0.00   -0.0427960   -0.0184218    0.0008314
c    -0.0125801    0.9340753   -0.3083685  0.00   -0.0390761   -0.0823840   -0.0011025
c     0.0476706    3.6570284   -0.3174272  0.00   -0.0107653    0.0358058    0.0016253
c     1.2394238    2.9505790   -0.3447232  0.00    0.0066920    0.0333954    0.0005941
c     1.1986396    1.5646107   -0.3376254  0.00    0.0260223    0.0268656    0.0009740
n     0.1682803   -0.4451638   -0.2537354  0.00    0.0612700    0.0463737   -0.0027930
c     2.2003012    0.5903826   -0.3153979  0.00    0.0732366   -0.0307194   -0.0040363
c     1.5668853   -0.6208968   -0.2406000  0.00   -0.0275291   -0.0465910    0.0025672
h    -0.5780869   -1.1649701   -0.2145506  0.00    0.0073897    0.0134702   -0.0003706
c     3.7030244    0.8315189   -0.3315468  0.00    0.0023648   -0.0057666   -0.0059500
c     4.5947185   -0.3169537    0.2350155  0.00    0.0373101    0.0704217   -0.0137179
h     3.9101828    1.7500138    0.2583273  0.00   -0.0006980    0.0011278   -0.0025123
h     4.0056602    1.0536832   -1.3767261  0.00    0.0001601    0.0003585    0.0016181
c     4.7361130   -1.5195954   -0.7351392  0.00   -0.1395940   -0.1345160   -0.0625938
n     4.1545649   -0.7837393    1.5847803  0.00   -0.0031144   -0.0288179    0.0296679
h     5.6284995    0.0679944    0.3488398  0.00   -0.0046391   -0.0057864    0.0014092
h     3.2202534   -0.3830014    1.8099480  0.00    0.0009638    0.0018308   -0.0199853
h     4.0261360   -1.8250714    1.5646061  0.00    0.0025203    0.0004615   -0.0166132
h    -2.0915576    3.5589694   -0.2640372  0.00   -0.0018168    0.0008495    0.0000440
h    -2.1524752    1.0811239   -0.2476181  0.00   -0.0043982   -0.0001882   -0.0000065
h     0.0675784    4.7463440   -0.3165698  0.00    0.0007556    0.0026432    0.0002382
h     2.1895810    3.4816770   -0.3582753  0.00    0.0024153    0.0031846    0.0004193
h     2.0049265   -1.5933535   -0.0746111  0.00    0.0167635   -0.0116228   -0.0129225
o     3.7214750   -2.2405724   -1.1419664  0.00    0.0609066    0.0931557    0.0644840
o     6.0062263   -1.7561305   -1.2179268  0.00    0.0129618   -0.0593620    0.0961744
h     6.1127092   -1.0223042   -1.9822809  0.00   -0.0128282    0.0749987   -0.0594502
    27
 Energy =       0.2344120592
c    -1.2010661    2.9252443   -0.2587000  0.00   -0.0227218    0.0178756    0.0013003
c    -1.2220748    1.5472762   -0.2585944  0.00   -0.0396865   -0.0170822    0.0007889
c    -0.0216511    0.8859569   -0.2861553  0.00   -0.0362533   -0.0758790   -0.0009803
c    -0.0016157    3.6083042   -0.2845570  0.00   -0.0098906    0.0332506    0.0014919
c     1.1985727    2.9202174   -0.3124417  0.00    0.0063961    0.0309061    0.0005342
c     1.1765435    1.5360732   -0.3107162  0.00    0.0240025    0.0250601    0.0008543
n     0.1833441   -0.4941366   -0.2462789  0.00    0.0563856    0.0425989   -0.0026048
c     2.1935961    0.5850363   -0.2942089  0.00    0.0675001   -0.0282790   -0.0035457
c     1.5880476   -0.6400523   -0.2337363  0.00   -0.0255224   -0.0429644    0.0024275
h    -0.5477465   -1.2310266   -0.2151050  0.00    0.0065151    0.0120801   -0.0003396
c     3.6890680    0.8683354   -0.3051517  0.00    0.0019654   -0.0051049   -0.0053713
c     4.6132705   -0.2728341    0.2185117  0.00    0.0344022    0.0657847   -0.0132569
h     3.8721764    1.7706453    0.3184992  0.00   -0.0007018    0.0019319   -0.0018930
h     3.9835837    1.1377578   -1.3428978  0.00    0.0006294    0.0006529    0.0004910
c     4.7834365   -1.4285874   -0.7966128  0.00   -0.1293133   -0.1245217   -0.0578726
n     4.1896470   -0.7974073    1.5534197  0.00   -0.0026642   -0.0265325    0.0294829
h     5.6367263    0.1380673    0.3422621  0.00   -0.0038888   -0.0050356    0.0011454
h     3.2627212   -0.3998542    1.8160678  0.00   -0.0001277    0.0022800   -0.0182204
h     4.0561398   -1.8376996    1.4913481  0.00    0.0021904   -0.0011231   -0.0153082
h    -2.1383969    3.4785692   -0.2350810  0.00   -0.0017966    0.0008603    0.0000438
h    -2.1620881    1.0003551   -0.2300029  0.00   -0.0042010   -0.0002514   -0.0000002
h     0.0021891    4.6977415   -0.2802373  0.00    0.0007078    0.0025840    0.0002193
h     2.1409820    3.4648221   -0.3239987  0.00    0.0023562    0.0029884    0.0003859
h     2.0531818   -1.6069822   -0.0941797  0.00    0.0155244   -0.0114899   -0.0116200
o     3.7870592   -2.1852351   -1.2045753  0.00    0.0555734    0.0855392    0.0592290
o     6.0537383   -1.6054798   -1.3092801  0.00    0.0142453   -0.0559415    0.0881242
h     6.1319592   -0.8635511   -2.0643013  0.00   -0.0116259    0.0698124   -0.0555054
    27
 Energy =       0.2279581764
c    -1.2353430    2.8592637   -0.2296539  0.00   -0.0200197    0.0157933    0.0011421
c    -1.2374858    1.4825052   -0.2332618  0.00   -0.0349745   -0.0150372    0.0007115
c    -0.0303868    0.8381287   -0.2607345  0.00   -0.0320242   -0.0664486   -0.0008180
c    -0.0464161    3.5577017   -0.2524295  0.00   -0.0086245    0.0293354    0.0013019
c     1.1601911    2.8864378   -0.2801464  0.00    0.0058236    0.0271621    0.0004532
c     1.1542296    1.5054317   -0.2817771  0.00    0.0210062    0.0222644    0.0006935
n     0.1958978   -0.5431346   -0.2335447  0.00    0.0492760    0.0372432   -0.0022981
c     2.1842862    0.5783203   -0.2708647  0.00    0.0591098   -0.0247162   -0.0029211
c     1.6068740   -0.6588745   -0.2246590  0.00   -0.0225388   -0.0375675    0.0022047
h    -0.5201426   -1.2964015   -0.2079951  0.00    0.0054578    0.0102779   -0.0003009
c     3.6717576    0.9021602   -0.2793061  0.00    0.0014161   -0.0041645   -0.0045813
c     4.6298317   -0.2291656    0.1993173  0.00    0.0301464    0.0584586   -0.0121371
h     3.8338586    1.7863963    0.3766781  0.00   -0.0007176    0.0025071   -0.0012542
h     3.9538026    1.2175254   -1.3088642  0.00    0.0010000    0.0009488   -0.0005580
c     4.8289391   -1.3340559   -0.8597837  0.00   -0.1140279   -0.1094819   -0.0507963
n     4.2280031   -0.8093285    1.5180730  0.00   -0.0017526   -0.0236709    0.0278751
h     5.6419044    0.2089973    0.3318529  0.00   -0.0029930   -0.0040963    0.0008314
h     3.3119249   -0.4146067    1.8247491  0.00   -0.0015266    0.0027876   -0.0156141
h     4.0877378   -1.8465894    1.4170300  0.00    0.0018338   -0.0023887   -0.0135254
h    -2.1799908    3.3998357   -0.2065131  0.00   -0.0016736    0.0008188    0.0000412
h    -2.1695427    0.9225119   -0.2092566  0.00   -0.0038053   -0.0002808    0.0000045
h    -0.0571088    4.6469216   -0.2462935  0.00    0.0006317    0.0023808    0.0001920
h     2.0954351    3.4428108   -0.2910092  0.00    0.0021750    0.0026461    0.0003377
h     2.1002410   -1.6183593   -0.1149859  0.00    0.0139559   -0.0110435   -0.0099876
o     3.8515250   -2.1285864   -1.2715612  0.00    0.0479306    0.0745385    0.0517764
o     6.0962351   -1.4494916   -1.4025372  0.00    0.0148561   -0.0501278    0.0765225
h     6.1450856   -0.7047980   -2.1492265  0.00   -0.0099407    0.0618613   -0.0492956
    27
 Energy =       0.2210466459
c    -1.2619700    2.7992372   -0.2010917  0.00   -0.0162625    0.0128924    0.0009302
c    -1.2487322    1.4248167   -0.2076723  0.00   -0.0284720   -0.0122158    0.0006008
c    -0.0379451    0.7945841   -0.2335125  0.00   -0.0261799   -0.0538007   -0.0006093
c    -0.0822836    3.5091443   -0.2201121  0.00   -0.0069406    0.0238974    0.0010506
c     1.1279464    2.8515499   -0.2461581  0.00    0.0049085    0.0220401    0.0003475
c     1.1335460    1.4749349   -0.2502924  0.00    0.0169597    0.0183265    0.0004908
n     0.2043469   -0.5886089   -0.2186539  0.00    0.0397836    0.0301322   -0.0018775
c     2.1727948    0.5708193   -0.2443335  0.00    0.0478450   -0.0199467   -0.0021513
c     1.6215504   -0.6757151   -0.2138634  0.00   -0.0184440   -0.0302697    0.0018800
h    -0.4981994   -1.3565090   -0.1987136  0.00    0.0042306    0.0080737   -0.0002530
c     3.6523989    0.9305573   -0.2505942  0.00    0.0006543   -0.0030658   -0.0035825
c     4.6432403   -0.1912687    0.1784868  0.00    0.0244010    0.0481364   -0.0102508
h     3.7976787    1.7928652    0.4388987  0.00   -0.0007072    0.0028515   -0.0005604
h     3.9193335    1.2926766   -1.2699751  0.00    0.0012288    0.0012255   -0.0015207
c     4.8693985   -1.2401932   -0.9250781  0.00   -0.0934073   -0.0888805   -0.0411083
n     4.2680097   -0.8253723    1.4791317  0.00   -0.0003616   -0.0200703    0.0245133
h     5.6436585    0.2732381    0.3191944  0.00   -0.0020407   -0.0029947    0.0005008
h     3.3672418   -0.4334419    1.8365269  0.00   -0.0031446    0.0032927   -0.0120786
h     4.1184509   -1.8576475    1.3418050  0.00    0.0014510   -0.0032374   -0.0111866
h    -2.2122602    3.3294592   -0.1796548  0.00   -0.0014207    0.0007085    0.0000359
h    -2.1738854    0.8542073   -0.1889395  0.00   -0.0031766   -0.0002679    0.0000082
h    -0.1044634    4.5978799   -0.2129359  0.00    0.0005234    0.0020022    0.0001553
h     2.0573907    3.4167880   -0.2561226  0.00    0.0018420    0.0021401    0.0002718
h     2.1420759   -1.6260056   -0.1360452  0.00    0.0119724   -0.0100225   -0.0080645
o     3.9109901   -2.0749482   -1.3416480  0.00    0.0377756    0.0598862    0.0420435
o     6.1284782   -1.2907385   -1.5019410  0.00    0.0146773   -0.0418846    0.0611019
h     6.1425526   -0.5507530   -2.2434092  0.00   -0.0076954    0.0510511   -0.0406872
    27
 Energy =       0.2144642685
c    -1.2758663    2.7535095   -0.1725970  0.00   -0.0114260    0.0091139    0.0006676
c    -1.2536622    1.3824629   -0.1810144  0.00   -0.0201057   -0.0086019    0.0004559
c    -0.0434717    0.7609223   -0.2029950  0.00   -0.0185869   -0.0378656   -0.0003711
c    -0.1024650    3.4684449   -0.1868375  0.00   -0.0048580    0.0168705    0.0007407
c     1.1073387    2.8186508   -0.2090514  0.00    0.0035926    0.0155075    0.0002182
c     1.1170611    1.4474986   -0.2145539  0.00    0.0118691    0.0131370    0.0002499
n     0.2060869   -0.6255706   -0.1993245  0.00    0.0279167    0.0212162   -0.0013368
c     2.1597079    0.5627448   -0.2125276  0.00    0.0336674   -0.0139722   -0.0012547
c     1.6293060   -0.6889417   -0.1986055  0.00   -0.0131494   -0.0210734    0.0014261
h    -0.4865628   -1.4046748   -0.1849024  0.00    0.0028756    0.0055391   -0.0001916
c     3.6329904    0.9495383   -0.2170117  0.00   -0.0003458   -0.0019154   -0.0024388
c     4.6530190   -0.1662817    0.1545494  0.00    0.0170988    0.0345178   -0.0074992
h     3.7684030    1.7840692    0.5087017  0.00   -0.0006284    0.0029006    0.0001897
h     3.8827111    1.3606529   -1.2230775  0.00    0.0012266    0.0014314   -0.0022978
c     4.8997085   -1.1536054   -0.9950985  0.00   -0.0675515   -0.0623629   -0.0286425
n     4.3100833   -0.8524825    1.4350072  0.00    0.0017440   -0.0155581    0.0189839
h     5.6431227    0.3207075    0.3014647  0.00   -0.0011565   -0.0018267    0.0002113
h     3.4333543   -0.4598992    1.8530325  0.00   -0.0050490    0.0038628   -0.0074888
h     4.1427840   -1.8769684    1.2637828  0.00    0.0010490   -0.0036541   -0.0083199
h    -2.2290746    3.2778759   -0.1546275  0.00   -0.0010259    0.0005179    0.0000283
h    -2.1742454    0.8056057   -0.1684168  0.00   -0.0022881   -0.0002054    0.0000109
h    -0.1307758    4.5565802   -0.1796498  0.00    0.0003764    0.0014321    0.0001092
h     2.0336564    3.3879083   -0.2176052  0.00    0.0013402    0.0014708    0.0001855
h     2.1729814   -1.6292020   -0.1532421  0.00    0.0094285   -0.0080881   -0.0058809
o     3.9604887   -2.0342605   -1.4106546  0.00    0.0249518    0.0414177    0.0302233
o     6.1406994   -1.1319854   -1.6176343  0.00    0.0138646   -0.0319386    0.0421661
h     6.1039647   -0.4117435   -2.3638143  0.00   -0.0048301    0.0381270   -0.0301447
    27
 Energy =       0.2103510972
c    -1.2595389    2.7584113   -0.1603713  0.00   -0.0075905    0.0059530    0.0004659
c    -1.2450477    1.3901115   -0.1720116  0.00   -0.0132927   -0.0057080    0.0003586
c    -0.0422878    0.7624170   -0.1852392  0.00   -0.0121851   -0.0249494   -0.0001558
c    -0.0832238    3.4643328   -0.1630606  0.00   -0.0032255    0.0111610    0.0004870
c     1.1193261    2.8074134   -0.1760402  0.00    0.0024541    0.0102399    0.0001074
c     1.1173319    1.4405162   -0.1848667  0.00    0.0078676    0.0086884    0.0000814
n     0.1962627   -0.6289912   -0.1893410  0.00    0.0183993    0.0139027   -0.0009743
c     2.1523191    0.5588317   -0.1795937  0.00    0.0222567   -0.0092705   -0.0006811
c     1.6230681   -0.6898159   -0.1807155  0.00   -0.0086603   -0.0138807    0.0009620
h    -0.4980029   -1.4084697   -0.1850503  0.00    0.0018298    0.0035973   -0.0001385
c     3.6255089    0.9475540   -0.1685792  0.00   -0.0012233   -0.0014535   -0.0018479
c     4.6538986   -0.1798707    0.1406042  0.00    0.0107972    0.0225784   -0.0045942
h     3.7610944    1.7445171    0.5994213  0.00   -0.0003485    0.0030755    0.0011133
h     3.8702040    1.4105244   -1.1538173  0.00    0.0009745    0.0016401   -0.0028550
c     4.8934047   -1.1132685   -1.0517118  0.00   -0.0468634   -0.0396395   -0.0180033
n     4.3396234   -0.9070011    1.4027620  0.00    0.0022895   -0.0112992    0.0136239
h     5.6438853    0.3091246    0.2873464  0.00   -0.0007237   -0.0011228    0.0002739
h     3.4788357   -0.5266646    1.8645946  0.00   -0.0048442    0.0032767   -0.0042692
h     4.1694596   -1.9262916    1.2086435  0.00    0.0007671   -0.0029675   -0.0055942
h    -2.2093963    3.2884696   -0.1496563  0.00   -0.0007297    0.0003500    0.0000235
h    -2.1682324    0.8182635   -0.1698822  0.00   -0.0015718   -0.0001771    0.0000154
h    -0.1045241    4.5522513   -0.1542005  0.00    0.0002446    0.0009733    0.0000705
h     2.0495702    3.3695541   -0.1763848  0.00    0.0009575    0.0009822    0.0001084
h     2.1722010   -1.6264140   -0.1494727  0.00    0.0066786   -0.0055137   -0.0041479
o     3.9755556   -2.0505433   -1.4340999  0.00    0.0133483    0.0253274    0.0212626
o     6.0969840   -1.0153877   -1.7434131  0.00    0.0157131   -0.0279717    0.0305070
h     5.9730642   -0.3480181   -2.5225675  0.00   -0.0033190    0.0322075   -0.0261996
    27
 Energy =       0.2089835948
c    -1.2219885    2.8075452   -0.1634798  0.00   -0.0063142    0.0049564    0.0003890
c    -1.2282304    1.4400145   -0.1563885  0.00   -0.0108575   -0.0048208    0.0002783
c    -0.0366241    0.7942228   -0.1628086  0.00   -0.0097984   -0.0200158   -0.0001976
c    -0.0354184    3.4946432   -0.1772390  0.00   -0.0026071    0.0092669    0.0004188
c     1.1558031    2.8191551   -0.1833012  0.00    0.0021286    0.0084715    0.0001056
c     1.1315521    1.4538181   -0.1740284  0.00    0.0064385    0.0069668    0.0000672
n     0.1790216   -0.6020036   -0.1444516  0.00    0.0148330    0.0108040   -0.0007338
c     2.1520201    0.5595043   -0.1588760  0.00    0.0180773   -0.0072658   -0.0005453
c     1.6063079   -0.6807760   -0.1394189  0.00   -0.0069904   -0.0114153    0.0007065
h    -0.5263479   -1.3721387   -0.1257130  0.00    0.0012449    0.0026351   -0.0000966
c     3.6306448    0.9283645   -0.1543634  0.00   -0.0012874   -0.0010986   -0.0015987
c     4.6491430   -0.2167201    0.1201312  0.00    0.0083149    0.0179012   -0.0034216
h     3.7837905    1.7081592    0.6276933  0.00   -0.0002444    0.0027487    0.0011752
h     3.8715868    1.4070196   -1.1324780  0.00    0.0007158    0.0014124   -0.0024395
c     4.8440303   -1.1482062   -1.0818234  0.00   -0.0375257   -0.0298003   -0.0134866