    24
 Energy =       0.2009687568
c     1.6703672    2.6182922    0.2614132  0.00    0.0363093    0.0883914    0.0346394
c     0.3248649    2.9356558    0.1418766  0.00   -0.0037956    0.1044244    0.0333877
c    -0.5827484    1.9945952   -0.3219261  0.00   -0.0877409    0.0360249   -0.0016872
c     2.1038063    1.3347474   -0.0833024  0.00    0.0664652   -0.0129113    0.0077816
c     1.2047783    0.3610782   -0.5608861  0.00    0.0064743   -0.1088666   -0.0194171
c    -0.1441045    0.7159142   -0.6796715  0.00   -0.0516280   -0.1273620    0.0059652
o    -0.1504797    4.1703171    0.4675790  0.00    0.0411238   -0.0051300    0.0048030
h     0.5965194    4.7277081    0.7407382  0.00   -0.0326851   -0.0686429   -0.0267419
h    -0.8895274    0.0262790   -1.0546636  0.00   -0.0643987   -0.2208265    0.1815464
h     3.1621727    1.0964802    0.0165124  0.00    0.0030335    0.0000611   -0.0007682
h     2.3926004    3.3457758    0.6178375  0.00    0.0024904   -0.0014680   -0.0009112
h    -1.6336796    2.2563998   -0.4108671  0.00   -0.0037003   -0.0032605   -0.0010286
c     1.7669373   -1.0073413   -0.8964724  0.00   -0.0309902   -0.0238593    0.0456979
c     0.8861134   -2.0194266   -1.6556448  0.00    0.1402798    0.0640037    0.0337098
h     2.1212937   -1.4658931    0.0371405  0.00   -0.0026316    0.0070996   -0.0130010
h     2.6645729   -0.8285312   -1.5058794  0.00   -0.0085708    0.0052447    0.0111022
c    -0.2550706   -2.4993401   -0.7313897  0.00   -0.2674273   -0.2881199   -0.0372394
o    -0.8587891   -3.5562519   -0.8247086  0.00    0.1464921    0.2478546    0.0307221
o    -0.5457168   -1.5582366    0.2075950  0.00    0.0674514    0.1533501   -0.1285058
h    -1.4556182   -1.2376649   -0.0182350  0.00    0.1194623    0.1705193   -0.1517718
n     0.2410616   -1.4915667   -2.9017470  0.00   -0.0853641   -0.0463206   -0.0579371
h     1.4642165   -2.9122299   -1.9206526  0.00   -0.0183201    0.0170428   -0.0109977
h     0.7142380   -1.9162587   -3.7076332  0.00   -0.0179822    0.0067392    0.0313427
h    -0.7141630   -1.8528277   -2.9524509  0.00    0.0456528    0.0060116    0.0293090
    24
 Energy =       0.1876459402
c     1.7549754    2.5620214    0.2995931  0.00    0.0340360    0.0818475    0.0321163
c     0.4171005    2.9146247    0.2129013  0.00   -0.0035784    0.0960269    0.0305665
c    -0.5179329    2.0045799   -0.2511114  0.00   -0.0817702    0.0334353   -0.0017460
c     2.1533591    1.2778982   -0.0768333  0.00    0.0620367   -0.0118398    0.0075525
c     1.2242521    0.3383722   -0.5567917  0.00    0.0052507   -0.0994296   -0.0171091
c    -0.1137349    0.7267362   -0.6388323  0.00   -0.0482266   -0.1177224    0.0052975
o    -0.0181614    4.1571081    0.5799964  0.00    0.0359303   -0.0034524    0.0048817
h     0.7552725    4.6983355    0.8283194  0.00   -0.0289905   -0.0625549   -0.0244526
h    -0.8771838    0.0604361   -1.0125697  0.00   -0.0596658   -0.2042458    0.1674418
h     3.2084087    1.0135560   -0.0068006  0.00    0.0036277   -0.0001725   -0.0006313
h     2.5007618    3.2652184    0.6580762  0.00    0.0027334   -0.0009521   -0.0006302
h    -1.5645751    2.2911253   -0.3142028  0.00   -0.0040688   -0.0028148   -0.0009889
c     1.7379973   -1.0309129   -0.9728076  0.00   -0.0283136   -0.0226227    0.0419091
c     0.7911848   -1.9983718   -1.7199019  0.00    0.1292739    0.0584983    0.0318989
h     2.1392271   -1.5335916   -0.0776048  0.00   -0.0011007    0.0057018   -0.0097135
h     2.6007741   -0.8463812   -1.6330428  0.00   -0.0065151    0.0043212    0.0087967
c    -0.3202219   -2.4796037   -0.7645847  0.00   -0.2463543   -0.2675103   -0.0368835
o    -0.9323894   -3.5473279   -0.8442043  0.00    0.1349536    0.2287571    0.0289984
o    -0.5642713   -1.5658751    0.2193211  0.00    0.0641482    0.1417354   -0.1152874
h    -1.4711237   -1.1993456    0.0325759  0.00    0.1074320    0.1589305   -0.1406364
n     0.1177185   -1.4144732   -2.9246160  0.00   -0.0816534   -0.0407207   -0.0532682
h     1.3351533   -2.9004345   -2.0379179  0.00   -0.0157305    0.0140674   -0.0107414
h     0.5714451   -1.7905498   -3.7692510  0.00   -0.0152919    0.0051631    0.0259007
h    -0.8443907   -1.7654701   -2.9651483  0.00    0.0418375    0.0055537    0.0267284
    24
 Energy =       0.1832161992
c     1.6730601    2.5962042    0.2919000  0.00    0.0341437    0.0806558    0.0317994
c     0.3283419    2.9130525    0.1724769  0.00   -0.0034594    0.0940897    0.0299819
c    -0.5747078    1.9747282   -0.2997934  0.00   -0.0810981    0.0330420   -0.0017553
c     2.1094407    1.3179549   -0.0597892  0.00    0.0616610   -0.0117847    0.0075670
c     1.2133899    0.3507775   -0.5462721  0.00    0.0049219   -0.0976123   -0.0167052
c    -0.1327247    0.7023153   -0.6654177  0.00   -0.0480008   -0.1156353    0.0050627
o    -0.1509309    4.1487601    0.5105435  0.00    0.0333725   -0.0026771    0.0048242
h     0.5965194    4.7177358    0.7785931  0.00   -0.0273960   -0.0603976   -0.0236153
h    -0.8681180    0.0062129   -1.0542509  0.00   -0.0588951   -0.2006385    0.1634163
h     3.1689444    1.0790163    0.0392655  0.00    0.0043484   -0.0003634   -0.0005427
h     2.3928789    3.3233907    0.6569382  0.00    0.0031756   -0.0005037   -0.0003887
h    -1.6265879    2.2363218   -0.3899042  0.00   -0.0047047   -0.0025792   -0.0010287
c     1.7710609   -1.0152581   -0.9091556  0.00   -0.0277854   -0.0226418    0.0409497
c     0.8703303   -1.9962321   -1.6909829  0.00    0.1272836    0.0571821    0.0309683
h     2.1235101   -1.4989221    0.0189332  0.00   -0.0003358    0.0051681   -0.0078377
h     2.6712251   -0.8352668   -1.5224712  0.00   -0.0049228    0.0039902    0.0075487
c    -0.2702305   -2.4918854   -0.7744220  0.00   -0.2420043   -0.2616685   -0.0361340
o    -0.8523888   -3.5764140   -0.8973472  0.00    0.1319482    0.2228561    0.0282385
o    -0.5554223   -1.5950479    0.2187145  0.00    0.0625257    0.1397840   -0.1118384
h    -1.4618186   -1.2300777    0.0251929  0.00    0.1051401    0.1555092   -0.1375857
n     0.2373065   -1.4214194   -2.9217386  0.00   -0.0808492   -0.0391359   -0.0527843
h     1.4409419   -2.8911176   -1.9835499  0.00   -0.0150082    0.0133437   -0.0109068
h     0.7092196   -1.8209862   -3.7466711  0.00   -0.0144530    0.0047121    0.0246267
h    -0.7295947   -1.7561686   -2.9862298  0.00    0.0403921    0.0053051    0.0261395
    24
 Energy =       0.1660305526
c     1.5884127    2.6285104    0.2711056  0.00    0.0310189    0.0719359    0.0285339
c     0.2411981    2.9086250    0.1225911  0.00   -0.0027343    0.0832757    0.0266974
c    -0.6268129    1.9434111   -0.3522249  0.00   -0.0726804    0.0295926   -0.0014945
c     2.0615892    1.3612879   -0.0548747  0.00    0.0553715   -0.0107138    0.0067536
c     1.2010798    0.3691431   -0.5423600  0.00    0.0040282   -0.0866452   -0.0148463
c    -0.1496104    0.6805404   -0.6932728  0.00   -0.0434966   -0.1030202    0.0043557
o    -0.2805973    4.1391172    0.4309181  0.00    0.0274916   -0.0021612    0.0040158
h     0.4377662    4.7436678    0.7166831  0.00   -0.0230961   -0.0522444   -0.0204098
h    -0.8577907   -0.0464831   -1.0872855  0.00   -0.0530205   -0.1799638    0.1449711
h     3.1244903    1.1495112    0.0701826  0.00    0.0045974   -0.0005186   -0.0004088
h     2.2810941    3.3802557    0.6398683  0.00    0.0033003    0.0000158   -0.0001071
h    -1.6828017    2.1794365   -0.4653283  0.00   -0.0047985   -0.0021028   -0.0009580
c     1.8029977   -0.9904103   -0.8549079  0.00   -0.0242046   -0.0207299    0.0361331
c     0.9460013   -1.9949371   -1.6498735  0.00    0.1132912    0.0504154    0.0277013
h     2.1238462   -1.4502791    0.0988982  0.00    0.0001363    0.0043794   -0.0059331
h     2.7258459   -0.8101018   -1.4368647  0.00   -0.0036802    0.0032581    0.0062512
c    -0.2103664   -2.5041377   -0.7641131  0.00   -0.2145330   -0.2307335   -0.0322759
o    -0.7619791   -3.6192812   -0.9324114  0.00    0.1169444    0.1953631    0.0241229
o    -0.5505770   -1.6294882    0.2385223  0.00    0.0549858    0.1258162   -0.0975226
h    -1.4580307   -1.2703941    0.0300514  0.00    0.0933645    0.1389652   -0.1224551
n     0.3568456   -1.4353191   -2.9069309  0.00   -0.0724726   -0.0334726   -0.0472500
h     1.5470588   -2.8828625   -1.9091360  0.00   -0.0127547    0.0111267   -0.0100340
h     0.8430644   -1.8656524   -3.7113475  0.00   -0.0120629    0.0036351    0.0209188
h    -0.6190787   -1.7464851   -2.9933274  0.00    0.0350044    0.0045267    0.0232406
    24
 Energy =       0.1211826570
c     1.4975858    2.6664428    0.2020386  0.00    0.0172838    0.0395829    0.0161166
c     0.1575405    2.9076915    0.0351229  0.00   -0.0001410    0.0451567    0.0152885
c    -0.6671255    1.9167863   -0.4229016  0.00   -0.0397210    0.0166628   -0.0004213
c     2.0065249    1.4231256   -0.0931525  0.00    0.0303992   -0.0064730    0.0035808
c     1.1882167    0.4104816   -0.5635466  0.00    0.0007105   -0.0473126   -0.0084777
c    -0.1606861    0.6729894   -0.7273638  0.00   -0.0263574   -0.0609892    0.0032493
o    -0.4035028    4.1420437    0.3119016  0.00    0.0121957   -0.0027319    0.0010561
h     0.2790131    4.8035135    0.6156252  0.00   -0.0107621   -0.0258888   -0.0101486
h    -0.8503852   -0.0876922   -1.0898841  0.00   -0.0353171   -0.1156730    0.0926401
h     3.0722560    1.2442219    0.0504157  0.00    0.0032172   -0.0005932   -0.0001802
h     2.1605679    3.4468724    0.5653065  0.00    0.0023609    0.0005749    0.0002325
h    -1.7268708    2.1242291   -0.5465206  0.00   -0.0031141   -0.0009028   -0.0005483
c     1.8383330   -0.9421168   -0.8264937  0.00   -0.0136180   -0.0114778    0.0193658
c     1.0115331   -2.0065480   -1.5699797  0.00    0.0606157    0.0252349    0.0171584
h     2.1735196   -1.3556981    0.1485391  0.00    0.0005351    0.0019024   -0.0019884
h     2.7541416   -0.7607303   -1.4248542  0.00   -0.0018798    0.0019281    0.0033279
c    -0.1238840   -2.5219748   -0.6835097  0.00   -0.1169207   -0.1232907   -0.0203167
o    -0.6567248   -3.7093213   -0.8860462  0.00    0.0657211    0.1029117    0.0111502
o    -0.5565903   -1.6793200    0.3231683  0.00    0.0322575    0.0784140   -0.0524769
h    -1.4740550   -1.3555185    0.0726116  0.00    0.0560577    0.0910318   -0.0799818
n     0.4754057   -1.4874472   -2.8595386  0.00   -0.0393053   -0.0138948   -0.0257965
h     1.6558931   -2.8890430   -1.7694188  0.00   -0.0058019    0.0040612   -0.0057182
h     0.9593356   -1.9803767   -3.6404591  0.00   -0.0046307   -0.0001856    0.0088220
h    -0.5263968   -1.7449365   -2.9564981  0.00    0.0162148    0.0019522    0.0140663
    24
 Energy =       0.0957251016
c     1.4858764    2.6964174    0.1076607  0.00    0.0048906    0.0115932    0.0052136
c     0.1534824    2.9271451   -0.0517234  0.00    0.0004938    0.0136959    0.0049014
c    -0.6556985    1.9282918   -0.4814136  0.00   -0.0115072    0.0052192    0.0001300
c     2.0014534    1.4654470   -0.1652179  0.00    0.0089954   -0.0018215    0.0013286
c     1.1950259    0.4468170   -0.6015494  0.00   -0.0006979   -0.0145281   -0.0028338
c    -0.1477902    0.6930021   -0.7530758  0.00   -0.0095380   -0.0240793    0.0027367
o    -0.4128647    4.1717162    0.2177411  0.00    0.0016084   -0.0026804   -0.0016050
h     0.2487019    4.8446134    0.5809928  0.00   -0.0013941   -0.0059866   -0.0010194
h    -0.8408334   -0.0816809   -1.0664206  0.00   -0.0192505   -0.0579859    0.0481672
h     3.0678117    1.2992360   -0.0240691  0.00    0.0010445   -0.0001999   -0.0000154
h     2.1415970    3.4898135    0.4528614  0.00    0.0008922    0.0003237    0.0001835
h    -1.7169560    2.1250639   -0.5956991  0.00   -0.0010394   -0.0003064   -0.0002435
c     1.8491405   -0.9138088   -0.8345760  0.00   -0.0053754   -0.0025731    0.0059807
c     1.0103514   -2.0242407   -1.5034656  0.00    0.0169653    0.0049752    0.0061818
h     2.2157474   -1.2871329    0.1485338  0.00    0.0004836    0.0002920    0.0007089
h     2.7453044   -0.7521608   -1.4731557  0.00    0.0002106    0.0009873    0.0002994
c    -0.0867654   -2.5427576   -0.5812701  0.00   -0.0375659   -0.0335293   -0.0100678
o    -0.5992205   -3.7989919   -0.7529378  0.00    0.0213979    0.0268816    0.0049924
o    -0.5810627   -1.7188443    0.4174180  0.00    0.0135921    0.0325677   -0.0183933
h    -1.5135661   -1.4426682    0.1457272  0.00    0.0251819    0.0488111   -0.0436174
n     0.4906629   -1.5487970   -2.8094315  0.00   -0.0043213    0.0056371   -0.0020116
h     1.6797070   -2.9014508   -1.6652030  0.00   -0.0012637    0.0003082   -0.0013906
h     0.9031191   -2.1391298   -3.5785736  0.00    0.0033199   -0.0071232   -0.0061138
h    -0.5495787   -1.6982252   -2.8685909  0.00   -0.0071229   -0.0004783    0.0064875
    24
 Energy =       0.0916726346
c     1.4698188    2.7163780    0.0730160  0.00    0.0037144    0.0088621    0.0040201
c     0.1369778    2.9387755   -0.0869086  0.00    0.0004382    0.0103174    0.0037648
c    -0.6676306    1.9296759   -0.4972259  0.00   -0.0087782    0.0038691    0.0000698
c     1.9905218    1.4849652   -0.1813548  0.00    0.0068842   -0.0013963    0.0010172
c     1.1887911    0.4571784   -0.6001566  0.00   -0.0006310   -0.0111669   -0.0022253
c    -0.1547414    0.6942127   -0.7509532  0.00   -0.0074301   -0.0188450    0.0020964
o    -0.4335488    4.1872135    0.1616770  0.00    0.0006217   -0.0023749   -0.0014316
h     0.2285228    4.8765712    0.4954570  0.00   -0.0005071   -0.0038080   -0.0005001
h    -0.8440154   -0.0875488   -1.0538351  0.00   -0.0151112   -0.0455417    0.0375781
h     3.0578935    1.3263696   -0.0406977  0.00    0.0008241   -0.0001413   -0.0000022
h     2.1221946    3.5184564    0.4040275  0.00    0.0007511    0.0003663    0.0001887
h    -1.7297711    2.1197059   -0.6127842  0.00   -0.0008116   -0.0002279   -0.0001906
c     1.8488205   -0.9032484   -0.8205520  0.00   -0.0040902   -0.0019835    0.0044436
c     1.0115697   -2.0232242   -1.4758802  0.00    0.0131957    0.0030721    0.0048303
h     2.2204592   -1.2651048    0.1648789  0.00    0.0003937    0.0001885    0.0006090
h     2.7419025   -0.7444968   -1.4640430  0.00    0.0001686    0.0007563    0.0001977
c    -0.0573090   -2.5637527   -0.5331151  0.00   -0.0276161   -0.0223214   -0.0076417
o    -0.5030103   -3.8589212   -0.6602611  0.00    0.0149536    0.0153000    0.0034649
o    -0.5949384   -1.7395928    0.4430386  0.00    0.0120985    0.0258756   -0.0127418
h    -1.5353319   -1.5075729    0.1544235  0.00    0.0180941    0.0387179   -0.0350139
n     0.4603838   -1.5477441   -2.7680147  0.00    0.0056219    0.0228409    0.0134299
h     1.6889235   -2.8916245   -1.6547032  0.00   -0.0006950   -0.0000296   -0.0008276
h     0.9908369   -2.0220183   -3.5606126  0.00    0.0150101   -0.0158311   -0.0198428
h    -0.5536741   -1.8569784   -2.8708585  0.00   -0.0270995   -0.0064986    0.0047070
    24
 Energy =       0.0902307090
c     1.4396178    2.7408956    0.0401979  0.00    0.0031750    0.0075100    0.0034118
c     0.1054933    2.9482832   -0.1257455  0.00    0.0003861    0.0086357    0.0031698
c    -0.6871527    1.9270324   -0.5273449  0.00   -0.0074587    0.0032564    0.0000473
c     1.9733818    1.5128252   -0.1996317  0.00    0.0058873   -0.0012035    0.0008594
c     1.1836094    0.4731120   -0.6095442  0.00   -0.0005372   -0.0094312   -0.0019637
c    -0.1609996    0.6950332   -0.7670578  0.00   -0.0063463   -0.0159665    0.0017462
o    -0.4781027    4.1944010    0.1074513  0.00    0.0002697   -0.0019299   -0.0012336
h     0.1764806    4.8964668    0.4306648  0.00   -0.0002790   -0.0029633   -0.0003362
h    -0.8403537   -0.0962624   -1.0655313  0.00   -0.0128526   -0.0386588    0.0317997
h     3.0420141    1.3668191   -0.0550845  0.00    0.0007824   -0.0001325    0.0000103
h     2.0827434    3.5531284    0.3644666  0.00    0.0006983    0.0004004    0.0001959
h    -1.7507410    2.1051113   -0.6481853  0.00   -0.0007689   -0.0001705   -0.0001677
c     1.8596253   -0.8812121   -0.8196834  0.00   -0.0033182   -0.0013679    0.0036467
c     1.0315814   -2.0261084   -1.4443901  0.00    0.0115706    0.0029793    0.0046558
h     2.2525486   -1.2225531    0.1652067  0.00    0.0004946    0.0000106    0.0008763
h     2.7403939   -0.7179970   -1.4791640  0.00    0.0003203    0.0007612    0.0000795
c    -0.0045452   -2.5821077   -0.4736267  0.00   -0.0206225   -0.0100194   -0.0073126
o    -0.3442572   -3.9249450   -0.5120902  0.00    0.0098262   -0.0004468    0.0020370
o    -0.6013284   -1.7437144    0.4574316  0.00    0.0122029    0.0248506   -0.0080257
h    -1.5424751   -1.5575281    0.1358660  0.00    0.0129276    0.0331649   -0.0305284
n     0.4482891   -1.5803074   -2.7328992  0.00    0.0050252    0.0200294    0.0104815
h     1.7262259   -2.8809365   -1.6252025  0.00   -0.0003270   -0.0002057   -0.0005615
h     0.9851908   -2.0380572   -3.5272431  0.00    0.0127256   -0.0134521   -0.0166482
h    -0.5535944   -1.9237044   -2.8242984  0.00   -0.0237817   -0.0056505    0.0037605
    24
 Energy =       0.0914495444
c     1.4252316    2.7398739    0.0629547  0.00    0.0030424    0.0076080    0.0034006
c     0.0886491    2.9406707   -0.0910593  0.00    0.0004114    0.0084046    0.0030901
c    -0.6983318    1.9220145   -0.5101963  0.00   -0.0074367    0.0033985    0.0000829
c     1.9668283    1.5208758   -0.2055894  0.00    0.0059107   -0.0013478    0.0008304
c     1.1823941    0.4835486   -0.6315687  0.00   -0.0010594   -0.0090331   -0.0020951
c    -0.1640431    0.6991852   -0.7788397  0.00   -0.0061267   -0.0160056    0.0016418
o    -0.5032156    4.1772849    0.1724790  0.00   -0.0000587   -0.0014443   -0.0011352
h     0.1470151    4.8764545    0.5108982  0.00   -0.0002140   -0.0026730   -0.0002446
h    -0.8381423   -0.0912191   -1.0900586  0.00   -0.0125576   -0.0382462    0.0311333
h     3.0377058    1.3802769   -0.0720943  0.00    0.0008570   -0.0002111    0.0000044
h     2.0641100    3.5502643    0.4002192  0.00    0.0007019    0.0005058    0.0002272
h    -1.7639233    2.0945365   -0.6214098  0.00   -0.0008168   -0.0001000   -0.0001546
c     1.8706767   -0.8577382   -0.8853127  0.00   -0.0040914   -0.0013768    0.0034627
c     1.0323365   -2.0192699   -1.4657537  0.00    0.0124123    0.0039987    0.0054114
h     2.3249170   -1.1959212    0.0762876  0.00    0.0013811   -0.0006036    0.0026232
h     2.7118903   -0.6736444   -1.5923688  0.00    0.0019204    0.0010792   -0.0011756
c     0.0486537   -2.5863955   -0.4456181  0.00   -0.0187518   -0.0002183   -0.0073265
o    -0.1855041   -3.9592793   -0.3860855  0.00    0.0068499   -0.0137099    0.0028230
o    -0.5814397   -1.7381297    0.4547718  0.00    0.0128318    0.0260304   -0.0072666
h    -1.5137392   -1.5606856    0.1033184  0.00    0.0117937    0.0325242   -0.0301095
n     0.3896644   -1.5951799   -2.7346563  0.00    0.0048562    0.0211230    0.0084396
h     1.7345768   -2.8634358   -1.6691629  0.00    0.0002316   -0.0003253   -0.0004888
h     0.9128049   -2.0398039   -3.5455128  0.00    0.0128214   -0.0133433   -0.0166978
h    -0.6054699   -1.9666089   -2.7910797  0.00   -0.0249085   -0.0060341    0.0035238
    24
 Energy =       0.0888936935
c     1.4490313    2.7449393    0.0300825  0.00    0.0026027    0.0071926    0.0031382
c     0.1158371    2.9564801   -0.1368830  0.00    0.0004135    0.0073907    0.0027620
c    -0.6797504    1.9354600   -0.5327248  0.00   -0.0068386    0.0033158    0.0001294
c     1.9788064    1.5133176   -0.2028778  0.00    0.0055021   -0.0014699    0.0007125
c     1.1858791    0.4741175   -0.6072841  0.00   -0.0015762   -0.0078489   -0.0021457
c    -0.1575300    0.7001593   -0.7658495  0.00   -0.0053568   -0.0149416    0.0013746
o    -0.4634840    4.2072602    0.0895976  0.00   -0.0006065   -0.0006408   -0.0009481
h     0.1937186    4.9108423    0.4058678  0.00   -0.0000259   -0.0019123   -0.0000674
h    -0.8390584   -0.0902401   -1.0611949  0.00   -0.0113344   -0.0349512    0.0281660
h     3.0469482    1.3640311   -0.0574132  0.00    0.0008941   -0.0002994   -0.0000013
h     2.0946598    3.5570870    0.3500723  0.00    0.0006668    0.0006506    0.0002626
h    -1.7427371    2.1166903   -0.6546718  0.00   -0.0008256    0.0000121   -0.0001268
c     1.8576019   -0.8853767   -0.8106369  0.00   -0.0045012   -0.0014452    0.0028219
c     1.0235067   -2.0279901   -1.4356135  0.00    0.0120246    0.0043346    0.0056590
h     2.2482014   -1.2271757    0.1792355  0.00    0.0021408   -0.0013135    0.0043507
h     2.7435494   -0.7276115   -1.4710699  0.00    0.0036169    0.0013002   -0.0023901
c    -0.0125468   -2.5886316   -0.4623400  0.00   -0.0149003    0.0077595   -0.0059578
o    -0.3442572   -3.9473755   -0.4888066  0.00    0.0029420   -0.0223834    0.0029609
o    -0.6264972   -1.7468787    0.4550448  0.00    0.0124016    0.0236809   -0.0061604
h    -1.5720575   -1.5846601    0.1305100  0.00    0.0096649    0.0296061   -0.0276241
n     0.4374591   -1.5785150   -2.7241164  0.00    0.0045065    0.0203416    0.0060428
h     1.7181045   -2.8829128   -1.6196560  0.00    0.0006574   -0.0004300   -0.0002914
h     0.9856651   -2.0160118   -3.5205134  0.00    0.0116528   -0.0120766   -0.0155951
h    -0.5574048   -1.9393306   -2.8241965  0.00   -0.0237215   -0.0058719    0.0029275
    24
 Energy =       0.0851050897
c     1.4976040    2.7401562    0.0028198  0.00    0.0020791    0.0061738    0.0026300
c     0.1702937    2.9760786   -0.1762755  0.00    0.0002981    0.0057792    0.0022074
c    -0.6441356    1.9630695   -0.5521693  0.00   -0.0057973    0.0029686    0.0001472
c     2.0027030    1.4927119   -0.1981303  0.00    0.0047590   -0.0014852    0.0005477
c     1.1905946    0.4617938   -0.5838185  0.00   -0.0016023   -0.0061907   -0.0020510
c    -0.1468007    0.7124380   -0.7536478  0.00   -0.0042894   -0.0126185    0.0010191
o    -0.3833400    4.2449052    0.0178320  0.00   -0.0011850    0.0002929   -0.0006981
h     0.2879914    4.9442573    0.3146713  0.00    0.0001817   -0.0010220    0.0000927
h    -0.8436219   -0.0690600   -1.0364845  0.00   -0.0095312   -0.0291645    0.0232904
h     3.0664579    1.3241599   -0.0416520  0.00    0.0009843   -0.0003678    0.0000175
h     2.1582622    3.5459607    0.3079964  0.00    0.0006329    0.0007599    0.0002862
h    -1.7024886    2.1636596   -0.6844490  0.00   -0.0009058    0.0001436   -0.0001099
c     1.8307420   -0.9195733   -0.7451808  0.00   -0.0040884   -0.0014359    0.0019816
c     0.9914850   -2.0379374   -1.4081931  0.00    0.0103033    0.0039126    0.0053948
h     2.1626761   -1.2671112    0.2645881  0.00    0.0023668   -0.0018070    0.0050259
h     2.7525982   -0.7939758   -1.3637411  0.00    0.0045175    0.0013749   -0.0029264
c    -0.0917067   -2.5856162   -0.4783059  0.00   -0.0101311    0.0117589   -0.0038898
o    -0.5030103   -3.9206397   -0.5797446  0.00   -0.0004532   -0.0249291    0.0025401
o    -0.6994138   -1.7505601    0.4485463  0.00    0.0111527    0.0187597   -0.0044774
h    -1.6586624   -1.6170560    0.1508126  0.00    0.0066727    0.0249041   -0.0235833
n     0.4594316   -1.5613852   -2.7102901  0.00    0.0041187    0.0181221    0.0041981
h     1.6712493   -2.9077342   -1.5776853  0.00    0.0009208   -0.0006080    0.0000304
h     1.0408008   -1.9753826   -3.4928787  0.00    0.0097074   -0.0100617   -0.0137638
h    -0.5260641   -1.9254846   -2.8600579  0.00   -0.0207114   -0.0052602    0.0020907
    24
 Energy =       0.0816925170
c     1.5652144    2.7211313   -0.0017822  0.00    0.0020715    0.0054618    0.0023157
c     0.2476091    2.9948212   -0.2002985  0.00    0.0000539    0.0047049    0.0017808
c    -0.5924030    2.0017167   -0.5720690  0.00   -0.0054146    0.0028550    0.0001063
c     2.0349585    1.4561415   -0.1786723  0.00    0.0045789   -0.0015960    0.0004757
c     1.1965748    0.4452100   -0.5606639  0.00   -0.0012529   -0.0051403   -0.0020110
c    -0.1304178    0.7342814   -0.7501666  0.00   -0.0038697   -0.0107906    0.0006709
o    -0.2696728    4.2832081   -0.0300287  0.00   -0.0019332    0.0011946   -0.0005569
h     0.4196831    4.9673904    0.2619851  0.00    0.0004019   -0.0003923    0.0002209
h    -0.8469121   -0.0289528   -1.0332412  0.00   -0.0084222   -0.0248066    0.0195500
h     3.0913044    1.2574772   -0.0056057  0.00    0.0014415   -0.0004965    0.0000964
h     2.2462525    3.5110177    0.3007043  0.00    0.0007583    0.0008782    0.0003365
h    -1.6429186    2.2321589   -0.7205540  0.00   -0.0013485    0.0003268   -0.0001547
c     1.7926448   -0.9598972   -0.6910705  0.00   -0.0034572   -0.0013936    0.0013716
c     0.9403716   -2.0471982   -1.3906016  0.00    0.0092052    0.0033388    0.0054224
h     2.0690394   -1.3171243    0.3323466  0.00    0.0024627   -0.0022560    0.0054559
h     2.7441895   -0.8700495   -1.2709221  0.00    0.0052336    0.0014837   -0.0031893
c    -0.1909134   -2.5720070   -0.5039023  0.00   -0.0075657    0.0122391   -0.0023427
o    -0.6617635   -3.8818121   -0.6599765  0.00   -0.0023881   -0.0242797    0.0022682
o    -0.7989157   -1.7359128    0.4214275  0.00    0.0100941    0.0149293   -0.0030802
h    -1.7682208   -1.6327526    0.1446252  0.00    0.0045943    0.0213305   -0.0205746
n     0.4650711   -1.5423766   -2.7040779  0.00    0.0039259    0.0171146    0.0030946
h     1.5980210   -2.9365536   -1.5469599  0.00    0.0012140   -0.0009696    0.0003826
h     1.0830968   -1.9310971   -3.4697399  0.00    0.0086490   -0.0087288   -0.0128946
h    -0.5082478   -1.9111461   -2.9061936  0.00   -0.0190329   -0.0050071    0.0012556
    24
 Energy =       0.0791590603
c     1.6456806    2.6882865    0.0197940  0.00    0.0028148    0.0051525    0.0023125
c     0.3432346    3.0107387   -0.2104638  0.00   -0.0002865    0.0042875    0.0015151
c    -0.5246989    2.0484110   -0.5996740  0.00   -0.0059379    0.0028818   -0.0000845
c     2.0720750    1.4053866   -0.1416358  0.00    0.0051957   -0.0017305    0.0005869
c     1.2047007    0.4252370   -0.5403826  0.00   -0.0005275   -0.0047940   -0.0020051
c    -0.1056683    0.7641344   -0.7635906  0.00   -0.0044033   -0.0095835    0.0002145
o    -0.1297601    4.3188117   -0.0553096  0.00   -0.0032289    0.0019281   -0.0006609
h     0.5784362    4.9784335    0.2497412  0.00    0.0009814    0.0003448    0.0004831
h    -0.8423996    0.0275158   -1.0645159  0.00   -0.0081400   -0.0219912    0.0168660
h     3.1165598    1.1674990    0.0575657  0.00    0.0024605   -0.0007106    0.0003023
h     2.3489544    3.4534898    0.3361589  0.00    0.0012272    0.0011476    0.0004981
h    -1.5629182    2.3172718   -0.7743054  0.00   -0.0023402    0.0005863   -0.0003224
c     1.7471956   -1.0039309   -0.6509615  0.00   -0.0026857   -0.0015527    0.0009715
c     0.8735965   -2.0564610   -1.3792712  0.00    0.0088511    0.0026978    0.0055556
h     1.9763911   -1.3718511    0.3804785  0.00    0.0024936   -0.0026458    0.0056969
h     2.7199705   -0.9524980   -1.2003680  0.00    0.0058196    0.0015744   -0.0033087
c    -0.3050259   -2.5444949   -0.5311978  0.00   -0.0066219    0.0109235   -0.0016719
o    -0.8167485   -3.8347147   -0.7130755  0.00   -0.0031903   -0.0224953    0.0022713
o    -0.9226062   -1.6914943    0.3727495  0.00    0.0085317    0.0124492   -0.0015648
h    -1.8952961   -1.6117057    0.1007226  0.00    0.0036780    0.0189820   -0.0185874
n     0.4559469   -1.5295296   -2.7039257  0.00    0.0037854    0.0170746    0.0023546
h     1.5019984   -2.9698130   -1.5208616  0.00    0.0016258   -0.0015753    0.0007043
h     1.1087783   -1.9004233   -3.4485008  0.00    0.0082916   -0.0079727   -0.0126279
h    -0.5047513   -1.9006249   -2.9546086  0.00   -0.0183942   -0.0049787    0.0005008
    24
 Energy =       0.0790015485
c     1.7256448    2.6489420    0.0505268  0.00    0.0043249    0.0052353    0.0027029
c     0.4436985    3.0221848   -0.2245633  0.00   -0.0006545    0.0045981    0.0014407
c    -0.4465674    2.0950781   -0.6503127  0.00   -0.0073824    0.0029756   -0.0004909
c     2.1084619    1.3500996   -0.1002376  0.00    0.0065999   -0.0018886    0.0009475
c     1.2170990    0.4050090   -0.5327234  0.00    0.0006965   -0.0051680   -0.0019214
c    -0.0700237    0.7963571   -0.8059617  0.00   -0.0061066   -0.0089402   -0.0003915
o     0.0148438    4.3473261   -0.0795091  0.00   -0.0051189    0.0023611   -0.0010996
h     0.7371893    4.9786794    0.2537334  0.00    0.0020365    0.0012701    0.0009636
h    -0.8209984    0.0890205   -1.1406070  0.00   -0.0087345   -0.0207805    0.0152538
h     3.1365499    1.0709538    0.1351109  0.00    0.0040202   -0.0010473    0.0006783
h     2.4468285    3.3860042    0.3949332  0.00    0.0020717    0.0015712    0.0008140
h    -1.4681326    2.4038807   -0.8618317  0.00   -0.0038836    0.0009320   -0.0006661
c     1.7054459   -1.0452155   -0.6299795  0.00   -0.0020436   -0.0019685    0.0009234
c     0.7975103   -2.0716127   -1.3559399  0.00    0.0092283    0.0022118    0.0053613
h     1.9136121   -1.4147927    0.4051907  0.00    0.0024490   -0.0027813    0.0056479
h     2.6835987   -1.0322502   -1.1727666  0.00    0.0062988    0.0015819   -0.0034851
c    -0.4174546   -2.5003446   -0.5226499  0.00   -0.0056055    0.0087330   -0.0021877
o    -0.9504330   -3.7860189   -0.6737109  0.00   -0.0033711   -0.0224778    0.0020444
o    -1.0505024   -1.5987111    0.3257775  0.00    0.0076243    0.0126677    0.0015599
h    -2.0106961   -1.4994519    0.0128063  0.00    0.0015858    0.0186415   -0.0181119
n     0.4235578   -1.5491807   -2.6955616  0.00    0.0035739    0.0177382    0.0020514
h     1.3905050   -3.0128335   -1.4745586  0.00    0.0022309   -0.0026010    0.0007794
h     1.1011784   -1.9202447   -3.4177004  0.00    0.0085298   -0.0078817   -0.0128555
h    -0.5272701   -1.9252043   -2.9749032  0.00   -0.0183697   -0.0049823    0.0000411
    24
 Energy =       0.0767064300
c     1.6998324    2.6569854    0.0729834  0.00    0.0042530    0.0048823    0.0025789
c     0.4099467    3.0180174   -0.1793865  0.00   -0.0006897    0.0043426    0.0013308