    13
 Energy =       0.2410082376
c    -3.7133889    1.6950595    0.3173519  0.00    0.0163540   -0.0347272   -0.0214990
c    -2.4962693    2.6345192    0.2419999  0.00    0.0527980    0.3566759    0.1008122
c    -4.9565486    2.3924193   -0.2155699  0.00    0.0136624    0.0109336    0.0135255
h    -5.3251685    1.8809395   -1.1121297  0.00    0.0176967   -0.0150617    0.0168869
h    -4.7411586    3.4296290   -0.4944269  0.00    0.0071861   -0.0213198    0.0069247
h    -5.7692484    2.3924493    0.5188399  0.00    0.0093763    0.0005969   -0.0144453
n    -3.4097890    0.4519539   -0.4549189  0.00    0.8108273    0.2806351   -0.1091404
h    -3.8575589    1.4177196    1.3669296  0.00    0.0025128   -0.0144085   -0.0299180
h    -3.2072391   -0.2948399    0.2179739  0.00   -0.0091594    0.0396808   -0.0247327
h    -4.2689788    0.1396900   -0.9176007  0.00    0.0179837    0.0414433    0.0222797
o    -2.4571893    3.7760389    0.6681628  0.00   -0.0115519   -0.2743072   -0.1074059
o    -1.4389296    2.0221094   -0.3549299  0.00   -0.0943939   -0.0831370   -0.0031024
h    -1.7862895    1.1491097   -0.6669268  0.00   -0.8332922   -0.2870040    0.1498146
    13
 Energy =       0.1239656734
c    -3.7159642    1.6688634    0.3104578  0.00    0.0212338   -0.0075548   -0.0119844
c    -2.5099672    2.5653133    0.2901231  0.00    0.0088990   -0.0072808    0.0009416
c    -4.9953662    2.3698147   -0.2167258  0.00    0.0020768   -0.0001132   -0.0002003
h    -5.4345766    1.8776903   -1.1102724  0.00   -0.0001331   -0.0034549    0.0001228
h    -4.8011511    3.4297835   -0.4981622  0.00    0.0011114   -0.0005391    0.0003947
h    -5.7729762    2.3805222    0.5789081  0.00   -0.0003506    0.0001656    0.0019751
n    -3.3964245    0.4828341   -0.4862326  0.00    0.3200883    0.1627946   -0.0246256
h    -3.8618146    1.3951615    1.3836386  0.00    0.0003596   -0.0011385   -0.0011813
h    -3.1552135   -0.3161554    0.1542855  0.00    0.0012416   -0.0015247   -0.0006340
h    -4.2096159    0.1282616   -1.0550891  0.00   -0.0059946   -0.0007685   -0.0079707
o    -2.6105555    3.8652584    0.7833629  0.00   -0.0253001    0.0054577   -0.0002146
o    -1.3365948    2.0647593   -0.2708840  0.00    0.0146464    0.0174027    0.0197129
h    -1.6275364    1.1746905   -0.7486547  0.00   -0.3378785   -0.1634461    0.0236637
    13
 Energy =       0.1176130901
c    -3.7057937    1.6441955    0.3036269  0.00    0.0194432   -0.0034260   -0.0078134
c    -2.4927475    2.5358011    0.2952239  0.00    0.0063228   -0.0079281    0.0011024
c    -4.9977823    2.3909964   -0.1320677  0.00    0.0006909    0.0020921   -0.0002662
h    -5.4792615    1.9518254   -1.0338076  0.00   -0.0011757   -0.0034910   -0.0018639
h    -4.8013686    3.4630511   -0.3666930  0.00    0.0004968    0.0007252    0.0000145
h    -5.7425712    2.3706967    0.6958362  0.00   -0.0012444    0.0004272    0.0029672
n    -3.4292595    0.5059074   -0.5846846  0.00    0.2891464    0.1445294   -0.0288651
h    -3.8151072    1.3014493    1.3642926  0.00    0.0003947   -0.0017189    0.0020595
h    -3.1272474   -0.3232582   -0.0044676  0.00    0.0035995   -0.0062264    0.0034454
h    -4.2857101    0.1674111   -1.1005737  0.00   -0.0087665   -0.0013981   -0.0091467
o    -2.5638795    3.8059901    0.8704331  0.00   -0.0234607    0.0094790    0.0020729
o    -1.3418411    2.0675178   -0.3394092  0.00    0.0157175    0.0142717    0.0161855
h    -1.6451868    1.2052135   -0.8529541  0.00   -0.3011642   -0.1473359    0.0201080
    13
 Energy =       0.1160814260
c    -3.7342231    1.6539647    0.3094680  0.00    0.0212363   -0.0039087   -0.0068939
c    -2.4993854    2.5160816    0.3472585  0.00    0.0080255   -0.0084257    0.0005491
c    -4.9737860    2.4219108   -0.2420918  0.00   -0.0010020    0.0037412   -0.0027355
h    -5.4154113    1.9474767   -1.1484246  0.00   -0.0019816   -0.0028414   -0.0034045
h    -4.7257059    3.4739920   -0.5254461  0.00   -0.0000507    0.0033640   -0.0013516
h    -5.7671418    2.4731753    0.5438304  0.00   -0.0043589    0.0008290    0.0061115
n    -3.4344308    0.4782627   -0.5223115  0.00    0.2896661    0.1452471   -0.0307514
h    -3.9246108    1.3496699    1.3741028  0.00   -0.0003124   -0.0026731    0.0058512
h    -3.1018592   -0.3116569    0.0985909  0.00    0.0047540   -0.0087563    0.0051975
h    -4.2968342    0.0879952   -0.9945611  0.00   -0.0108091   -0.0046366   -0.0107290
o    -2.5595061    3.7782869    0.9405102  0.00   -0.0229711    0.0097556    0.0022692
o    -1.3443702    2.0363761   -0.2714064  0.00    0.0159622    0.0143262    0.0160447
h    -1.6504916    1.1812625   -0.7947641  0.00   -0.2981583   -0.1460214    0.0198429
    13
 Energy =       0.1006414939
c    -3.7659864    1.6561721    0.3062214  0.00    0.0157860   -0.0053687   -0.0053602
c    -2.4969561    2.4756046    0.4030028  0.00    0.0076031   -0.0095317   -0.0021482
c    -4.9353858    2.4671309   -0.3316351  0.00   -0.0017992    0.0010847   -0.0044392
h    -5.3829622    1.9547707   -1.2138909  0.00   -0.0013458   -0.0022676   -0.0033522
h    -4.6070178    3.4805303   -0.6841992  0.00    0.0007975    0.0080844   -0.0031686
h    -5.7453718    2.6266850    0.4273493  0.00   -0.0073615    0.0014754    0.0082194
n    -3.4796438    0.4495693   -0.4890916  0.00    0.2139187    0.1069405   -0.0229948
h    -4.0331505    1.3773901    1.3623891  0.00   -0.0009140   -0.0031623    0.0068455
h    -3.1046594   -0.3038725    0.1515619  0.00    0.0041237   -0.0078223    0.0053581
h    -4.3644583    0.0251457   -0.8855878  0.00   -0.0115424   -0.0066676   -0.0094964
o    -2.5109587    3.6986049    1.0771570  0.00   -0.0150808    0.0120454    0.0042601
o    -1.3497880    2.0059573   -0.2333255  0.00    0.0107996    0.0095794    0.0109374
h    -1.6514177    1.1731091   -0.7751962  0.00   -0.2149851   -0.1043896    0.0153393
    13
 Energy =       0.0825677669
c    -3.7969773    1.6573357    0.2979401  0.00    0.0074818   -0.0047909   -0.0029638
c    -2.4914033    2.4258705    0.4537815  0.00    0.0046721   -0.0093230   -0.0048886
c    -4.8889722    2.5142496   -0.4040748  0.00   -0.0014317   -0.0015664   -0.0036467
h    -5.3664719    1.9759528   -1.2535511  0.00   -0.0005682   -0.0018541   -0.0023330
h    -4.4759980    3.4726275   -0.8193459  0.00    0.0018486    0.0093215   -0.0035163
h    -5.6920910    2.7854381    0.3294500  0.00   -0.0075376    0.0017511    0.0071566
n    -3.5529136    0.4220666   -0.4709183  0.00    0.1211019    0.0585946   -0.0139743
h    -4.1310364    1.4049622    1.3396912  0.00   -0.0009765   -0.0028160    0.0048384
h    -3.1250306   -0.2974086    0.1715375  0.00    0.0027361   -0.0046910    0.0044518
h    -4.4662048   -0.0197517   -0.7697482  0.00   -0.0111149   -0.0067886   -0.0065701
o    -2.4520361    3.5878193    1.2284997  0.00   -0.0052706    0.0132809    0.0064996
o    -1.3523031    1.9812391   -0.2106386  0.00    0.0044217    0.0030793    0.0041467
h    -1.6363181    1.1763962   -0.7778677  0.00   -0.1153628   -0.0541975    0.0107995
    13
 Energy =       0.0735413836
c    -3.8224469    1.6638315    0.2903260  0.00    0.0045798   -0.0019887   -0.0007762
c    -2.5029188    2.4042662    0.5009585  0.00    0.0025983   -0.0053955   -0.0033233
c    -4.8514064    2.5296016   -0.4873413  0.00    0.0013470    0.0006201   -0.0001286
h    -5.2308991    2.0166158   -1.4070326  0.00   -0.0035828   -0.0027485   -0.0074010
h    -4.4108818    3.5039205   -0.8239921  0.00    0.0029945    0.0064758   -0.0030021
h    -5.7285180    2.7624323    0.1706969  0.00   -0.0076256    0.0015477    0.0072593
n    -3.5962270    0.3976836   -0.4342255  0.00    0.0695751    0.0317146   -0.0095756
h    -4.2157155    1.4525093    1.3200257  0.00   -0.0011919   -0.0021449    0.0043784
h    -3.1413598   -0.2908661    0.2200298  0.00    0.0017430   -0.0028700    0.0028583
h    -4.5197326   -0.0515488   -0.6747456  0.00   -0.0069465   -0.0050930   -0.0035290
o    -2.4625808    3.5278070    1.3243253  0.00   -0.0017199    0.0078545    0.0038748
o    -1.3476659    1.9815322   -0.1483015  0.00    0.0026817    0.0018701    0.0022638
h    -1.5974040    1.1890123   -0.7359682  0.00   -0.0644526   -0.0298422    0.0071013
    13
 Energy =       0.0674958555
c    -3.8539215    1.6637070    0.2772463  0.00    0.0016665   -0.0033769   -0.0008429
c    -2.5135076    2.3476810    0.5774789  0.00    0.0027375   -0.0041218   -0.0033484
c    -4.7891323    2.5708722   -0.5654239  0.00   -0.0009334    0.0015682   -0.0020339
h    -5.1114168    2.0781679   -1.5130229  0.00   -0.0023768   -0.0005907   -0.0036968
h    -4.2957726    3.5309586   -0.8547575  0.00    0.0015846    0.0035025   -0.0021261
h    -5.7052761    2.8223832    0.0206709  0.00   -0.0042523    0.0005826    0.0038105
n    -3.6679575    0.3804124   -0.4265265  0.00    0.0299272    0.0120844   -0.0046570
h    -4.3217267    1.4809565    1.2807093  0.00   -0.0015607   -0.0021450    0.0038095
h    -3.1976051   -0.2984680    0.2228606  0.00    0.0006061   -0.0005367    0.0008065
h    -4.6065658   -0.0521810   -0.6222372  0.00   -0.0032001   -0.0024556   -0.0011835
o    -2.4714566    3.4059249    1.4830785  0.00    0.0010235    0.0073853    0.0047287
o    -1.3408736    1.9568279   -0.0624407  0.00    0.0021124    0.0030218    0.0025333
h    -1.5525442    1.1995548   -0.7028807  0.00   -0.0273346   -0.0149180    0.0022001
    13
 Energy =       0.0660404052
c    -3.8784433    1.6747718    0.2689409  0.00    0.0000792   -0.0034169   -0.0004507
c    -2.5099355    2.2774161    0.6274187  0.00    0.0036080   -0.0025369   -0.0020341
c    -4.7157125    2.6316239   -0.6225219  0.00   -0.0018529    0.0001207   -0.0037775
h    -5.0552220    2.1343935   -1.5598182  0.00   -0.0013199   -0.0004888   -0.0021064
h    -4.1370194    3.5401515   -0.9295324  0.00    0.0027165    0.0061040   -0.0028301
h    -5.6238047    2.9771423   -0.0691115  0.00   -0.0062846    0.0017683    0.0039359
n    -3.7523543    0.3721407   -0.4131733  0.00    0.0189983    0.0061420   -0.0031508
h    -4.4029142    1.5337938    1.2514395  0.00   -0.0022431   -0.0024555    0.0040407
h    -3.3164226   -0.3194171    0.2470386  0.00    0.0007279   -0.0013377    0.0009303
h    -4.7110459   -0.0152262   -0.6060440  0.00   -0.0034115   -0.0023902   -0.0008020
o    -2.4444781    3.3042115    1.5648999  0.00    0.0014467    0.0051892    0.0032700
o    -1.3345421    1.8543851    0.0104631  0.00    0.0030041    0.0026545    0.0019231
h    -1.5458620    1.1214107   -0.6552440  0.00   -0.0154686   -0.0093529    0.0010516
    13
 Energy =       0.0659069907
c    -3.8939185    1.6788558    0.2540939  0.00   -0.0007612   -0.0033589   -0.0000599
c    -2.5240754    2.2418317    0.6738213  0.00    0.0017284   -0.0011277   -0.0004579
c    -4.6721997    2.6667684   -0.6565965  0.00   -0.0021956    0.0002953   -0.0033980
h    -4.9816007    2.1920573   -1.6162791  0.00   -0.0015470   -0.0004295   -0.0025956
h    -4.0625266    3.5673821   -0.9235387  0.00    0.0028444    0.0058687   -0.0027670
h    -5.5952862    3.0218596   -0.1366622  0.00   -0.0056714    0.0014569    0.0034956
n    -3.7820026    0.3799504   -0.4372070  0.00    0.0155635    0.0062497   -0.0034114
h    -4.4580761    1.5430901    1.2151542  0.00   -0.0022574   -0.0024093    0.0040764
h    -3.3882663   -0.3305274    0.2306023  0.00    0.0012047   -0.0023130    0.0019021
h    -4.7449736    0.0221352   -0.6655299  0.00   -0.0043145   -0.0025885   -0.0009795
o    -2.4750670    3.2687299    1.6113524  0.00    0.0012311    0.0042978    0.0027222
o    -1.3287344    1.7824266    0.1193608  0.00    0.0061027    0.0017243    0.0007781
h    -1.5210295    1.0522379   -0.5538163  0.00   -0.0119276   -0.0076660    0.0006948
    13
 Energy =       0.0664641165
c    -3.9065788    1.6851270    0.2325042  0.00   -0.0022034   -0.0030090    0.0008369
c    -2.5364554    2.2028081    0.7151452  0.00   -0.0036141    0.0017107    0.0022926
c    -4.6287593    2.7150037   -0.6802025  0.00   -0.0029261    0.0005479   -0.0032604
h    -4.9095613    2.2746233   -1.6659117  0.00   -0.0020058   -0.0005603   -0.0036971
h    -3.9909194    3.6108446   -0.8971794  0.00    0.0035887    0.0067997   -0.0030565
h    -5.5645837    3.0738069   -0.1862577  0.00   -0.0057743    0.0013410    0.0034990
n    -3.8108585    0.3984317   -0.4846155  0.00    0.0147138    0.0081965   -0.0049929
h    -4.5060940    1.5441904    1.1717164  0.00   -0.0025052   -0.0027365    0.0045784
h    -3.4755755   -0.3420728    0.1854379  0.00    0.0021487   -0.0046833    0.0041549
h    -4.7763834    0.0803140   -0.7636040  0.00   -0.0071065   -0.0036465   -0.0018367
o    -2.5023736    3.2604228    1.6197021  0.00    0.0000635    0.0051399    0.0034297
o    -1.3231553    1.6656498    0.2630834  0.00    0.0149961   -0.0016080   -0.0019930
h    -1.4964583    0.9176479   -0.3950631  0.00   -0.0093755   -0.0074919    0.0000451
    13
 Energy =       0.0653165175
c    -3.9110745    1.6830792    0.2519885  0.00   -0.0018532   -0.0012197    0.0016912
c    -2.5452403    2.2190240    0.7176722  0.00   -0.0091853    0.0025388    0.0042187
c    -4.6270736    2.6756192   -0.7025891  0.00   -0.0021799    0.0004123   -0.0018124
h    -4.9342199    2.1865804   -1.6579988  0.00   -0.0018091   -0.0012256   -0.0044496
h    -3.9760287    3.5455310   -0.9775911  0.00    0.0035772    0.0067895   -0.0028182
h    -5.5458642    3.0796906   -0.2128400  0.00   -0.0050868    0.0012860    0.0034113
n    -3.8093608    0.3698012   -0.4150099  0.00    0.0104151    0.0064872   -0.0056529
h    -4.5145030    1.5769673    1.1925159  0.00   -0.0019928   -0.0020578    0.0040373
h    -3.4309435   -0.3352888    0.2711803  0.00    0.0026498   -0.0052486    0.0050221
h    -4.7756558    0.0216015   -0.6523961  0.00   -0.0071557   -0.0037482   -0.0020050
o    -2.5145403    3.2155079    1.6921515  0.00   -0.0019599    0.0076557    0.0061403
o    -1.3333873    1.7727708    0.1614881  0.00    0.0198723   -0.0031089   -0.0037988
h    -1.5098647    1.0759132   -0.5538163  0.00   -0.0052915   -0.0085608   -0.0039841
    13
 Energy =       0.0640005869
c    -3.9238055    1.6927858    0.2701733  0.00    0.0018504    0.0022983    0.0024522
c    -2.5633626    2.2291610    0.7332124  0.00   -0.0067832    0.0001267    0.0022350
c    -4.5840633    2.6281842   -0.7743096  0.00    0.0000790    0.0019036   -0.0019376
h    -4.8817634    2.0744143   -1.6954177  0.00   -0.0005878   -0.0010126   -0.0033862
h    -3.9031252    3.4522807   -1.0979801  0.00    0.0012113    0.0036745   -0.0016920
h    -5.4989346    3.0979903   -0.3422699  0.00   -0.0036104    0.0017443    0.0025279
n    -3.8323072    0.3321688   -0.3000712  0.00    0.0025275   -0.0021674   -0.0049873
h    -4.5566773    1.6690657    1.1970956  0.00   -0.0019097   -0.0004553    0.0042088
h    -3.4367693   -0.3209344    0.4243485  0.00    0.0018508   -0.0033996    0.0032051
h    -4.7994528   -0.0293748   -0.4966319  0.00   -0.0024567   -0.0020683   -0.0008832
o    -2.5236483    3.1492919    1.7786505  0.00   -0.0022526    0.0062865    0.0055394
o    -1.3695895    1.8770978    0.0896682  0.00    0.0107094   -0.0025887   -0.0030272
h    -1.5542573    1.2346663   -0.6717126  0.00   -0.0006281   -0.0043423   -0.0042546
    13
 Energy =       0.0634142249
c    -3.9351151    1.7091537    0.2827610  0.00    0.0016130    0.0015145    0.0002085
c    -2.5690758    2.2270783    0.7434872  0.00   -0.0008700   -0.0032932   -0.0033586
c    -4.5319636    2.5859159   -0.8412429  0.00    0.0023248    0.0020488   -0.0004923
h    -4.7581104    1.9898984   -1.7546191  0.00   -0.0008322   -0.0001029   -0.0016888
h    -3.8394903    3.3991697   -1.1490466  0.00   -0.0004381   -0.0018885    0.0007210
h    -5.4802529    3.0590736   -0.5010230  0.00   -0.0017478    0.0011249    0.0003634
n    -3.8719727    0.3150549   -0.1936065  0.00    0.0001929   -0.0023795   -0.0007096
h    -4.5936207    1.7687329    1.1869434  0.00   -0.0009535   -0.0001310    0.0013144
h    -3.4858312   -0.2950528    0.5682694  0.00   -0.0000119   -0.0003222   -0.0001357
h    -4.8462867   -0.0358360   -0.3601949  0.00    0.0005987   -0.0000386    0.0003881
o    -2.4962725    3.0430934    1.8694571  0.00   -0.0007261    0.0044421    0.0053770
o    -1.4065558    1.9651830    0.0203159  0.00    0.0005905   -0.0019438   -0.0031010
h    -1.6132087    1.3553325   -0.7567458  0.00    0.0002597    0.0009693    0.0011135
    13
 Energy =       0.0633886693
c    -3.9368672    1.7134280    0.2825435  0.00   -0.0000345    0.0001154    0.0002088
c    -2.5740679    2.2404401    0.7436210  0.00    0.0000382   -0.0000801    0.0000876
c    -4.5293314    2.5703145   -0.8576824  0.00   -0.0000805   -0.0000939    0.0004512
h    -4.7790757    1.9520670   -1.7488468  0.00   -0.0000720   -0.0004390   -0.0005847
h    -3.8251764    3.3629784   -1.1997669  0.00    0.0004826    0.0005864   -0.0003780
h    -5.4621769    3.0704920   -0.5182107  0.00   -0.0003754    0.0001571    0.0002626
n    -3.8679387    0.3135276   -0.1716307  0.00   -0.0000343   -0.0001448   -0.0003378
h    -4.6002675    1.7851782    1.1805806  0.00   -0.0000300    0.0000165    0.0001051
h    -3.4874644   -0.2835492    0.6035199  0.00    0.0001165   -0.0001791    0.0002143
h    -4.8404448   -0.0417700   -0.3419574  0.00   -0.0000384    0.0000029   -0.0000194
o    -2.5039219    3.0466311    1.8719617  0.00   -0.0000053    0.0000737    0.0000142
o    -1.4099787    1.9873762    0.0220987  0.00    0.0000584    0.0000507    0.0000329
h    -1.6110451    1.3696836   -0.7514753  0.00   -0.0000253   -0.0000658   -0.0000569
    13
 Energy =       0.0633876289
c    -3.9368221    1.7133081    0.2827091  0.00   -0.0000004    0.0000004    0.0000003
c    -2.5739076    2.2402159    0.7434117  0.00   -0.0000038   -0.0000048   -0.0000047
c    -4.5292264    2.5696777   -0.8576315  0.00    0.0000002    0.0000001   -0.0000000
h    -4.7789513    1.9517758   -1.7481876  0.00   -0.0000000    0.0000001   -0.0000000
h    -3.8255059    3.3618609   -1.1991478  0.00    0.0000001   -0.0000001   -0.0000001
h    -5.4618049    3.0699105   -0.5189471  0.00   -0.0000001   -0.0000000    0.0000002
n    -3.8680658    0.3134249   -0.1708701  0.00    0.0000007    0.0000003   -0.0000004
h    -4.6001938    1.7854414    1.1806287  0.00   -0.0000001   -0.0000001    0.0000001
h    -3.4870654   -0.2831945    0.6041381  0.00    0.0000000   -0.0000002    0.0000003
h    -4.8406103   -0.0421071   -0.3403635  0.00   -0.0000005   -0.0000002   -0.0000001
o    -2.5027320    3.0426079    1.8743650  0.00   -0.0000021    0.0000079    0.0000113
o    -1.4106535    1.9900772    0.0195812  0.00    0.0000057   -0.0000016   -0.0000046
h    -1.6122175    1.3737988   -0.7549309  0.00    0.0000003   -0.0000017   -0.0000022
    13
 Energy =       0.0633876288
c    -3.9368232    1.7133084    0.2827092  0.00    0.0000000    0.0000000   -0.0000000
c    -2.5739081    2.2402134    0.7434138  0.00   -0.0000000   -0.0000000   -0.0000000
c    -4.5292227    2.5696751   -0.8576361  0.00    0.0000000    0.0000000    0.0000000
h    -4.7789512    1.9517695   -1.7481886  0.00   -0.0000000    0.0000000   -0.0000000
h    -3.8254979    3.3618527   -1.1991565  0.00    0.0000000    0.0000000    0.0000000
h    -5.4617982    3.0699153   -0.5189551  0.00   -0.0000000    0.0000000    0.0000000
n    -3.8680695    0.3134235   -0.1708650  0.00    0.0000000    0.0000000   -0.0000000
h    -4.6001971    1.7854467    1.1806267  0.00   -0.0000000   -0.0000000    0.0000000
h    -3.4870648   -0.2831930    0.6041430  0.00    0.0000000   -0.0000000   -0.0000000
h    -4.8406147   -0.0421086   -0.3403519  0.00   -0.0000000   -0.0000000   -0.0000000
o    -2.5027246    3.0425779    1.8743763  0.00   -0.0000000    0.0000000    0.0000000
o    -1.4106594    1.9900920    0.0195786  0.00    0.0000000   -0.0000000   -0.0000000
h    -1.6122252    1.3738243   -0.7549393  0.00   -0.0000000   -0.0000000   -0.0000000
