    24
 Energy =       0.2043900818
c     1.6703672    2.6182922    0.2614132  0.00    0.0470614    0.0713229    0.0240193
c     0.3248649    2.9356558    0.1418766  0.00   -0.0066976    0.1047857    0.0297122
c    -0.5827484    1.9945952   -0.3219261  0.00   -0.0886999    0.0431648    0.0033286
c     2.1038063    1.3347474   -0.0833024  0.00    0.0667108   -0.0108478    0.0079414
c     1.2047783    0.3610782   -0.5608861  0.00    0.0118246   -0.1010001   -0.0390720
c    -0.1441045    0.7159142   -0.6796715  0.00   -0.0276267   -0.0728099   -0.0866263
o    -0.1504797    4.1703171    0.4675790  0.00   -0.0526085   -0.0241826   -0.0610070
h    -0.5871159    4.5498648   -0.3125495  0.00    0.0450394   -0.0385850    0.0484205
h    -0.8895274    0.0262790   -1.0546636  0.00    0.0194662    0.0003634   -0.0551814
h     3.1621727    1.0964802    0.0165124  0.00    0.0029540   -0.0000628   -0.0005110
h     2.3926004    3.3457758    0.6178375  0.00    0.0099383   -0.0070561   -0.0016325
h    -1.6336796    2.2563998   -0.4108671  0.00   -0.0020934    0.0005432    0.0000319
c     1.7669373   -1.0073413   -0.8964724  0.00   -0.0328513    0.0201792   -0.0073969
c     0.8861134   -2.0194266   -1.6556448  0.00    0.0493046   -0.0510408    0.0821183
h     2.1212937   -1.4658931    0.0371405  0.00   -0.0006728    0.0105060   -0.0105584
h     2.6645729   -0.8285312   -1.5058794  0.00   -0.0115215    0.0012302    0.0089844
c     0.2877588   -1.3395944   -2.9073099  0.00   -0.0942702    0.3352886   -0.0964084
o    -0.0664180   -0.1744118   -2.9918994  0.00    0.0637482   -0.2492649    0.1402275
o     0.1608327   -2.2305444   -3.9280651  0.00    0.2441063   -0.2348114    0.2073896
h     0.6173059   -1.8088839   -4.6997648  0.00    0.0063555   -0.0157467    0.0434521
n     1.5974427   -3.2508470   -2.1301054  0.00   -0.0138372   -0.0373570   -0.1190586
h     0.0358579   -2.3311629   -1.0380560  0.00    0.0137916   -0.0000605   -0.0118855
h     1.3459883   -3.4027164   -3.1136797  0.00   -0.2100934    0.2542330   -0.1088751
h     2.6013787   -3.0583561   -2.1544800  0.00   -0.0393285    0.0012087    0.0025874
    24
 Energy =       0.1898636833
c     1.6653223    2.6197287    0.2546323  0.00    0.0423205    0.0639474    0.0216843
c     0.3242538    2.9359467    0.1209114  0.00   -0.0044556    0.0900680    0.0265251
c    -0.5826284    1.9792443   -0.3031906  0.00   -0.0800788    0.0375345    0.0027317
c     2.1001626    1.3340268   -0.0661926  0.00    0.0603281   -0.0101086    0.0071013
c     1.2048253    0.3563213   -0.5298053  0.00    0.0105821   -0.0912200   -0.0353533
c    -0.1434258    0.6988134   -0.6354894  0.00   -0.0251009   -0.0661176   -0.0784864
o    -0.1389698    4.2040570    0.3512265  0.00   -0.0470036   -0.0166071   -0.0501029
h    -0.5638156    4.5233150   -0.4713026  0.00    0.0386163   -0.0334767    0.0395965
h    -0.8834426   -0.0025197   -0.9994807  0.00    0.0176929    0.0000116   -0.0499176
h     3.1603506    1.1020460    0.0268374  0.00    0.0027219   -0.0000374   -0.0004396
h     2.3869906    3.3630963    0.5794309  0.00    0.0092661   -0.0057884   -0.0012861
h    -1.6327121    2.2397496   -0.4042183  0.00   -0.0019865    0.0005808    0.0000482
c     1.7695283   -1.0052460   -0.8871317  0.00   -0.0297247    0.0181486   -0.0067343
c     0.8767357   -2.0108330   -1.6439517  0.00    0.0443505   -0.0460801    0.0742041
h     2.1399754   -1.4742457    0.0367433  0.00   -0.0005028    0.0093888   -0.0093696
h     2.6566074   -0.8161970   -1.5115222  0.00   -0.0102582    0.0011179    0.0079544
c     0.2640680   -1.3371576   -2.8909465  0.00   -0.0851545    0.3029444   -0.0873559
o    -0.0888202   -0.1537116   -2.9751151  0.00    0.0576969   -0.2248554    0.1265288
o     0.1342098   -2.2214588   -3.9201269  0.00    0.2162697   -0.2175180    0.1948128
h     0.6818289   -1.8356035   -4.6622259  0.00    0.0109164   -0.0104933    0.0331909
n     1.5907963   -3.2393952   -2.1155584  0.00   -0.0125382   -0.0336452   -0.1075783
h     0.0326996   -2.3245096   -1.0159293  0.00    0.0124099   -0.0000508   -0.0106688
h     1.3373952   -3.3958709   -3.1008763  0.00   -0.1908594    0.2311582   -0.0994252
h     2.5980638   -3.0519057   -2.1395822  0.00   -0.0355080    0.0010984    0.0023397
    24
 Energy =       0.1861292651
c     1.6244217    2.6011719    0.3043958  0.00    0.0402502    0.0612976    0.0207127
c     0.2812631    2.9044382    0.1799795  0.00   -0.0031972    0.0833815    0.0243432
c    -0.6110900    1.9541131   -0.2845165  0.00   -0.0766789    0.0351695    0.0022615
c     2.0744545    1.3318027   -0.0494449  0.00    0.0579278   -0.0099531    0.0067642
c     1.1926366    0.3570998   -0.5385886  0.00    0.0095804   -0.0868228   -0.0337642
c    -0.1578653    0.6870564   -0.6474171  0.00   -0.0240825   -0.0639796   -0.0752829
o    -0.2023345    4.1504942    0.4927813  0.00   -0.0443120   -0.0125544   -0.0431690
h    -0.6143951    4.5336075   -0.3125495  0.00    0.0352215   -0.0307402    0.0347368
h    -0.8886058   -0.0139110   -1.0322129  0.00    0.0167628   -0.0002580   -0.0478121
h     3.1369507    1.1096328    0.0418189  0.00    0.0026765   -0.0000627   -0.0004100
h     2.3336573    3.3412513    0.6638163  0.00    0.0091495   -0.0048943   -0.0009707
h    -1.6641056    2.2055583   -0.3771660  0.00   -0.0019843    0.0006776    0.0000610
c     1.7835104   -0.9809628   -0.9392431  0.00   -0.0292889    0.0166630   -0.0067151
c     0.8953455   -1.9962329   -1.6855622  0.00    0.0419615   -0.0439744    0.0710276
h     2.1996216   -1.4586573   -0.0372017  0.00   -0.0000028    0.0082269   -0.0080301
h     2.6438026   -0.7528729   -1.5914139  0.00   -0.0087067    0.0012731    0.0066549
c     0.2689064   -1.3303565   -2.9294016  0.00   -0.0812858    0.2901533   -0.0836852
o    -0.0838671   -0.1394608   -3.0106306  0.00    0.0555494   -0.2149784    0.1207838
o     0.1516025   -2.2096708   -3.9670025  0.00    0.1918694   -0.2160342    0.2008714
h     0.8327134   -1.8895708   -4.6496141  0.00    0.0254347   -0.0036682    0.0188344
n     1.6276673   -3.2124549   -2.1568358  0.00   -0.0120909   -0.0323901   -0.1028942
h     0.0602476   -2.3211710   -1.0498343  0.00    0.0117680   -0.0001196   -0.0101360
h     1.3724092   -3.3740227   -3.1405495  0.00   -0.1827882    0.2224643   -0.0964029
h     2.6330520   -3.0091912   -2.1864711  0.00   -0.0337334    0.0011231    0.0022209
    24
 Energy =       0.1603273701
c     1.6081776    2.5661047    0.3584241  0.00    0.0328947    0.0507425    0.0168811
c     0.2686639    2.8621342    0.2446115  0.00   -0.0018017    0.0665057    0.0185157
c    -0.6114050    1.9255374   -0.2540542  0.00   -0.0631844    0.0286777    0.0013960
c     2.0677529    1.3177141   -0.0295530  0.00    0.0478623   -0.0085705    0.0055540
c     1.1968398    0.3555813   -0.5418920  0.00    0.0073197   -0.0715805   -0.0276059
c    -0.1512715    0.6751782   -0.6449944  0.00   -0.0197534   -0.0537294   -0.0627075
o    -0.2218005    4.0890271    0.6348403  0.00   -0.0351334   -0.0095215   -0.0290317
h    -0.6065871    4.5497916   -0.1537964  0.00    0.0268556   -0.0227096    0.0240134
h    -0.8741320   -0.0252237   -1.0458426  0.00    0.0140749   -0.0006703   -0.0398499
h     3.1314561    1.1009920    0.0576509  0.00    0.0022445   -0.0000849   -0.0003343
h     2.3056930    3.3008819    0.7508134  0.00    0.0077750   -0.0034585   -0.0005331
h    -1.6662095    2.1717632   -0.3362033  0.00   -0.0016866    0.0007174    0.0000668
c     1.7994782   -0.9627795   -0.9873892  0.00   -0.0243637    0.0129912   -0.0058039
c     0.9029519   -1.9706690   -1.7327318  0.00    0.0343132   -0.0359580    0.0585406
h     2.2398175   -1.4592216   -0.1041204  0.00    0.0002727    0.0063809   -0.0062104
h     2.6427740   -0.7097726   -1.6566915  0.00   -0.0067839    0.0010963    0.0049712
c     0.2798261   -1.3194773   -2.9804474  0.00   -0.0664646    0.2391477   -0.0688639
o    -0.0878418   -0.1050355   -3.0623029  0.00    0.0452660   -0.1763533    0.1007456
o     0.1516840   -2.1998802   -4.0233098  0.00    0.1565914   -0.1832904    0.1713106
h     0.7661677   -1.8421015   -4.7496200  0.00    0.0253602   -0.0019946    0.0122396
n     1.6414669   -3.1878075   -2.1792706  0.00   -0.0099769   -0.0265163   -0.0848263
h     0.0654534   -2.2899643   -1.0931015  0.00    0.0096675   -0.0000531   -0.0083146
h     1.3893580   -3.3650669   -3.1656071  0.00   -0.1535708    0.1872914   -0.0820255
h     2.6516856   -2.9900151   -2.2082763  0.00   -0.0277780    0.0009398    0.0018722
    24
 Energy =       0.1393816189
c     1.6186747    2.5422326    0.3845619  0.00    0.0269582    0.0418176    0.0138275
c     0.2835463    2.8390512    0.2792294  0.00   -0.0015037    0.0545165    0.0149773
c    -0.5944575    1.9112034   -0.2257430  0.00   -0.0519355    0.0236716    0.0010414
c     2.0778856    1.3051731   -0.0208384  0.00    0.0393413   -0.0071216    0.0045997
c     1.2084977    0.3538635   -0.5401735  0.00    0.0059191   -0.0589094   -0.0226280
c    -0.1367019    0.6699873   -0.6293746  0.00   -0.0161120   -0.0444643   -0.0520012
o    -0.2005930    4.0637544    0.6918247  0.00   -0.0283448   -0.0086733   -0.0220220
h    -0.5540100    4.5621477   -0.0954484  0.00    0.0215366   -0.0176194    0.0181128
h    -0.8593696   -0.0296083   -1.0307910  0.00    0.0118860   -0.0007170   -0.0330709
h     3.1419377    1.0885545    0.0588946  0.00    0.0018753   -0.0000935   -0.0002726
h     2.3133471    3.2743150    0.7861748  0.00    0.0063932   -0.0027853   -0.0004134
h    -1.6496047    2.1576171   -0.2993705  0.00   -0.0014145    0.0006362    0.0000546
c     1.8074261   -0.9577664   -1.0115221  0.00   -0.0200040    0.0105286   -0.0048720
c     0.8975097   -1.9567726   -1.7556735  0.00    0.0277671   -0.0294403    0.0481175
h     2.2554276   -1.4675888   -0.1378234  0.00    0.0003030    0.0051402   -0.0050138
h     2.6438987   -0.6989379   -1.6895399  0.00   -0.0055306    0.0008916    0.0039933
c     0.2775342   -1.3169266   -3.0063128  0.00   -0.0538725    0.1968584   -0.0566605
o    -0.1081669   -0.0852053   -3.0885535  0.00    0.0367884   -0.1445348    0.0836049
o     0.1346255   -2.1967990   -4.0523411  0.00    0.1182710   -0.1650191    0.1626601
h     0.6074146   -1.7565874   -4.8515413  0.00    0.0337643    0.0086284   -0.0085545
n     1.6327605   -3.1808300   -2.1811021  0.00   -0.0084371   -0.0216967   -0.0697600
h     0.0570032   -2.2656774   -1.1115183  0.00    0.0078964   -0.0000257   -0.0067701
h     1.3865904   -3.3706717   -3.1714594  0.00   -0.1288975    0.1576675   -0.0704699
h     2.6488230   -2.9968375   -2.2044226  0.00   -0.0226479    0.0007439    0.0015198
    24
 Energy =       0.1222065793
c     1.6344442    2.5171768    0.4123248  0.00    0.0215053    0.0336717    0.0110716
c     0.3027514    2.8148841    0.3224444  0.00   -0.0012596    0.0435129    0.0116923
c    -0.5755928    1.8971767   -0.1879985  0.00   -0.0416457    0.0191476    0.0006966
c     2.0915572    1.2926506   -0.0170122  0.00    0.0315606   -0.0058683    0.0037285
c     1.2212644    0.3534659   -0.5429996  0.00    0.0046668   -0.0472574   -0.0179921
c    -0.1218405    0.6665161   -0.6111820  0.00   -0.0128088   -0.0359197   -0.0421064
o    -0.1741669    4.0353559    0.7626424  0.00   -0.0221012   -0.0080576   -0.0151859
h    -0.4898349    4.5756280   -0.0197348  0.00    0.0165645   -0.0126477    0.0123524
h    -0.8468876   -0.0300621   -1.0123219  0.00    0.0098015   -0.0007054   -0.0267682
h     3.1563861    1.0762384    0.0493471  0.00    0.0015940   -0.0001353   -0.0002194
h     2.3283915    3.2448832    0.8224156  0.00    0.0051128   -0.0021654   -0.0002997
h    -1.6314367    2.1438050   -0.2474785  0.00   -0.0012233    0.0005903    0.0000454
c     1.8154336   -0.9487178   -1.0487535  0.00   -0.0160266    0.0082159   -0.0040167
c     0.8888918   -1.9422122   -1.7838293  0.00    0.0218807   -0.0234802    0.0385094
h     2.2822988   -1.4707821   -0.1901709  0.00    0.0004315    0.0039141   -0.0037817
h     2.6369405   -0.6798215   -1.7435038  0.00   -0.0042322    0.0007188    0.0029304
c     0.2622278   -1.3138526   -3.0338772  0.00   -0.0426469    0.1577371   -0.0453477
o    -0.1376408   -0.0656862   -3.1135541  0.00    0.0290524   -0.1153739    0.0677699
o     0.1036258   -2.1896244   -4.0850862  0.00    0.0912186   -0.1430280    0.1454863
h     0.4486615   -1.6972650   -4.9243280  0.00    0.0330708    0.0145132   -0.0197785
n     1.6191286   -3.1731351   -2.1921908  0.00   -0.0072467   -0.0173215   -0.0559025
h     0.0506036   -2.2410238   -1.1289793  0.00    0.0062540   -0.0000283   -0.0053236
h     1.3833155   -3.3710904   -3.1876511  0.00   -0.1058199    0.1293754   -0.0587975
h     2.6414768   -3.0068169   -2.2013866  0.00   -0.0177026    0.0005916    0.0012372
    24
 Energy =       0.1097620296
c     1.6742032    2.4953093    0.4255256  0.00    0.0172641    0.0271522    0.0089553
c     0.3458506    2.8001325    0.3615605  0.00   -0.0011566    0.0347101    0.0091587
c    -0.5420764    1.8957705   -0.1461302  0.00   -0.0335534    0.0155395    0.0004088
c     2.1194971    1.2797173   -0.0300022  0.00    0.0254876   -0.0048957    0.0030564
c     1.2386672    0.3553809   -0.5544500  0.00    0.0038811   -0.0379803   -0.0142773
c    -0.1016287    0.6727449   -0.5916951  0.00   -0.0102523   -0.0289670   -0.0340530
o    -0.1151056    4.0184573    0.8297340  0.00   -0.0172624   -0.0075226   -0.0099029
h    -0.3929463    4.5986762    0.0562887  0.00    0.0126283   -0.0085596    0.0078817
h    -0.8368011   -0.0168652   -0.9849145  0.00    0.0079543   -0.0006612   -0.0215490
h     3.1843649    1.0581926    0.0150648  0.00    0.0015216   -0.0001995   -0.0001698
h     2.3751954    3.2151967    0.8370628  0.00    0.0041173   -0.0016680   -0.0001982
h    -1.5978332    2.1473828   -0.1831793  0.00   -0.0012404    0.0005833    0.0000309
c     1.8158558   -0.9428626   -1.0931797  0.00   -0.0127670    0.0065907   -0.0031328
c     0.8621021   -1.9307261   -1.8061929  0.00    0.0171196   -0.0186059    0.0306651
h     2.3057255   -1.4739379   -0.2512376  0.00    0.0006035    0.0029568   -0.0027042
h     2.6176960   -0.6717450   -1.8118235  0.00   -0.0030579    0.0005788    0.0019558
c     0.2221609   -1.3131108   -3.0533885  0.00   -0.0338584    0.1262052   -0.0362825
o    -0.1863279   -0.0511879   -3.1301537  0.00    0.0229308   -0.0921626    0.0547214
o     0.0459624   -2.1834910   -4.1090586  0.00    0.0724471   -0.1211811    0.1254464
h     0.2899084   -1.6619099   -4.9659881  0.00    0.0290802    0.0159378   -0.0231605
n     1.5753731   -3.1756776   -2.1994433  0.00   -0.0070064   -0.0142074   -0.0448111
h     0.0298915   -2.2111352   -1.1329520  0.00    0.0047568   -0.0000826   -0.0040189
h     1.3550673   -3.3759112   -3.2012839  0.00   -0.0868383    0.1059353   -0.0490340
h     2.6051967   -3.0407096   -2.1830273  0.00   -0.0127992    0.0005035    0.0010135
    24
 Energy =       0.1026073598
c     1.7467872    2.4809030    0.4117814  0.00    0.0150012    0.0232950    0.0078033
c     0.4231202    2.8039262    0.3811034  0.00   -0.0011506    0.0294213    0.0077785
c    -0.4869117    1.9163763   -0.1111923  0.00   -0.0289836    0.0132813    0.0002166
c     2.1656560    1.2654738   -0.0639787  0.00    0.0221599   -0.0042318    0.0027130
c     1.2613478    0.3585442   -0.5736438  0.00    0.0035874   -0.0324446   -0.0120234
c    -0.0736990    0.6931269   -0.5740221  0.00   -0.0089500   -0.0246774   -0.0289889
o    -0.0084307    4.0263728    0.8699287  0.00   -0.0146276   -0.0065479   -0.0073164
h    -0.2606315    4.6339621    0.1060387  0.00    0.0104049   -0.0063748    0.0058054
h    -0.8285545    0.0150497   -0.9485183  0.00    0.0064358   -0.0007605   -0.0182237
h     3.2284179    1.0294039   -0.0456032  0.00    0.0017798   -0.0002631   -0.0001185
h     2.4653566    3.1891266    0.8135710  0.00    0.0037063   -0.0012293   -0.0000507
h    -1.5402517    2.1817094   -0.1202518  0.00   -0.0015590    0.0006111    0.0000073
c     1.8041048   -0.9470669   -1.1343307  0.00   -0.0105827    0.0059016   -0.0021790
c     0.8107334   -1.9261944   -1.8108571  0.00    0.0139196   -0.0153499    0.0256255
h     2.3149682   -1.4829363   -0.3068610  0.00    0.0007438    0.0024743   -0.0019747
h     2.5850634   -0.6888251   -1.8818335  0.00   -0.0020770    0.0005159    0.0011287
c     0.1542394   -1.3171607   -3.0536872  0.00   -0.0286572    0.1068530   -0.0308519
o    -0.2527217   -0.0449470   -3.1300649  0.00    0.0193398   -0.0781468    0.0462831
o    -0.0421910   -2.1841104   -4.1101526  0.00    0.0614497   -0.1058025    0.1104731
h     0.1311552   -1.6486488   -4.9739524  0.00    0.0255981    0.0154980   -0.0231047
n     1.4906776   -3.1941007   -2.1912877  0.00   -0.0078985   -0.0131748   -0.0382827
h    -0.0120947   -2.1768010   -1.1124876  0.00    0.0034411   -0.0002017   -0.0029141
h     1.2867346   -3.3907199   -3.1993018  0.00   -0.0747858    0.0909663   -0.0426857
h     2.5271231   -3.1047730   -2.1432602  0.00   -0.0082954    0.0003872    0.0008802
    24
 Energy =       0.0906092139
c     1.7472550    2.4608329    0.4306714  0.00    0.0102904    0.0156869    0.0053153
c     0.4236076    2.7700984    0.4343395  0.00   -0.0011070    0.0198262    0.0048146
c    -0.4849990    1.8830336   -0.0502550  0.00   -0.0197247    0.0095465    0.0000024
c     2.1682103    1.2632694   -0.0748289  0.00    0.0151362   -0.0033336    0.0018103
c     1.2653077    0.3597970   -0.5802205  0.00    0.0030423   -0.0220641   -0.0079419
c    -0.0707989    0.6762152   -0.5420729  0.00   -0.0063756   -0.0167307   -0.0198569
o    -0.0070788    3.9836847    0.9508910  0.00   -0.0093043   -0.0065370   -0.0012497
h    -0.2036998    4.6319192    0.1979582  0.00    0.0063444   -0.0018067    0.0006067
h    -0.8250653   -0.0045519   -0.9140430  0.00    0.0046027   -0.0006412   -0.0128971
h     3.2334957    1.0383853   -0.0827927  0.00    0.0016145   -0.0003915   -0.0001339
h     2.4644753    3.1711575    0.8301030  0.00    0.0025524   -0.0008416   -0.0000404
h    -1.5406554    2.1382145   -0.0319052  0.00   -0.0014239    0.0006517    0.0000334
c     1.8111682   -0.9323053   -1.1709380  0.00   -0.0069156    0.0036787   -0.0015562
c     0.8185878   -1.9111043   -1.8527218  0.00    0.0089726   -0.0102860    0.0171732
h     2.3300276   -1.4781936   -0.3537032  0.00    0.0005468    0.0014841   -0.0012992
h     2.5855250   -0.6595582   -1.9213940  0.00   -0.0013303    0.0003547    0.0006154
c     0.1524459   -1.3090628   -3.0922789  0.00   -0.0180133    0.0711793   -0.0208478
o    -0.2853276   -0.0273442   -3.1504466  0.00    0.0118718   -0.0513534    0.0323742
o    -0.0555406   -2.1627904   -4.1607791  0.00    0.0427861   -0.0846942    0.0914321
h    -0.0275979   -1.5936513   -5.0233848  0.00    0.0186612    0.0198882   -0.0298713
n     1.5097557   -3.1757776   -2.2190519  0.00   -0.0063124   -0.0086837   -0.0250899
h    -0.0028875   -2.1656847   -1.1522519  0.00    0.0022739   -0.0001524   -0.0018902
h     1.3367018   -3.3744019   -3.2356443  0.00   -0.0535146    0.0648934   -0.0322784
h     2.5470860   -3.0944906   -2.1381142  0.00   -0.0046734    0.0003263    0.0007754
    24
 Energy =       0.0815161272
c     1.7519172    2.4539140    0.4236026  0.00    0.0073353    0.0088578    0.0032107
c     0.4253128    2.7339707    0.4902041  0.00   -0.0016246    0.0117232    0.0025026
c    -0.4827295    1.8356787    0.0350564  0.00   -0.0126930    0.0063693   -0.0002111
c     2.1760142    1.2775554   -0.1180602  0.00    0.0099007   -0.0026460    0.0010827
c     1.2730358    0.3658661   -0.5977751  0.00    0.0036756   -0.0133465   -0.0046285
c    -0.0657518    0.6493131   -0.4929378  0.00   -0.0052326   -0.0096208   -0.0117675
o    -0.0071838    3.9341752    1.0405443  0.00   -0.0055713   -0.0048805    0.0018045
h    -0.1653692    4.6187002    0.3077788  0.00    0.0032442    0.0006080   -0.0018086
h    -0.8204861   -0.0429125   -0.8438337  0.00    0.0025512   -0.0004760   -0.0081353
h     3.2452180    1.0754817   -0.1737030  0.00    0.0023674   -0.0006231   -0.0001742
h     2.4690316    3.1747643    0.8035424  0.00    0.0019071   -0.0004939    0.0000183
h    -1.5424144    2.0682425    0.1035201  0.00   -0.0023191    0.0008331    0.0001038
c     1.8215841   -0.9118841   -1.2193352  0.00   -0.0036879    0.0019484   -0.0009496
c     0.8280778   -1.8974894   -1.8945479  0.00    0.0049389   -0.0061566    0.0099079
h     2.3583461   -1.4610125   -0.4146705  0.00    0.0004371    0.0005904   -0.0006564
h     2.5813890   -0.6244614   -1.9803009  0.00   -0.0006008    0.0002426    0.0001302
c     0.1364762   -1.3034180   -3.1246551  0.00   -0.0085164    0.0398637   -0.0124856
o    -0.3501806   -0.0214922   -3.1515542  0.00    0.0048371   -0.0274403    0.0199781
o    -0.0743499   -2.1357709   -4.2122778  0.00    0.0276602   -0.0625085    0.0687582
h    -0.1863510   -1.5433496   -5.0512243  0.00    0.0107617    0.0206493   -0.0301595
n     1.5315447   -3.1576730   -2.2512357  0.00   -0.0058178   -0.0048625   -0.0132397
h     0.0162496   -2.1585040   -1.1836744  0.00    0.0012148   -0.0001918   -0.0009433
h     1.4033399   -3.3509352   -3.2779530  0.00   -0.0343018    0.0411464   -0.0231953
h     2.5672781   -3.0910681   -2.1193739  0.00   -0.0004662    0.0004143    0.0008574
    24
 Energy =       0.0786695624
c     1.6768632    2.4749390    0.4259702  0.00    0.0077730    0.0072306    0.0027388
c     0.3400439    2.6882459    0.5388363  0.00   -0.0021517    0.0094974    0.0021728
c    -0.5373412    1.7489223    0.1066664  0.00   -0.0120013    0.0054262   -0.0000760
c     2.1409214    1.3268596   -0.1417996  0.00    0.0097161   -0.0025680    0.0006820
c     1.2685041    0.3765782   -0.6019121  0.00    0.0046477   -0.0109694   -0.0040290
c    -0.0796824    0.5892808   -0.4462033  0.00   -0.0064560   -0.0076411   -0.0091098
o    -0.1338162    3.8631128    1.1130636  0.00   -0.0052347   -0.0030552    0.0026380
h    -0.3241223    4.5544819    0.3939688  0.00    0.0022278    0.0012811   -0.0020391
h    -0.8105370   -0.1398480   -0.7759521  0.00    0.0007405   -0.0008305   -0.0063893
h     3.2179346    1.1784557   -0.2335731  0.00    0.0040399   -0.0008237   -0.0003070
h     2.3698685    3.2277730    0.7901217  0.00    0.0023995    0.0000876    0.0002659
h    -1.6058397    1.9278304    0.2132105  0.00   -0.0040747    0.0010284    0.0002706
c     1.8625317   -0.8682371   -1.2504929  0.00   -0.0022160    0.0014939   -0.0007623
c     0.9060991   -1.8884850   -1.9307598  0.00    0.0029914   -0.0044128    0.0073295
h     2.4310751   -1.4064074   -0.4592398  0.00    0.0006860   -0.0001124   -0.0002019
h     2.6025764   -0.5379668   -2.0152332  0.00    0.0003656    0.0006655   -0.0005007
c     0.1698585   -1.3090718   -3.1443462  0.00   -0.0026250    0.0254943   -0.0101976
o    -0.4284850   -0.0638884   -3.1201465  0.00   -0.0012656   -0.0119969    0.0161314
o    -0.0003779   -2.1199151   -4.2570680  0.00    0.0221068   -0.0548262    0.0569049
h    -0.1886487   -1.5151664   -5.0703928  0.00    0.0080585    0.0195468   -0.0271840
n     1.6672598   -3.1126140   -2.3021126  0.00   -0.0055734   -0.0065357   -0.0104588
h     0.1134701   -2.1955038   -1.2145291  0.00    0.0000355   -0.0007744   -0.0001310
h     1.5288575   -3.3198505   -3.3242994  0.00   -0.0268025    0.0324910   -0.0186126
h     2.7029856   -2.9918346   -2.1966411  0.00    0.0026126    0.0003033    0.0008652
    24
 Energy =       0.0768708719
c     1.6019747    2.4586290    0.4739321  0.00    0.0073029    0.0066163    0.0025202
c     0.2608742    2.6577992    0.5515173  0.00   -0.0018707    0.0085909    0.0018641
c    -0.5949495    1.7154334    0.0839738  0.00   -0.0110431    0.0045792   -0.0001089
c     2.0927952    1.3205385   -0.0899968  0.00    0.0091359   -0.0020822    0.0006809
c     1.2432292    0.3670769   -0.5842322  0.00    0.0040735   -0.0099137   -0.0034862
c    -0.1114104    0.5670607   -0.4695759  0.00   -0.0062012   -0.0065904   -0.0073075
o    -0.2400047    3.8225043    1.1244198  0.00   -0.0046659   -0.0026048    0.0033381
h    -0.4032708    4.5242777    0.4083084  0.00    0.0018863    0.0014661   -0.0024340
h    -0.8259339   -0.1610969   -0.8392898  0.00   -0.0002537   -0.0013554   -0.0058490
h     3.1734272    1.1823569   -0.1502745  0.00    0.0041213   -0.0007138   -0.0002685
h     2.2770599    3.2146083    0.8650396  0.00    0.0024988    0.0004230    0.0004039
h    -1.6676310    1.8846861    0.1597370  0.00   -0.0041218    0.0008908    0.0002369
c     1.8685410   -0.8716515   -1.2161954  0.00   -0.0018103    0.0018080    0.0001290
c     0.9427567   -1.8768504   -1.9610395  0.00    0.0029426   -0.0048317    0.0058638
h     2.3915067   -1.4218016   -0.4005864  0.00    0.0012911   -0.0003788    0.0010510
h     2.6506245   -0.5358709   -1.9378291  0.00    0.0016237    0.0009847   -0.0015934
c     0.2635178   -1.2718654   -3.1957887  0.00   -0.0015151    0.0194635   -0.0095042
o    -0.2697319    0.0060543   -3.1956702  0.00   -0.0026070   -0.0072177    0.0127485
o     0.0952418   -2.0756104   -4.3143883  0.00    0.0194504   -0.0479120    0.0496107
h    -0.0965233   -1.4692708   -5.1227135  0.00    0.0069570    0.0170300   -0.0237400
n     1.7166450   -3.0958402   -2.3209752  0.00   -0.0117117   -0.0061111   -0.0038455
h     0.1164886   -2.1963251   -1.2876011  0.00   -0.0011131   -0.0010710    0.0008045
h     1.6595357   -3.2581191   -3.3636516  0.00   -0.0242398    0.0276588   -0.0235844
h     2.7452362   -2.9990320   -2.1199838  0.00    0.0098700    0.0012714    0.0024700
    24
 Energy =       0.0763789350
c     1.6315485    2.4333856    0.4771022  0.00    0.0071305    0.0060088    0.0023087
c     0.2925526    2.6259211    0.5964836  0.00   -0.0019760    0.0078458    0.0016835
c    -0.5725909    1.6812514    0.1523415  0.00   -0.0104974    0.0041989   -0.0000827
c     2.1102994    1.3009879   -0.1079371  0.00    0.0087452   -0.0020077    0.0005753
c     1.2502677    0.3469914   -0.5819995  0.00    0.0045003   -0.0090086   -0.0032431
c    -0.1008161    0.5378721   -0.4200160  0.00   -0.0063854   -0.0057851   -0.0063317
o    -0.1960190    3.7863025    1.1888735  0.00   -0.0044524   -0.0023728    0.0034741
h    -0.3794812    4.4918920    0.4813417  0.00    0.0016409    0.0015765   -0.0025090
h    -0.8228646   -0.1933329   -0.7683750  0.00   -0.0006028   -0.0012183   -0.0051691
h     3.1893490    1.1678781   -0.2009541  0.00    0.0042781   -0.0007360   -0.0002860
h     2.3145745    3.1906045    0.8516734  0.00    0.0024550    0.0004457    0.0004016
h    -1.6434288    1.8445897    0.2620861  0.00   -0.0043293    0.0008830    0.0002536
c     1.8589804   -0.8890452   -1.2359082  0.00   -0.0013942    0.0018729    0.0001818
c     0.9191058   -1.8659552   -2.0026023  0.00    0.0028069   -0.0039754    0.0058490
h     2.3713708   -1.4606271   -0.4283934  0.00    0.0013084   -0.0005031    0.0011696
h     2.6475076   -0.5534191   -1.9503071  0.00    0.0014992    0.0009673   -0.0014463
c     0.2315344   -1.2187437   -3.2130575  0.00   -0.0003343    0.0173404   -0.0074067
o    -0.3453424    0.0416648   -3.1489204  0.00   -0.0038409   -0.0027528    0.0122138
o     0.0980223   -1.9658399   -4.3767960  0.00    0.0176634   -0.0475001    0.0433841
h    -0.1219389   -1.3288771   -5.1529737  0.00    0.0059217    0.0168158   -0.0230578
n     1.6800111   -3.0814623   -2.4038157  0.00   -0.0159089   -0.0077059    0.0012346
h     0.0967543   -2.1990347   -1.3313659  0.00   -0.0009767   -0.0011109    0.0008323
h     1.6826066   -3.1705642   -3.4612371  0.00   -0.0222769    0.0243924   -0.0286506
h     2.6979956   -3.0347487   -2.1281069  0.00    0.0150255    0.0023293    0.0046212
    24
 Energy =       0.0744592174
c     1.5649278    2.4804128    0.4485403  0.00    0.0058844    0.0050862    0.0019917
c     0.2223603    2.6516601    0.5450330  0.00   -0.0015988    0.0063119    0.0013222
c    -0.6192129    1.6895941    0.0949326  0.00   -0.0087396    0.0034327    0.0000186
c     2.0712482    1.3505580   -0.1160905  0.00    0.0073312   -0.0016749    0.0004094
c     1.2358318    0.3773787   -0.5929482  0.00    0.0036818   -0.0071450   -0.0026136
c    -0.1203630    0.5499787   -0.4605056  0.00   -0.0055250   -0.0046743   -0.0049261
o    -0.2942807    3.8095925    1.1189673  0.00   -0.0037862   -0.0013969    0.0033355
h    -0.4637281    4.5115151    0.4045661  0.00    0.0012848    0.0013488   -0.0022087
h    -0.8247988   -0.1938388   -0.8177599  0.00   -0.0007974   -0.0010294   -0.0041872
h     3.1533196    1.2336694   -0.1884563  0.00    0.0037637   -0.0006483   -0.0002713
h     2.2287914    3.2526592    0.8265905  0.00    0.0021445    0.0005756    0.0004252
h    -1.6936605    1.8371914    0.1850307  0.00   -0.0037651    0.0007766    0.0002534
c     1.8786929   -0.8599874   -1.2126128  0.00   -0.0006418    0.0018494    0.0000673
c     0.9695304   -1.8777597   -1.9635456  0.00    0.0014237   -0.0023883    0.0056603
h     2.3954857   -1.4001147   -0.3859661  0.00    0.0013883   -0.0006929    0.0014412
h     2.6666410   -0.5237571   -1.9267024  0.00    0.0012209    0.0007896   -0.0011534
c     0.2940306   -1.2832605   -3.2080990  0.00    0.0004192    0.0124331   -0.0052405
o    -0.2391180    0.0008307   -3.2133983  0.00   -0.0045437    0.0021123    0.0102923
o     0.1359776   -2.0868845   -4.3339483  0.00    0.0142976   -0.0415856    0.0333552
h    -0.1133147   -1.4876302   -5.1283420  0.00    0.0043099    0.0145107   -0.0200595
n     1.7576136   -3.0947269   -2.3049335  0.00   -0.0118849   -0.0081719    0.0018403
h     0.1400115   -2.2002871   -1.2964507  0.00   -0.0007738   -0.0009290    0.0007744
h     1.7738717   -3.2283836   -3.3559390  0.00   -0.0177167    0.0194473   -0.0244205
h     2.7701413   -3.0207193   -2.0208263  0.00    0.0126229    0.0016622    0.0038937
    24
 Energy =       0.0731367036
c     1.5385980    2.5400285    0.3687083  0.00    0.0048168    0.0043591    0.0017844
c     0.1958006    2.6919946    0.4765444  0.00   -0.0010152    0.0050875    0.0011476