    13
 Energy =       0.1091455593
c    -3.7133889    1.6950595    0.3173519  0.00   -0.0471762   -0.0135173    0.0082317
c    -2.4962693    2.6345192    0.2419999  0.00    0.0712070    0.3761455    0.0929296
c    -4.9565486    2.3924193   -0.2155699  0.00    0.0180163    0.0015243    0.0026120
h    -5.2099685    3.2528291    0.4143399  0.00    0.0021027   -0.0140132   -0.0110395
h    -5.8205883    1.7190695   -0.2147749  0.00    0.0117410    0.0110215   -0.0019347
h    -4.8083986    2.7651692   -1.2348596  0.00   -0.0070782   -0.0014882    0.0177064
n    -3.4097890    0.4519539   -0.4549189  0.00    0.0527751   -0.0521732   -0.0084330
h    -3.8575589    1.4177196    1.3669296  0.00    0.0041742   -0.0126225   -0.0262577
h    -3.2072391   -0.2948399    0.2179739  0.00   -0.0189989    0.0284018   -0.0186160
h    -4.2689788    0.1396900   -0.9176007  0.00    0.0224986    0.0212526    0.0241536
o    -2.4571893    3.7760389    0.6681628  0.00   -0.0096394   -0.2805840   -0.0975260
o    -1.4389296    2.0221094   -0.3549299  0.00   -0.0703073   -0.0461275    0.0006627
h    -1.1721897    2.6250993   -1.0934297  0.00   -0.0293150   -0.0178199    0.0175108
    13
 Energy =       0.0953587137
c    -3.7181450    1.6936273    0.3339297  0.00   -0.0363359   -0.0100717    0.0076821
c    -2.4766005    2.5938274    0.2648022  0.00    0.0548502    0.2912822    0.0715357
c    -4.9312889    2.4205856   -0.2467739  0.00    0.0170919    0.0011014    0.0056063
h    -5.2413537    3.2311030    0.4348943  0.00    0.0013083   -0.0084543   -0.0050824
h    -5.7960399    1.7422161   -0.3735281  0.00    0.0031599    0.0035460   -0.0027771
h    -4.6970010    2.8776933   -1.2270612  0.00   -0.0031247    0.0017886    0.0070316
n    -3.4390699    0.4312527   -0.4076674  0.00    0.0428083   -0.0400619   -0.0071089
h    -3.8978575    1.4502196    1.3917728  0.00    0.0027510   -0.0100870   -0.0193819
h    -3.2609990   -0.3126461    0.2836550  0.00   -0.0147150    0.0213502   -0.0137666
h    -4.2907372    0.1258595   -0.8992967  0.00    0.0166684    0.0164796    0.0182012
o    -2.4262084    3.7712866    0.7029251  0.00   -0.0071213   -0.2168314   -0.0757650
o    -1.4149447    2.0017832   -0.3574531  0.00   -0.0558987   -0.0420879    0.0081765
h    -1.2267910    2.5700290   -1.1595244  0.00   -0.0214425   -0.0079539    0.0056485
    13
 Energy =       0.0891330270
c    -3.7115910    1.6931367    0.3348700  0.00   -0.0314837   -0.0085515    0.0068426
c    -2.4704113    2.5893834    0.2664440  0.00    0.0471917    0.2525360    0.0614803
c    -4.9272327    2.4236901   -0.2350992  0.00    0.0216209   -0.0038654    0.0083445
h    -5.1411624    3.3340429    0.3738973  0.00    0.0003074    0.0019808    0.0024985
h    -5.8333206    1.7697963   -0.2147749  0.00   -0.0058216   -0.0044499   -0.0014850
h    -4.7369933    2.7471541   -1.2882256  0.00    0.0006184    0.0039600   -0.0050198
n    -3.4481101    0.4360222   -0.4162116  0.00    0.0375420   -0.0341853   -0.0062398
h    -3.8849949    1.4505261    1.3960524  0.00    0.0022838   -0.0087483   -0.0167561
h    -3.2790956   -0.3204862    0.2671932  0.00   -0.0127378    0.0182357   -0.0117951
h    -4.3012216    0.1467145   -0.9212847  0.00    0.0139449    0.0145416    0.0154088
o    -2.4337774    3.7815487    0.7168553  0.00   -0.0065110   -0.1876115   -0.0656255
o    -1.3908772    2.0127508   -0.3438333  0.00   -0.0487226   -0.0410237    0.0127629
h    -1.2582486    2.5325574   -1.1952087  0.00   -0.0182326   -0.0028185   -0.0004164
    13
 Energy =       0.0807780337
c    -3.7026221    1.7102953    0.3508979  0.00   -0.0187810   -0.0035422    0.0046679
c    -2.4447886    2.5746289    0.2763336  0.00    0.0273564    0.1474349    0.0327006
c    -4.9003942    2.4411937   -0.2708878  0.00    0.0124733   -0.0029764    0.0054329
h    -5.0970131    3.3923332    0.2813762  0.00   -0.0004744    0.0032458    0.0025764
h    -5.8192534    1.8110417   -0.2144673  0.00   -0.0039325   -0.0033878   -0.0006547
h    -4.6969254    2.6947684   -1.3401754  0.00    0.0009447    0.0030231   -0.0052039
n    -3.4652041    0.4166360   -0.3378672  0.00    0.0274952   -0.0182705   -0.0064542
h    -3.9014697    1.5326947    1.4281499  0.00    0.0007221   -0.0051499   -0.0074986
h    -3.3623753   -0.3293243    0.3831682  0.00   -0.0072452    0.0069034   -0.0031882
h    -4.2945965    0.1409270   -0.9031737  0.00    0.0050031    0.0084791    0.0068371
o    -2.4141811    3.8119491    0.7425502  0.00   -0.0039755   -0.1082155   -0.0389611
o    -1.3421236    2.0258890   -0.3351230  0.00   -0.0239660   -0.0504685    0.0673276
h    -1.3760896    2.3738043   -1.3201073  0.00   -0.0156201    0.0229246   -0.0575817
    13
 Energy =       0.0738376049
c    -3.7051838    1.6997029    0.3434039  0.00   -0.0086205   -0.0005049    0.0021571
c    -2.4274203    2.5298148    0.2676703  0.00    0.0101479    0.0596919    0.0116706
c    -4.8966963    2.4604777   -0.2648589  0.00    0.0054550   -0.0011333    0.0020874
h    -5.0509342    3.4282203    0.2691827  0.00   -0.0004431    0.0023048    0.0014379
h    -5.8308425    1.8608145   -0.1738559  0.00   -0.0024947   -0.0020004   -0.0004165
h    -4.7092183    2.6814211   -1.3415642  0.00    0.0008901    0.0011755   -0.0028577
n    -3.5235480    0.3983641   -0.3397342  0.00    0.0220527   -0.0004276   -0.0018753
h    -3.8969826    1.5406979    1.4286509  0.00    0.0001023   -0.0016280   -0.0027188
h    -3.5211284   -0.3718054    0.3749706  0.00   -0.0033190   -0.0041653    0.0045258
h    -4.3163308    0.1858966   -0.9965082  0.00   -0.0065816    0.0023664   -0.0040959
o    -2.3863414    3.7943218    0.7729543  0.00   -0.0010147   -0.0441449   -0.0142591
o    -1.2990806    1.9962213   -0.3266352  0.00   -0.0076352   -0.0214909    0.0355941
h    -1.2533294    2.3926893   -1.2730019  0.00   -0.0085393    0.0099567   -0.0312495
    13
 Energy =       0.0735111279
c    -3.7021513    1.6809026    0.3279085  0.00   -0.0067268    0.0014908    0.0030847
c    -2.4210193    2.5081438    0.2775074  0.00    0.0085892    0.0535755    0.0103601
c    -4.9041064    2.4803568   -0.2120604  0.00    0.0035214   -0.0006673    0.0020098
h    -5.0426701    3.4196811    0.3774561  0.00   -0.0007641    0.0037687    0.0022830
h    -5.8380056    1.8790417   -0.1329769  0.00   -0.0023184   -0.0018997   -0.0003071
h    -4.7393380    2.7593371   -1.2805036  0.00    0.0008727    0.0016075   -0.0044356
n    -3.5409224    0.4169296   -0.4311437  0.00    0.0225164   -0.0004161   -0.0041103
h    -3.8719796    1.4616570    1.4085487  0.00   -0.0000062   -0.0016360   -0.0003349
h    -3.5677508   -0.3962492    0.2368510  0.00   -0.0030019   -0.0070147    0.0064218
h    -4.3247287    0.2616353   -1.1168326  0.00   -0.0080708    0.0006531   -0.0062345
o    -2.3796951    3.7641515    0.8115414  0.00   -0.0006558   -0.0392403   -0.0125745
o    -1.2800349    1.9752687   -0.2944593  0.00   -0.0062986   -0.0194774    0.0328626
h    -1.2046345    2.3859809   -1.2311623  0.00   -0.0076571    0.0092561   -0.0290251
    13
 Energy =       0.0725510436
c    -3.6989624    1.6553610    0.3151949  0.00   -0.0052756    0.0019959    0.0030248
c    -2.4257931    2.4955684    0.2850828  0.00    0.0052750    0.0390602    0.0049777
c    -4.9130641    2.4665770   -0.1795528  0.00    0.0023937   -0.0002796    0.0018047
h    -5.0463947    3.3859775    0.4415821  0.00   -0.0007825    0.0036531    0.0022878
h    -5.8423690    1.8585931   -0.1040742  0.00   -0.0019347   -0.0015454   -0.0001837
h    -4.7669251    2.7790696   -1.2412342  0.00    0.0007917    0.0016174   -0.0042635
n    -3.5394194    0.4219668   -0.4928998  0.00    0.0189785   -0.0008405   -0.0050290
h    -3.8555149    1.3940030    1.3895171  0.00   -0.0001440   -0.0015714    0.0006764
h    -3.5531356   -0.4160488    0.1435540  0.00   -0.0026153   -0.0068789    0.0060023
h    -4.3259923    0.2874991   -1.1785176  0.00   -0.0067023    0.0004041   -0.0056344
o    -2.3788998    3.7095175    0.9291602  0.00   -0.0012633   -0.0247608   -0.0053234
o    -1.2892543    2.0140189   -0.3449282  0.00   -0.0037212   -0.0257478    0.0388141
h    -1.1813120    2.5447340   -1.2222099  0.00   -0.0050000    0.0148936   -0.0371539
    13
 Energy =       0.0730204312
c    -3.6935512    1.6474304    0.3159804  0.00   -0.0046920    0.0016558    0.0027991
c    -2.4142437    2.4779064    0.2933030  0.00    0.0034145    0.0323728    0.0027521
c    -4.9040703    2.4730982   -0.1626518  0.00    0.0020308   -0.0001469    0.0016009
h    -5.0281112    3.3847856    0.4711977  0.00   -0.0007079    0.0034147    0.0021361
h    -5.8364015    1.8696619   -0.0904989  0.00   -0.0017574   -0.0014138   -0.0001679
h    -4.7615180    2.7982834   -1.2205938  0.00    0.0007058    0.0014802   -0.0039297
n    -3.5479471    0.4206782   -0.5038881  0.00    0.0198899    0.0018371   -0.0043310
h    -3.8466606    1.3761469    1.3884448  0.00   -0.0001192   -0.0013462    0.0007151
h    -3.6237104   -0.4270557    0.1176142  0.00   -0.0024930   -0.0089002    0.0073888
h    -4.3057649    0.3291520   -1.2301769  0.00   -0.0085729    0.0000978   -0.0074410
o    -2.3357739    3.6496491    1.0177929  0.00   -0.0015856   -0.0175391   -0.0013818
o    -1.2981971    2.0234213   -0.3947270  0.00   -0.0018046   -0.0255112    0.0343246
h    -1.2210867    2.5736793   -1.2611220  0.00   -0.0043086    0.0139990   -0.0344651
    13
 Energy =       0.0732338187
c    -3.6897467    1.6338239    0.3094998  0.00   -0.0068450    0.0026441    0.0055605
c    -2.4597919    2.5422791    0.3460899  0.00    0.0019241    0.0299461    0.0022654
c    -4.9334504    2.3948435   -0.1966692  0.00    0.0016769    0.0007587    0.0006066
h    -5.1276913    3.2930881    0.4426045  0.00   -0.0013104    0.0052828    0.0033775
h    -5.8334355    1.7375622   -0.1578353  0.00   -0.0038007   -0.0026024   -0.0001073
h    -4.7784652    2.7390843   -1.2468833  0.00    0.0009071    0.0014430   -0.0040700
n    -3.4444143    0.4275920   -0.5236922  0.00    0.0220875   -0.0023024   -0.0058463
h    -3.8634696    1.3372946    1.3726846  0.00   -0.0005826   -0.0010371    0.0013590
h    -3.5150487   -0.4330358    0.0803236  0.00   -0.0026000   -0.0090232    0.0071575
h    -4.1615598    0.3139678   -1.2891844  0.00   -0.0099130   -0.0013113   -0.0095375
o    -2.4799573    3.7037258    1.0989015  0.00   -0.0014943   -0.0111246    0.0023417
o    -1.2936432    2.1741793   -0.3165900  0.00    0.0042626   -0.0264111    0.0301199
h    -1.2363627    2.7324324   -1.1785751  0.00   -0.0043121    0.0137374   -0.0332270
    13
 Energy =       0.0756326028
c    -3.6623191    1.6260684    0.3183468  0.00   -0.0072331    0.0018539    0.0056266
c    -2.4492120    2.5561375    0.3539903  0.00    0.0006705    0.0262328   -0.0001532
c    -4.9346996    2.3670473   -0.1455818  0.00    0.0007561    0.0018652    0.0016011
h    -5.1432284    3.2397836    0.5247259  0.00   -0.0016004    0.0057452    0.0036247
h    -5.8143784    1.6818363   -0.1133950  0.00   -0.0040509   -0.0029494    0.0001265
h    -4.8069848    2.7502142   -1.1866594  0.00    0.0011177    0.0019273   -0.0048944
n    -3.4106033    0.4341042   -0.5323972  0.00    0.0491006    0.0211294    0.0036798
h    -3.8043797    1.3097367    1.3813382  0.00   -0.0006769   -0.0007422    0.0022780
h    -3.6738018   -0.4478839    0.0182900  0.00   -0.0102098   -0.0341700    0.0247164
h    -4.0116419    0.4366719   -1.4232538  0.00   -0.0279081   -0.0005340   -0.0376450
o    -2.4600141    3.6657752    1.1875353  0.00   -0.0028057   -0.0062351    0.0059151
o    -1.2975405    2.2439056   -0.3647637  0.00    0.0081584   -0.0353270    0.0399368
h    -1.3482330    2.7334402   -1.2775011  0.00   -0.0053183    0.0212039   -0.0448125
    13
 Energy =       0.0741178012
c    -3.6914069    1.6180031    0.3032768  0.00   -0.0036498   -0.0026537    0.0008432
c    -2.4414756    2.4912772    0.4561765  0.00    0.0038401    0.0139037   -0.0013189
c    -4.9024415    2.4290442   -0.2094022  0.00   -0.0011224    0.0025193    0.0003496
h    -5.1049886    3.2914795    0.4700223  0.00   -0.0007240    0.0026338    0.0015860
h    -5.8133597    1.7853821   -0.2371179  0.00   -0.0041907   -0.0029976    0.0001254
h    -4.7059929    2.8298431   -1.2324926  0.00    0.0004769    0.0019956   -0.0044719
n    -3.4430361    0.4526756   -0.5769986  0.00    0.0203287    0.0086555    0.0000738
h    -3.9150098    1.2675275    1.3442669  0.00   -0.0006296   -0.0020683    0.0046390
h    -3.6971459   -0.4343176   -0.0585688  0.00   -0.0046244   -0.0147905    0.0112439
h    -4.0316845    0.4717576   -1.4570265  0.00   -0.0119367   -0.0006896   -0.0161383
o    -2.4528151    3.5592207    1.3462884  0.00    0.0000078    0.0001888    0.0045804
o    -1.2729713    2.2038381   -0.2410884  0.00    0.0048133   -0.0190454    0.0197117
h    -1.3447087    2.6311059   -1.1666616  0.00   -0.0025893    0.0123483   -0.0212240
    13
 Energy =       0.0732131637
c    -3.6437461    1.6143190    0.3226381  0.00   -0.0014487   -0.0041008   -0.0013642
c    -2.4245944    2.5420094    0.3819959  0.00    0.0028406    0.0079243   -0.0007148
c    -4.9315833    2.3623960   -0.0995704  0.00   -0.0047006    0.0036728    0.0014685
h    -5.1438438    3.1964726    0.6107151  0.00   -0.0013408    0.0022344    0.0011753
h    -5.8043774    1.6671273   -0.0904984  0.00   -0.0045191   -0.0029974    0.0004811
h    -4.8188251    2.7996350   -1.1220390  0.00    0.0008333    0.0030766   -0.0059000
n    -3.4134425    0.4560752   -0.5664181  0.00    0.0270628    0.0169679    0.0068235
h    -3.7695958    1.2574971    1.3800377  0.00   -0.0008230   -0.0023519    0.0072639
h    -3.8094740   -0.4202750   -0.1103996  0.00   -0.0086102   -0.0238031    0.0147936
h    -3.8954997    0.5682245   -1.5088472  0.00   -0.0150521    0.0013133   -0.0253882
o    -2.4363927    3.6359792    1.2395407  0.00    0.0011124    0.0012151    0.0028753
o    -1.2813208    2.2924462   -0.3710656  0.00    0.0080884   -0.0158364    0.0231392
h    -1.4443410    2.6249306   -1.3254147  0.00   -0.0034429    0.0126855   -0.0246532
    13
 Energy =       0.0714536321
c    -3.6060808    1.6143505    0.3357696  0.00   -0.0000113   -0.0048373   -0.0025731
c    -2.4302329    2.5966425    0.3033988  0.00    0.0035176   -0.0007384   -0.0033574
c    -4.9520225    2.2945891   -0.0072417  0.00   -0.0045939    0.0028654    0.0013226
h    -5.1647624    3.1127848    0.7190596  0.00   -0.0009315    0.0010313    0.0004642
h    -5.7864375    1.5571545    0.0446584  0.00   -0.0035860   -0.0023291    0.0003645
h    -4.9201538    2.7422041   -1.0296323  0.00    0.0005522    0.0026161   -0.0047551
n    -3.3895510    0.4602885   -0.5561215  0.00    0.0153868    0.0112176    0.0040651
h    -3.6433643    1.2601848    1.3992899  0.00   -0.0005100   -0.0021478    0.0060405
h    -3.8702169   -0.3896507   -0.1501820  0.00   -0.0052683   -0.0145742    0.0088794
h    -3.7955645    0.6266479   -1.5177189  0.00   -0.0084646    0.0009238   -0.0146128
o    -2.4731600    3.7518064    1.0807875  0.00    0.0019599    0.0065681    0.0044484
o    -1.2962179    2.3503963   -0.4610495  0.00    0.0034099   -0.0069306    0.0112541
h    -1.4892719    2.6194382   -1.4203436  0.00   -0.0014609    0.0063352   -0.0115405
    13
 Energy =       0.0702808550
c    -3.5760154    1.6135489    0.3403281  0.00    0.0012332   -0.0042479   -0.0030347
c    -2.4428804    2.6384034    0.2313139  0.00    0.0034782   -0.0031986   -0.0042312
c    -4.9661891    2.2402748    0.0871685  0.00   -0.0043420    0.0018529    0.0016844
h    -5.1642940    3.0458172    0.8309522  0.00   -0.0007590    0.0005613    0.0004480
h    -5.7668939    1.4720065    0.1858314  0.00   -0.0029755   -0.0019682    0.0003364
h    -5.0169454    2.6931195   -0.9318469  0.00    0.0001339    0.0024256   -0.0045742
n    -3.3817105    0.4718275   -0.5688967  0.00    0.0141556    0.0098152    0.0048290
h    -3.5288500    1.2524888    1.3999663  0.00   -0.0001077   -0.0018828    0.0054254
h    -3.9542664   -0.3476007   -0.2260012  0.00   -0.0069532   -0.0132117    0.0071127
h    -3.7091609    0.7047765   -1.5448923  0.00   -0.0058428    0.0021998   -0.0128255
o    -2.5297558    3.8468185    0.9220344  0.00    0.0011389    0.0089354    0.0055333
o    -1.2967890    2.3737139   -0.5078537  0.00    0.0018333   -0.0043161    0.0052677
h    -1.4832859    2.5916422   -1.4774294  0.00   -0.0009930    0.0030351   -0.0059711
    13
 Energy =       0.0698125245
c    -3.5771782    1.6122407    0.3205847  0.00    0.0020642   -0.0017248   -0.0013415
c    -2.4499275    2.6404078    0.2050015  0.00   -0.0060523   -0.0027637   -0.0007509
c    -4.9763290    2.2433527    0.1413290  0.00   -0.0039294    0.0011948    0.0012502
h    -5.1469542    3.0264456    0.9162590  0.00   -0.0007883    0.0010755    0.0010183
h    -5.7710632    1.4717868    0.2471714  0.00   -0.0019168   -0.0011433    0.0002431
h    -5.0668050    2.7261385   -0.8603538  0.00   -0.0000699    0.0019863   -0.0039625
n    -3.4168774    0.5042785   -0.6376303  0.00    0.0101205    0.0044083    0.0028217
h    -3.4895439    1.2135101    1.3630943  0.00    0.0001402   -0.0014776    0.0048393
h    -4.0094888   -0.3104160   -0.3287280  0.00   -0.0046797   -0.0091020    0.0045636
h    -3.7417164    0.7874149   -1.5989837  0.00   -0.0041488    0.0015124   -0.0098405
o    -2.5887503    3.8977202    0.7992427  0.00   -0.0022833    0.0125530    0.0082133
o    -1.2408324    2.3149481   -0.4136944  0.00    0.0131993   -0.0100107    0.0064227
h    -1.3415704    2.4690089   -1.4126181  0.00   -0.0016556    0.0034918   -0.0134767
    13
 Energy =       0.0689288382
c    -3.5563794    1.5992852    0.2996268  0.00    0.0036501    0.0020038    0.0004717
c    -2.4514733    2.6447497    0.1494331  0.00   -0.0008752   -0.0029639   -0.0025372
c    -4.9736922    2.2175402    0.2560770  0.00   -0.0050151    0.0002525    0.0016967
h    -5.0939216    2.9661918    1.0750122  0.00   -0.0011821    0.0017588    0.0022795
h    -5.7493036    1.4329033    0.3909902  0.00   -0.0012008   -0.0002014    0.0003237
h    -5.1473710    2.7390286   -0.7154841  0.00   -0.0006947    0.0021752   -0.0045158
n    -3.4557495    0.5442935   -0.7264945  0.00    0.0068963   -0.0021009    0.0005389
h    -3.3864122    1.1480580    1.3104420  0.00    0.0007408   -0.0016708    0.0054942
h    -4.0894284   -0.2536699   -0.4713827  0.00   -0.0024555   -0.0047119    0.0012054
h    -3.7687975    0.9081422   -1.6621428  0.00   -0.0021896    0.0014062   -0.0068483
o    -2.6259766    3.9298745    0.6592954  0.00   -0.0006928    0.0064511    0.0042686
o    -1.2242091    2.3087013   -0.4110378  0.00    0.0038224   -0.0037659    0.0020739
h    -1.2943223    2.4117387   -1.4136603  0.00   -0.0008039    0.0013672   -0.0044512
    13
 Energy =       0.0684686511
c    -3.5618812    1.5971909    0.2741335  0.00    0.0025316    0.0024589    0.0017023
c    -2.4547588    2.6406288    0.1325620  0.00   -0.0080305   -0.0056288   -0.0019368
c    -4.9763621    2.2190930    0.2977441  0.00   -0.0036105   -0.0000401    0.0010168
h    -5.0682352    2.9385397    1.1455042  0.00   -0.0009297    0.0016634    0.0020176
h    -5.7496245    1.4318702    0.4269656  0.00   -0.0006282   -0.0001210    0.0002023
h    -5.1770064    2.7766657   -0.6470787  0.00   -0.0006166    0.0017051   -0.0033660
n    -3.4955469    0.5858638   -0.7973461  0.00    0.0046423   -0.0035249   -0.0000191
h    -3.3645113    1.1042004    1.2586619  0.00    0.0007328   -0.0012862    0.0041419
h    -4.1379723   -0.2106933   -0.5655758  0.00   -0.0014485   -0.0029074    0.0006380
h    -3.8201918    0.9954720   -1.7091738  0.00   -0.0017343    0.0012906   -0.0055361
o    -2.6797756    3.9680444    0.5131891  0.00   -0.0053606    0.0146028    0.0071235
o    -1.1765021    2.2616908   -0.2865730  0.00    0.0146696   -0.0093316    0.0080967
h    -1.1546685    2.2882706   -1.3023385  0.00   -0.0002173    0.0011191   -0.0140809
    13
 Energy =       0.0676688412
c    -3.5499347    1.5803090    0.2383718  0.00    0.0034994    0.0051527    0.0034360
c    -2.4481016    2.6288553    0.1010697  0.00   -0.0013112   -0.0039882   -0.0024392
c    -4.9587782    2.1992530    0.4030278  0.00   -0.0050638   -0.0006999    0.0017227
h    -4.9883476    2.8634666    1.3013265  0.00   -0.0010728    0.0028370    0.0039479
h    -5.7236183    1.4047426    0.5343283  0.00   -0.0003484    0.0000724    0.0002849
h    -5.2235169    2.8184413   -0.4883256  0.00   -0.0015201    0.0029238   -0.0045630
n    -3.5560368    0.6521947   -0.9113586  0.00    0.0052218   -0.0095876   -0.0017248
h    -3.2900734    1.0128131    1.1689792  0.00    0.0017030   -0.0025604    0.0057176
h    -4.2080745   -0.1443197   -0.7130696  0.00   -0.0006062   -0.0016227   -0.0000634
h    -3.9124751    1.1413975   -1.7728769  0.00   -0.0025492    0.0030376   -0.0078695
o    -2.6980388    3.9700090    0.3885322  0.00   -0.0019167    0.0069809    0.0035461
o    -1.1583139    2.2471466   -0.2500615  0.00    0.0042862   -0.0031951    0.0027850
h    -1.1017269    2.2225279   -1.2592689  0.00   -0.0003220    0.0006495   -0.0047803
    13
 Energy =       0.0671014122
c    -3.5533025    1.5799192    0.2158030  0.00    0.0017323    0.0037487    0.0025386
c    -2.4519858    2.6293113    0.0879087  0.00   -0.0030664   -0.0099434   -0.0022741
c    -4.9548931    2.1917175    0.4342187  0.00   -0.0033275   -0.0005442    0.0010376
h    -4.9586998    2.8337111    1.3466286  0.00   -0.0006590    0.0017494    0.0023908
h    -5.7162280    1.3939843    0.5656408  0.00   -0.0002068    0.0000549    0.0001799
h    -5.2420191    2.8322887   -0.4324690  0.00   -0.0008685    0.0017924   -0.0027774
n    -3.5862936    0.6930004   -0.9622319  0.00    0.0034236   -0.0061219   -0.0010977
h    -3.2745496    0.9811973    1.1184140  0.00    0.0010911   -0.0015907    0.0036025
h    -4.2450421   -0.1019316   -0.7816482  0.00   -0.0004332   -0.0010961   -0.0000333
h    -3.9504130    1.2155732   -1.7986372  0.00   -0.0016626    0.0019504   -0.0050466
o    -2.7389937    3.9923839    0.2297791  0.00   -0.0065088    0.0165244    0.0041653
o    -1.1351393    2.2323767   -0.1403352  0.00    0.0096085   -0.0059566    0.0093197
h    -1.0094770    2.1233050   -1.1423970  0.00    0.0008774   -0.0005671   -0.0120051
    13
 Energy =       0.0663459237
c    -3.5471292    1.5642581    0.1754533  0.00    0.0025371    0.0059827    0.0039964
c    -2.4479641    2.6174811    0.0710299  0.00   -0.0002804   -0.0054465   -0.0013443
c    -4.9302139    2.1630357    0.5224529  0.00   -0.0042690   -0.0008474    0.0020856
h    -4.8738032    2.7446374    1.4745740  0.00   -0.0005325    0.0025619    0.0040432
h    -5.6855969    1.3587251    0.6478421  0.00   -0.0001770   -0.0000159    0.0002761
h    -5.2686702    2.8605165   -0.2820903  0.00   -0.0018007    0.0031619   -0.0038547
n    -3.6496291    0.7754486   -1.0696770  0.00    0.0049396   -0.0104880   -0.0033119
h    -3.2231081    0.8912766    1.0110937  0.00    0.0021412   -0.0033642    0.0051679
h    -4.3190718   -0.0184473   -0.9260443  0.00   -0.0006920   -0.0016220   -0.0002602
h    -4.0377615    1.3743263   -1.8448565  0.00   -0.0030376    0.0043484   -0.0076364
o    -2.7507987    3.9788239    0.1133999  0.00   -0.0034865    0.0087026    0.0021550
o    -1.1233110    2.2252010   -0.0834055  0.00    0.0043456   -0.0027456    0.0046125
h    -0.9599791    2.0615540   -1.0690977  0.00    0.0003123   -0.0002281   -0.0059292
    13
 Energy =       0.0657494016
c    -3.5475881    1.5629114    0.1499110  0.00    0.0008682    0.0031155    0.0016741
c    -2.4545040    2.6218699    0.0530898  0.00   -0.0011117   -0.0091501    0.0001293
c    -4.9180070    2.1444848    0.5560759  0.00   -0.0022485   -0.0005138    0.0011818
h    -4.8331159    2.6982439    1.5195871  0.00   -0.0002622    0.0012105    0.0018035
h    -5.6673676    1.3345186    0.6810877  0.00   -0.0001125    0.0000038    0.0001578
h    -5.2819152    2.8618069   -0.2159933  0.00   -0.0008102    0.0014858   -0.0018771
n    -3.6830683    0.8220620   -1.1164635  0.00    0.0025936   -0.0047691   -0.0014490
h    -3.2025993    0.8615183    0.9489311  0.00    0.0010138   -0.0015637    0.0024847
h    -4.3620373    0.0339656   -0.9894609  0.00   -0.0003758   -0.0008206   -0.0001339
h    -4.0756608    1.4533451   -1.8594591  0.00   -0.0014316    0.0019654   -0.0036106
o    -2.7769709    3.9791497   -0.0453532  0.00   -0.0061331    0.0140967    0.0004097
o    -1.1175742    2.2358256    0.0091952  0.00    0.0062687   -0.0030796    0.0098023
h    -0.8966280    1.9871350   -0.9504735  0.00    0.0017413   -0.0019806   -0.0105726
    13
 Energy =       0.0652416641
c    -3.5421996    1.5499481    0.1063190  0.00    0.0025603    0.0043328    0.0032931
c    -2.4547078    2.6150835    0.0273987  0.00   -0.0002368   -0.0020604    0.0002622
c    -4.8838828    2.1043438    0.6357288  0.00   -0.0032035   -0.0012766    0.0021396
h    -4.7396564    2.5871522    1.6322788  0.00   -0.0000743    0.0020800    0.0041571
h    -5.6281971    1.2875249    0.7463326  0.00   -0.0000665   -0.0002024    0.0002381
h    -5.2913721    2.8766721   -0.0616108  0.00   -0.0021238    0.0034280   -0.0031172
n    -3.7532848    0.9092934   -1.2064344  0.00    0.0035788   -0.0086073   -0.0042382
h    -3.1560304    0.7866041    0.8293159  0.00    0.0021550   -0.0034063    0.0037581
h    -4.4447420    0.1279012   -1.1083306  0.00   -0.0004951   -0.0010597   -0.0004335
h    -4.1652399    1.6061774   -1.8802524  0.00   -0.0028379    0.0045197   -0.0056500
o    -2.7809714    3.9564687   -0.1519052  0.00   -0.0018425    0.0038691    0.0001055
o    -1.1167373    2.2438800    0.0518932  0.00    0.0021365   -0.0010514    0.0031596
h    -0.8600152    1.9457877   -0.8800591  0.00    0.0004499   -0.0005655   -0.0036743
    13
 Energy =       0.0649688030
c    -3.5438914    1.5511224    0.0866527  0.00    0.0003243    0.0006342    0.0003114
c    -2.4637398    2.6229010    0.0055274  0.00   -0.0025966   -0.0036291    0.0009749
c    -4.8742226    2.0911418    0.6449177  0.00   -0.0006168   -0.0002754    0.0003860
h    -4.7145147    2.5543382    1.6443149  0.00   -0.0000581    0.0003994    0.0006379
h    -5.6166012    1.2722052    0.7519584  0.00   -0.0000082   -0.0000302    0.0000355
h    -5.2913118    2.8728910   -0.0298130  0.00   -0.0003188    0.0005212   -0.0005890
n    -3.7759463    0.9321825   -1.2270875  0.00    0.0007469   -0.0012313   -0.0005353
h    -3.1467317    0.7799336    0.7885384  0.00    0.0002942   -0.0004750    0.0006697
h    -4.4736044    0.1565934   -1.1317591  0.00   -0.0000961   -0.0001651   -0.0000573
h    -4.1879467    1.6406921   -1.8828275  0.00   -0.0004042    0.0005948   -0.0008835
o    -2.7943428    3.9462060   -0.2834566  0.00   -0.0036176    0.0072565   -0.0014616
o    -1.1239783    2.2704292    0.1333466  0.00    0.0041952   -0.0010775    0.0076696
h    -0.8102049    1.9062006   -0.7596379  0.00    0.0021558   -0.0025226   -0.0071584
    13
 Energy =       0.0648569063
c    -3.5409518    1.5442492    0.0602421  0.00    0.0014465    0.0012234    0.0013195
c    -2.4615601    2.6165190   -0.0211887  0.00   -0.0002957   -0.0002930    0.0001873
c    -4.8450012    2.0678334    0.6943288  0.00   -0.0013767   -0.0006713    0.0006943
h    -4.6427217    2.4854629    1.7073137  0.00    0.0001281    0.0007647    0.0018860
h    -5.5885160    1.2490834    0.7948636  0.00   -0.0000164   -0.0000581    0.0000467
h    -5.2835785    2.8812317    0.0705917  0.00   -0.0009852    0.0014510   -0.0010900
n    -3.8294635    0.9803873   -1.2685360  0.00    0.0009582   -0.0030935   -0.0019772
h    -3.1196590    0.7427079    0.7140066  0.00    0.0009125   -0.0012367    0.0012286
h    -4.5326164    0.2092418   -1.1784725  0.00   -0.0000880   -0.0001649   -0.0001888
h    -4.2572366    1.7200888   -1.8798806  0.00   -0.0011201    0.0017112   -0.0018635
o    -2.7895929    3.9325111   -0.3260508  0.00   -0.0004394    0.0008970   -0.0001660
o    -1.1252834    2.2721741    0.1263798  0.00    0.0006356   -0.0002404    0.0010352
h    -0.8008555    1.8953464   -0.7529235  0.00    0.0002407   -0.0002893   -0.0011120
    13
 Energy =       0.0648239202
c    -3.5420536    1.5445127    0.0515888  0.00    0.0000189   -0.0000055   -0.0000092
c    -2.4656368    2.6195679   -0.0313994  0.00   -0.0007655   -0.0003330    0.0001072
c    -4.8410804    2.0629226    0.6944947  0.00   -0.0000299   -0.0000170    0.0000138
h    -4.6333717    2.4734055    1.7072587  0.00   -0.0000077    0.0000245    0.0000280
h    -5.5845667    1.2440140    0.7937833  0.00    0.0000011   -0.0000016   -0.0000005
h    -5.2814051    2.8791811    0.0790363  0.00   -0.0000129    0.0000190   -0.0000336
n    -3.8379206    0.9865648   -1.2755715  0.00    0.0000451   -0.0000341   -0.0000149
h    -3.1175889    0.7413918    0.6983183  0.00    0.0000012   -0.0000142    0.0000364
h    -4.5427697    0.2170954   -1.1851927  0.00   -0.0000044   -0.0000028   -0.0000007
h    -4.2653574    1.7289711   -1.8812559  0.00   -0.0000084    0.0000127   -0.0000263
o    -2.7927526    3.9253621   -0.3785070  0.00   -0.0005665    0.0010241   -0.0002981
o    -1.1319248    2.2874467    0.1631619  0.00    0.0008531   -0.0001315    0.0014543
h    -0.7806083    1.8864012   -0.6950412  0.00    0.0004758   -0.0005405   -0.0012564
    13
 Energy =       0.0648210367
c    -3.5415406    1.5429865    0.0453127  0.00    0.0000968    0.0000668    0.0000837
c    -2.4647423    2.6175623   -0.0386038  0.00    0.0000094    0.0000057    0.0000048
c    -4.8328291    2.0573799    0.7069150  0.00   -0.0000860   -0.0000382    0.0000377
h    -4.6138232    2.4568425    1.7217922  0.00    0.0000129    0.0000416    0.0001147
h    -5.5769790    1.2389765    0.8054208  0.00   -0.0000020   -0.0000018    0.0000018
h    -5.2778240    2.8808602    0.1044177  0.00   -0.0000603    0.0000848   -0.0000572
n    -3.8523194    0.9983245   -1.2840761  0.00    0.0000447   -0.0001806   -0.0001290
h    -3.1116314    0.7329049    0.6797716  0.00    0.0000572   -0.0000718    0.0000665
h    -4.5583595    0.2299280   -1.1939598  0.00   -0.0000049   -0.0000067   -0.0000115