    27
 Energy =       0.2908368350
c    -1.4235396    2.6054793   -0.0667700  0.00   -0.0462293    0.0383003    0.0028951
c    -1.3072796    1.2134697   -0.1072300  0.00   -0.0852060   -0.0325924    0.0021267
c    -0.0178900    0.6711998   -0.1697000  0.00   -0.0887114   -0.1879157   -0.0016004
c    -0.2940599    3.4190890   -0.0891300  0.00   -0.0230748    0.0690621    0.0030973
c     0.9872197    2.8590292   -0.1560400  0.00    0.0104955    0.0642455    0.0012641
c     1.1340797    1.4562096   -0.1970299  0.00    0.0531982    0.0516487    0.0016802
n     0.3879399   -0.6395298   -0.2140799  0.00    0.1424777    0.1098668   -0.0026039
c     2.2666594    0.5727398   -0.2659299  0.00    0.1479854   -0.0620517   -0.0107433
c     1.7555995   -0.7123598   -0.2706899  0.00   -0.0844055   -0.1029430    0.0169877
h    -0.2400399   -1.4313496   -0.2047299  0.00    0.0368122    0.0478339   -0.0008074
c     3.7030089    1.0223397   -0.3320099  0.00   -0.0252895   -0.0189128    0.0149543
c     4.7465686   -0.0024900    0.1378100  0.00   -0.0530152   -0.0293311   -0.1282204
h     3.7978489    1.9290294    0.2803699  0.00   -0.0076804   -0.0091097   -0.0126907
h     3.9233889    1.3348996   -1.3618196  0.00   -0.0063374    0.0006815    0.0121418
c     4.2682788   -0.6309508    1.4598596  0.00   -0.0520417    0.1703628    0.3576912
n     6.1061283    0.5956748    0.3870399  0.00    0.0968019   -0.0270026    0.0636511
h     4.8578986   -0.8184518   -0.5859768  0.00    0.0155804    0.0133464    0.0220935
h     6.3010282    0.4926839    1.3882896  0.00   -0.0434244   -0.0235985   -0.0368795
h     6.7998681   -0.0124192   -0.0622002  0.00   -0.0295973    0.0149288    0.0165580
h    -2.4108593    3.0588691   -0.0157800  0.00   -0.0008380    0.0002591   -0.0000664
h    -2.1896094    0.5822398   -0.0890100  0.00   -0.0036589    0.0037652   -0.0000529
h    -0.4052699    4.5000487   -0.0535400  0.00    0.0008253    0.0002439    0.0001409
h     1.8590495    3.5066790   -0.1715100  0.00   -0.0005889    0.0026520    0.0004437
h     2.2327294   -1.6813195   -0.3062999  0.00   -0.0252214   -0.0151721    0.0300073
o     4.1136388   -0.0362250    2.5135593  0.00    0.0486744   -0.1415351   -0.2551835
o     4.0295989   -1.9621694    1.3133496  0.00    0.0109957    0.0328863   -0.0456877
h     3.0647291   -2.0733294    1.5165596  0.00    0.0114735    0.0300814   -0.0511970
    27
 Energy =       0.2711189462
c    -1.4522875    2.5291082   -0.0643730  0.00   -0.0417720    0.0346796    0.0026350
c    -1.3195818    1.1414167   -0.1058309  0.00   -0.0770927   -0.0294765    0.0019675
c    -0.0281940    0.6149764   -0.1605358  0.00   -0.0801419   -0.1695379   -0.0010288
c    -0.3340678    3.3542180   -0.0825207  0.00   -0.0207895    0.0625007    0.0028156
c     0.9495718    2.8094752   -0.1440316  0.00    0.0097030    0.0580501    0.0011278
c     1.1077775    1.4133300   -0.1808643  0.00    0.0478807    0.0470837    0.0015624
n     0.3917159   -0.6975613   -0.2222719  0.00    0.1266959    0.0996127   -0.0031761
c     2.2496226    0.5580288   -0.2376256  0.00    0.1332337   -0.0560409   -0.0096664
c     1.7693531   -0.7360487   -0.2242681  0.00   -0.0747913   -0.0928041    0.0160299
h    -0.2204169   -1.5065070   -0.2412949  0.00    0.0326362    0.0423283   -0.0008892
c     3.6744038    1.0488025   -0.3297024  0.00   -0.0230678   -0.0161063    0.0132900
c     4.7620020    0.0567946    0.1118424  0.00   -0.0490538   -0.0275499   -0.1163833
h     3.7575035    1.9562577    0.2860787  0.00   -0.0069987   -0.0080585   -0.0115030
h     3.8645739    1.3727324   -1.3639447  0.00   -0.0056396    0.0008738    0.0105042
c     4.3358600   -0.5832652    1.4412612  0.00   -0.0474382    0.1524814    0.3246657
n     6.0986878    0.7111618    0.3195453  0.00    0.0873650   -0.0218735    0.0570269
h     4.8800304   -0.7596115   -0.6133390  0.00    0.0139855    0.0118189    0.0200018
h     6.3335025    0.6324746    1.3169654  0.00   -0.0382617   -0.0212821   -0.0318322
h     6.8114320    0.1463339   -0.1628965  0.00   -0.0243899    0.0123363    0.0140511
h    -2.4451025    2.9710032   -0.0187126  0.00   -0.0008472    0.0002810   -0.0000537
h    -2.1939354    0.4989748   -0.0965722  0.00   -0.0034251    0.0033352   -0.0000462
h    -0.4576518    4.4339526   -0.0482366  0.00    0.0007447    0.0003029    0.0001306
h     1.8148862    3.4658705   -0.1559187  0.00   -0.0004262    0.0023901    0.0003986
h     2.2792078   -1.6912978   -0.2143411  0.00   -0.0209073   -0.0153772    0.0284516
o     4.1815714    0.0295747    2.5044962  0.00    0.0434979   -0.1276125   -0.2306788
o     4.0853860   -1.9149833    1.3075989  0.00    0.0270094    0.0317585   -0.0497844
h     3.1508629   -2.0361255    1.6568541  0.00   -0.0077091    0.0258863   -0.0396165
    27
 Energy =       0.2291306272
c    -1.4277426    2.5115506   -0.1179903  0.00   -0.0281395    0.0235109    0.0018544
c    -1.2921393    1.1343938   -0.1564863  0.00   -0.0524567   -0.0200599    0.0014668
c    -0.0149442    0.6131763   -0.2084039  0.00   -0.0544219   -0.1150105   -0.0011765
c    -0.3150066    3.3317324   -0.1313684  0.00   -0.0142194    0.0423837    0.0019758
c     0.9582846    2.7886004   -0.1833680  0.00    0.0068126    0.0395050    0.0007790
c     1.1028687    1.4070687   -0.2202301  0.00    0.0315394    0.0325349    0.0011202
n     0.3877101   -0.7190537   -0.2415679  0.00    0.0853738    0.0668682   -0.0014233
c     2.2342942    0.5825727   -0.2529820  0.00    0.0895007   -0.0397557   -0.0071228
c     1.7829901   -0.7114720   -0.2464856  0.00   -0.0509322   -0.0622169    0.0111372
h    -0.2203402   -1.5436590   -0.2509204  0.00    0.0223183    0.0286301   -0.0004098
c     3.6637489    1.0877286   -0.2606423  0.00   -0.0150808   -0.0139344    0.0091212
c     4.7344119    0.0595624    0.1423315  0.00   -0.0341749   -0.0196272   -0.0783480
h     3.7275944    1.9414166    0.4448318  0.00   -0.0039679   -0.0018342   -0.0041037
h     3.8956863    1.4967869   -1.2642935  0.00   -0.0027377    0.0028130    0.0030684
c     4.3243054   -0.6084090    1.4551959  0.00   -0.0318537    0.1044414    0.2208869
n     6.0667147    0.7124012    0.3129872  0.00    0.0581778   -0.0139182    0.0389358
h     4.8133147   -0.7417364   -0.6133729  0.00    0.0094374    0.0071182    0.0131994
h     6.3448714    0.6443288    1.3078874  0.00   -0.0263726   -0.0151812   -0.0203221
h     6.7727616    0.1634302   -0.2098386  0.00   -0.0156311    0.0078104    0.0085972
h    -2.4210088    2.9523223   -0.0753392  0.00   -0.0005802    0.0001955   -0.0000323
h    -2.1628783    0.4873367   -0.1438372  0.00   -0.0023367    0.0022617   -0.0000064
h    -0.4382279    4.4115512   -0.0978511  0.00    0.0005051    0.0002051    0.0000919
h     1.8272352    3.4401432   -0.1879534  0.00   -0.0002696    0.0016050    0.0002531
h     2.3444511   -1.6380150   -0.2150148  0.00   -0.0111385   -0.0117279    0.0222043
o     4.1680373    0.0335345    2.5578837  0.00    0.0298877   -0.0865584   -0.1577712
o     4.0462415   -1.9447190    1.3477253  0.00    0.0248887    0.0225484   -0.0378426
h     3.1434795   -2.0734871    1.7864649  0.00   -0.0141281    0.0173928   -0.0261329
    27
 Energy =       0.2067576516
c    -1.4190863    2.4850195   -0.1580415  0.00   -0.0182334    0.0151553    0.0012990
c    -1.2786920    1.1162061   -0.2088378  0.00   -0.0341930   -0.0131233    0.0012622
c    -0.0102348    0.6010936   -0.2436777  0.00   -0.0350891   -0.0744494    0.0004800
c    -0.3112382    3.3031853   -0.1454346  0.00   -0.0091383    0.0275846    0.0012370
c     0.9557909    2.7633348   -0.1794599  0.00    0.0047505    0.0256582    0.0003493
c     1.0932882    1.3927635   -0.2252533  0.00    0.0201830    0.0216305    0.0006176
n     0.3816322   -0.7435095   -0.3038968  0.00    0.0535226    0.0432478   -0.0027253
c     2.2175753    0.5924184   -0.2384036  0.00    0.0588061   -0.0257650   -0.0050096
c     1.7898422   -0.7024641   -0.2548997  0.00   -0.0316611   -0.0400715    0.0090202
h    -0.2238801   -1.5787294   -0.3521213  0.00    0.0138508    0.0175777   -0.0007567
c     3.6453892    1.1099498   -0.2133421  0.00   -0.0095836   -0.0091530    0.0057840
c     4.7173155    0.0758454    0.1702948  0.00   -0.0232184   -0.0130609   -0.0508925
h     3.7008134    1.9444239    0.5186462  0.00   -0.0025743   -0.0007977   -0.0022992
h     3.8883344    1.5422920   -1.2061387  0.00   -0.0016116    0.0020094    0.0016982
c     4.3322829   -0.6051617    1.4792929  0.00   -0.0206191    0.0680560    0.1435577
n     6.0400419    0.7444078    0.2961440  0.00    0.0360356   -0.0076290    0.0248809
h     4.7726490   -0.7213745   -0.5978798  0.00    0.0060290    0.0043649    0.0084540
h     6.3699342    0.6820628    1.2818526  0.00   -0.0167781   -0.0104203   -0.0113230
h     6.7391854    0.2236153   -0.2733119  0.00   -0.0083517    0.0042200    0.0041958
h    -2.4139591    2.9231531   -0.1288861  0.00   -0.0004932    0.0001176   -0.0000077
h    -2.1462565    0.4645408   -0.2223505  0.00   -0.0018181    0.0012615   -0.0000073
h    -0.4360350    4.3826098   -0.1044847  0.00    0.0003648    0.0001706    0.0000556
h     1.8259130    3.4133127   -0.1624804  0.00    0.0000733    0.0011003    0.0001545
h     2.3869239   -1.6076723   -0.2061158  0.00   -0.0052930   -0.0085770    0.0174035
o     4.1772019    0.0653927    2.6081496  0.00    0.0196494   -0.0556950   -0.1028947
o     4.0498714   -1.9488282    1.4027798  0.00    0.0258974    0.0162206   -0.0305669
h     3.2021108   -2.0988014    1.9452180  0.00   -0.0205064    0.0103673   -0.0139664
    27
 Energy =       0.1948715213
c    -1.3968717    2.5004325   -0.2039634  0.00   -0.0119279    0.0096232    0.0008987
c    -1.2626808    1.1363690   -0.2636719  0.00   -0.0222202   -0.0085691    0.0010083
c    -0.0038127    0.6159757   -0.2837148  0.00   -0.0226317   -0.0482000    0.0006429
c    -0.2865052    3.3088275   -0.1677965  0.00   -0.0058864    0.0179103    0.0007717
c     0.9726016    2.7616125   -0.1858043  0.00    0.0032299    0.0166687    0.0001261
c     1.0960948    1.3971083   -0.2405928  0.00    0.0130804    0.0140999    0.0002372
n     0.3704254   -0.7392256   -0.3504855  0.00    0.0344903    0.0278748   -0.0020419
c     2.2088886    0.6026355   -0.2420440  0.00    0.0381131   -0.0163037   -0.0034932
c     1.7861742   -0.6886548   -0.2883371  0.00   -0.0205265   -0.0263551    0.0063905
h    -0.2408795   -1.5750384   -0.4139399  0.00    0.0088378    0.0112228   -0.0005885
c     3.6407424    1.1121591   -0.1826814  0.00   -0.0059258   -0.0058058    0.0038775
c     4.6980599    0.0650105    0.2092235  0.00   -0.0146808   -0.0086053   -0.0326894
h     3.6914574    1.9373983    0.5613933  0.00   -0.0016060   -0.0004544   -0.0013832
h     3.9067061    1.5499717   -1.1680093  0.00   -0.0009548    0.0014243    0.0008569
c     4.3007777   -0.6267578    1.5072563  0.00   -0.0137044    0.0442709    0.0930456
n     6.0181924    0.7321486    0.3290991  0.00    0.0216719   -0.0038411    0.0161790
h     4.7451663   -0.7284275   -0.5673097  0.00    0.0037957    0.0027542    0.0054395
h     6.3770325    0.6461703    1.3068450  0.00   -0.0106028   -0.0071489   -0.0062146
h     6.7096347    0.2387032   -0.2786000  0.00   -0.0042590    0.0019325    0.0015224
h    -2.3895242    2.9440836   -0.1865423  0.00   -0.0004239    0.0000665    0.0000019
h    -2.1323183    0.4881148   -0.2959674  0.00   -0.0013301    0.0006989   -0.0000023
h    -0.4046392    4.3887744   -0.1203566  0.00    0.0002536    0.0001617    0.0000342
h     1.8476643    3.4042661   -0.1504433  0.00    0.0002359    0.0008106    0.0000969
h     2.3987871   -1.5848632   -0.2495380  0.00   -0.0025629   -0.0059561    0.0129727
o     4.1485916    0.0541245    2.6587427  0.00    0.0127003   -0.0358834   -0.0665841
o     4.0040144   -1.9726905    1.4406287  0.00    0.0306893    0.0128372   -0.0320784
h     3.2429336   -2.1491423    2.1039711  0.00   -0.0278549    0.0047663    0.0009735
    27
 Energy =       0.1882734384
c    -1.4005762    2.4964134   -0.2236463  0.00   -0.0074618    0.0059570    0.0006080
c    -1.2650124    1.1357481   -0.2819679  0.00   -0.0139092   -0.0053065    0.0007137
c    -0.0107071    0.6165332   -0.2886154  0.00   -0.0141026   -0.0300587    0.0003968
c    -0.2920732    3.3026121   -0.1752153  0.00   -0.0036763    0.0111737    0.0004989
c     0.9634383    2.7552388   -0.1801640  0.00    0.0021090    0.0103606    0.0000521
c     1.0829785    1.3952262   -0.2341298  0.00    0.0081682    0.0088368    0.0000603
n     0.3580984   -0.7449055   -0.3483759  0.00    0.0214142    0.0173345   -0.0012437
c     2.1913414    0.6102001   -0.2281926  0.00    0.0238707   -0.0100724   -0.0022252
c     1.7792595   -0.6803988   -0.2877541  0.00   -0.0127257   -0.0165031    0.0041967
h    -0.2529243   -1.5847301   -0.4125452  0.00    0.0055328    0.0069868   -0.0003526
c     3.6221396    1.1235079   -0.1609370  0.00   -0.0038223   -0.0036538    0.0023247
c     4.6838775    0.0732131    0.2115518  0.00   -0.0093587   -0.0053407   -0.0202839
h     3.6734223    1.9369073    0.5970767  0.00   -0.0010234   -0.0001566   -0.0007574
h     3.8859777    1.5751926   -1.1410334  0.00   -0.0005606    0.0009390    0.0004390
c     4.3113272   -0.6333992    1.5087249  0.00   -0.0084046    0.0288259    0.0577199
n     5.9997767    0.7487732    0.3021930  0.00    0.0099792   -0.0000470    0.0098000
h     4.7152201   -0.7149207   -0.5739355  0.00    0.0022954    0.0016149    0.0032028
h     6.4095655    0.6304803    1.2602706  0.00   -0.0054668   -0.0050475   -0.0009435
h     6.6711078    0.2951575   -0.3625191  0.00    0.0001600   -0.0004540   -0.0017682
h    -2.3932958    2.9400363   -0.2165260  0.00   -0.0003198    0.0000523    0.0000058
h    -2.1332087    0.4862864   -0.3227181  0.00   -0.0008663    0.0004224    0.0000046
h    -0.4100259    4.3826097   -0.1288944  0.00    0.0001541    0.0001016    0.0000213
h     1.8390080    3.3965189   -0.1365373  0.00    0.0001917    0.0004997    0.0000545
h     2.4081108   -1.5666358   -0.2601172  0.00   -0.0009170   -0.0039756    0.0090021
o     4.1543887    0.0536925    2.6754339  0.00    0.0079007   -0.0222100   -0.0414912
o     4.0538125   -1.9924694    1.4603102  0.00    0.0313389    0.0111545   -0.0339308
h     3.4016867   -2.2178020    2.2256251  0.00   -0.0304996   -0.0014338    0.0138954
    27
 Energy =       0.1871192348
c    -1.4256844    2.4708915   -0.1975415  0.00   -0.0065079    0.0051552    0.0005234
c    -1.2817857    1.1109679   -0.2369195  0.00   -0.0119768   -0.0047316    0.0005833
c    -0.0253167    0.5998709   -0.2455890  0.00   -0.0121469   -0.0257209    0.0002601
c    -0.3222704    3.2843250   -0.1691552  0.00   -0.0030323    0.0097387    0.0004505
c     0.9357338    2.7448126   -0.1765997  0.00    0.0018893    0.0090543    0.0000690
c     1.0623884    1.3858514   -0.2121413  0.00    0.0070655    0.0076366    0.0000583
n     0.3506591   -0.7617319   -0.2834752  0.00    0.0181578    0.0146516   -0.0009907
c     2.1750997    0.6108544   -0.2068841  0.00    0.0203779   -0.0084363   -0.0018472
c     1.7735094   -0.6834030   -0.2441155  0.00   -0.0108841   -0.0142642    0.0035445
h    -0.2554744   -1.6077208   -0.3254230  0.00    0.0044897    0.0056213   -0.0002981
c     3.6020647    1.1388057   -0.1651483  0.00   -0.0036050   -0.0028891    0.0020899
c     4.6859866    0.0980299    0.1711593  0.00   -0.0081652   -0.0042895   -0.0175310
h     3.6604527    1.9448979    0.6005173  0.00   -0.0009546   -0.0000670   -0.0005673
h     3.8388584    1.6039478   -1.1464464  0.00   -0.0004066    0.0009912   -0.0000266
c     4.3611318   -0.6223226    1.4742493  0.00   -0.0067780    0.0263702    0.0497063
n     5.9949404    0.7905511    0.2254851  0.00    0.0066982    0.0016101    0.0078747
h     4.7025834   -0.6851058   -0.6205514  0.00    0.0020291    0.0013692    0.0024792
h     6.4500858    0.6501838    1.1615218  0.00   -0.0036797   -0.0046904    0.0013856
h     6.6441330    0.3690628   -0.4833645  0.00    0.0020871   -0.0013632   -0.0033217
h    -2.4211293    2.9083102   -0.1888478  0.00   -0.0003040    0.0000492    0.0000046
h    -2.1459309    0.4550843   -0.2602442  0.00   -0.0008752    0.0002235   -0.0000015
h    -0.4465410    4.3642507   -0.1373699  0.00    0.0001562    0.0002234    0.0000238
h     1.8079198    3.3918530   -0.1496638  0.00    0.0002900    0.0005472    0.0000513
h     2.4118233   -1.5629331   -0.2150823  0.00   -0.0008569   -0.0034873    0.0077273
o     4.1840076    0.0641954    2.6431600  0.00    0.0067900   -0.0185757   -0.0354831
o     4.1690285   -1.9949892    1.4380335  0.00    0.0280596    0.0075729   -0.0304867
h     3.5604398   -2.2494538    2.2277981  0.00   -0.0279176   -0.0022996    0.0137221
    27
 Energy =       0.1845245523
c    -1.4458849    2.4400875   -0.1965222  0.00   -0.0046495    0.0031862    0.0003295
c    -1.2846443    1.0852532   -0.2818617  0.00   -0.0075384   -0.0040245    0.0004591
c    -0.0246466    0.5899290   -0.2802395  0.00   -0.0076931   -0.0152494    0.0006694
c    -0.3535410    3.2641986   -0.1139012  0.00   -0.0009995    0.0068434    0.0002459
c     0.9088321    2.7396234   -0.1113210  0.00    0.0015237    0.0065793   -0.0000269
c     1.0497778    1.3859954   -0.1928758  0.00    0.0048279    0.0051573   -0.0000450
n     0.3653889   -0.7688888   -0.3709712  0.00    0.0108942    0.0076446   -0.0009665
c     2.1689575    0.6292550   -0.1958711  0.00    0.0125847   -0.0034209   -0.0009012
c     1.7893771   -0.6672387   -0.3020051  0.00   -0.0071181   -0.0096628    0.0024051
h    -0.2293907   -1.6226456   -0.4624915  0.00    0.0015721    0.0015289   -0.0003817
c     3.5884393    1.1741388   -0.1067146  0.00   -0.0018837   -0.0018542    0.0013031
c     4.6826117    0.1318218    0.1925161  0.00   -0.0045818   -0.0027892   -0.0105358
h     3.6264582    1.9432733    0.6998548  0.00   -0.0005729    0.0012012    0.0007946
h     3.8325266    1.6894354   -1.0624783  0.00    0.0001737    0.0013632   -0.0013386
c     4.3665235   -0.6495816    1.4636496  0.00   -0.0036460    0.0168465    0.0290698
n     5.9789346    0.8435591    0.2714302  0.00   -0.0085691    0.0105618    0.0049640
h     4.7096440   -0.6194782   -0.6318443  0.00    0.0012395    0.0000874    0.0005988
h     6.4857034    0.5975551    1.1663944  0.00    0.0023607   -0.0061520    0.0120354
h     6.6015293    0.5278160   -0.5232486  0.00    0.0095604   -0.0057141   -0.0141409
h    -2.4466324    2.8653826   -0.1952059  0.00   -0.0003695   -0.0000223    0.0000324
h    -2.1398150    0.4194285   -0.3506518  0.00   -0.0013558   -0.0007623   -0.0000026
h    -0.4909766    4.3414979   -0.0468360  0.00    0.0002222    0.0008935    0.0000426
h     1.7732143    3.3951922   -0.0425845  0.00    0.0008344    0.0010577    0.0000578
h     2.4470906   -1.5339499   -0.3122481  0.00   -0.0000223   -0.0032028    0.0049950
o     4.1613634   -0.0095658    2.6665716  0.00    0.0035441   -0.0102190   -0.0189570
o     4.2227365   -2.0294354    1.3837543  0.00    0.0222761    0.0042521   -0.0266962
h     3.7031361   -2.3435726    2.2130631  0.00   -0.0226140   -0.0041298    0.0159899
    27
 Energy =       0.1824672428
c    -1.4184801    2.4924629   -0.2167046  0.00   -0.0036470    0.0017109    0.0001333
c    -1.2723369    1.1407178   -0.3519259  0.00   -0.0047580   -0.0036764    0.0002159
c    -0.0208999    0.6290129   -0.3363796  0.00   -0.0047042   -0.0087056    0.0006756
c    -0.3182581    3.2974709   -0.0724676  0.00    0.0004892    0.0051320    0.0002210
c     0.9357000    2.7558867   -0.0574072  0.00    0.0013577    0.0051032    0.0000254
c     1.0595040    1.4055953   -0.1888682  0.00    0.0036010    0.0034736   -0.0000461
n     0.3510645   -0.7323628   -0.4789363  0.00    0.0061190    0.0032520   -0.0008512
c     2.1668970    0.6371465   -0.1995152  0.00    0.0076124    0.0002867   -0.0002959
c     1.7766190   -0.6476752   -0.3783825  0.00   -0.0046015   -0.0067410    0.0013838
h    -0.2531139   -1.5748128   -0.6212446  0.00   -0.0003858   -0.0009992   -0.0005543
c     3.5922056    1.1575965   -0.0668202  0.00   -0.0007243   -0.0006757    0.0008881
c     4.6640214    0.0897561    0.2232842  0.00   -0.0022365   -0.0016052   -0.0053473
h     3.6293919    1.9049037    0.7597079  0.00   -0.0001243    0.0009495    0.0007653
h     3.8616023    1.6921517   -1.0050657  0.00    0.0001599    0.0011255   -0.0012900
c     4.3338512   -0.7005845    1.4851624  0.00   -0.0030512    0.0088694    0.0128436
n     5.9715099    0.7790474    0.3048144  0.00   -0.0062416    0.0072395    0.0028975
h     4.6766086   -0.6517659   -0.6104764  0.00    0.0005528   -0.0001466    0.0001706
h     6.4544766    0.5678542    1.2189714  0.00    0.0019578   -0.0041405    0.0082466
h     6.6055854    0.4265337   -0.4600653  0.00    0.0064864   -0.0034663   -0.0095329
h    -2.4134740    2.9310567   -0.2256111  0.00   -0.0004437   -0.0000749    0.0000045
h    -2.1337121    0.4890423   -0.4715811  0.00   -0.0018167   -0.0014835   -0.0001434
h    -0.4430933    4.3736825    0.0329456  0.00    0.0003427    0.0013985    0.0001074
h     1.8069235    3.3967300    0.0580313  0.00    0.0013725    0.0015295    0.0001456
h     2.4296745   -1.5168509   -0.4299929  0.00    0.0002420   -0.0027604    0.0027864
o     4.2321584   -0.0699358    2.7170284  0.00    0.0025824   -0.0009473   -0.0049512
o     4.1059082   -2.0704649    1.3889525  0.00    0.0161617   -0.0017550   -0.0228550
h     3.6663798   -2.3831088    2.2599079  0.00   -0.0163028   -0.0028925    0.0143569
    27
 Energy =       0.1812906667
c    -1.4038326    2.4854391   -0.3123024  0.00   -0.0024708    0.0006244    0.0000351
c    -1.2534954    1.1368317   -0.4594168  0.00   -0.0030389   -0.0020574    0.0001362
c    -0.0038663    0.6247311   -0.4147583  0.00   -0.0026411   -0.0048948    0.0004067
c    -0.3084870    3.2871302   -0.1280569  0.00    0.0005128    0.0030819    0.0001431
c     0.9439336    2.7450484   -0.0850007  0.00    0.0012035    0.0027998    0.0000172
c     1.0707722    1.3978880   -0.2283890  0.00    0.0023562    0.0019976   -0.0000434
n     0.3707394   -0.7356009   -0.5620931  0.00    0.0027554    0.0018479   -0.0005518
c     2.1772790    0.6313761   -0.2193880  0.00    0.0042790    0.0007249   -0.0001784
c     1.7947632   -0.6492871   -0.4274411  0.00   -0.0023986   -0.0037959    0.0007045
h    -0.2296540   -1.5762002   -0.7291083  0.00   -0.0005282   -0.0009261   -0.0003592
c     3.5999581    1.1484284   -0.0530938  0.00   -0.0012366    0.0000439    0.0004122
c     4.6540728    0.0823075    0.3055830  0.00    0.0000579   -0.0008106   -0.0030878
h     3.6154678    1.9186365    0.7528727  0.00   -0.0002992    0.0009871    0.0009682
h     3.9039824    1.6529325   -0.9976325  0.00    0.0002048    0.0010270   -0.0016395
c     4.2790482   -0.6663831    1.5814253  0.00   -0.0014202    0.0045282    0.0071044
n     5.9625873    0.7662062    0.4031051  0.00   -0.0044076    0.0045120    0.0014254
h     4.6882504   -0.6856792   -0.5041311  0.00    0.0006266   -0.0005250   -0.0006967
h     6.4203802    0.5840064    1.3343561  0.00    0.0017151   -0.0026068    0.0055863
h     6.6143572    0.3902311   -0.3316841  0.00    0.0042274   -0.0021958   -0.0062016
h    -2.3982923    2.9244493   -0.3436194  0.00   -0.0005343   -0.0000523   -0.0000164
h    -2.1108881    0.4872507   -0.6104202  0.00   -0.0014207   -0.0010572   -0.0001144
h    -0.4362185    4.3615682   -0.0135837  0.00    0.0002483    0.0008099    0.0000570
h     1.8113470    3.3840573    0.0609513  0.00    0.0011970    0.0010392    0.0001181
h     2.4537097   -1.5138947   -0.4765281  0.00    0.0003062   -0.0015895    0.0015773
o     4.1584759    0.0031662    2.7934905  0.00    0.0011279    0.0001026   -0.0012802
o     4.0305314   -2.0340170    1.5235642  0.00    0.0096383   -0.0012149   -0.0142467
h     3.6417921   -2.3315367    2.4186610  0.00   -0.0100601   -0.0024003    0.0097244
    27
 Energy =       0.1808374498
c    -1.3907998    2.4704244   -0.4041440  0.00   -0.0016186    0.0001485   -0.0000131
c    -1.2344636    1.1236470   -0.5535823  0.00   -0.0019348   -0.0009946    0.0000664
c     0.0138014    0.6129481   -0.4797446  0.00   -0.0013381   -0.0025915    0.0002190
c    -0.3020129    3.2718643   -0.1891903  0.00    0.0003163    0.0017686    0.0000912
c     0.9493938    2.7313043   -0.1183819  0.00    0.0009783    0.0013702    0.0000232
c     1.0816393    1.3858242   -0.2641945  0.00    0.0014830    0.0010707   -0.0000247
n     0.3931580   -0.7465307   -0.6234532  0.00    0.0009950    0.0009993   -0.0003342
c     2.1884176    0.6217912   -0.2341506  0.00    0.0023472    0.0006037   -0.0000990
c     1.8144695   -0.6570669   -0.4589808  0.00   -0.0010607   -0.0019577    0.0003034
h    -0.2020896   -1.5871151   -0.8069407  0.00   -0.0004243   -0.0006451   -0.0002115
c     3.6079020    1.1385533   -0.0451452  0.00   -0.0016933    0.0003679   -0.0000254
c     4.6441699    0.0804051    0.3848929  0.00    0.0013049   -0.0002588   -0.0017663
h     3.6061961    1.9373564    0.7328626  0.00   -0.0004064    0.0011847    0.0011623
h     3.9419384    1.6061331   -0.9986161  0.00    0.0002501    0.0009834   -0.0018632
c     4.2273668   -0.6172138    1.6772921  0.00   -0.0005990    0.0020929    0.0038603
n     5.9525642    0.7618288    0.4944368  0.00   -0.0024935    0.0025658    0.0005437
h     4.6992472   -0.7195693   -0.3928025  0.00    0.0006724   -0.0009880   -0.0013352
h     6.4172045    0.5540400    1.4152021  0.00    0.0012140   -0.0013030    0.0034111
h     6.5987019    0.4092902   -0.2540276  0.00    0.0024774   -0.0013912   -0.0035367
h    -2.3848251    2.9083289   -0.4580152  0.00   -0.0005470    0.0000056   -0.0000271
h    -2.0865517    0.4739728   -0.7287134  0.00   -0.0010086   -0.0006643   -0.0000867
h    -0.4342582    4.3452452   -0.0729543  0.00    0.0001379    0.0004264    0.0000269
h     1.8114193    3.3709994    0.0507517  0.00    0.0009103    0.0006220    0.0000889
h     2.4784105   -1.5179140   -0.5006694  0.00    0.0002746   -0.0008978    0.0008713
o     4.0964755    0.0959001    2.8647190  0.00    0.0003564    0.0008167    0.0008841
o     3.9567070   -1.9815516    1.6634968  0.00    0.0052399   -0.0015096   -0.0085272
h     3.6025315   -2.2538095    2.5774141  0.00   -0.0058334   -0.0018249    0.0062985
    27
 Energy =       0.1805349810
c    -1.3800425    2.4583811   -0.4697453  0.00   -0.0003115   -0.0004564   -0.0001016
c    -1.2158500    1.1168542   -0.6471731  0.00   -0.0000355   -0.0002539   -0.0000885
c     0.0292496    0.6063780   -0.5457558  0.00    0.0002826    0.0004430   -0.0000161
c    -0.3011498    3.2552194   -0.2009906  0.00    0.0006619    0.0001899    0.0001125
c     0.9478563    2.7152731   -0.1062749  0.00    0.0002243    0.0001021    0.0000562
c     1.0872988    1.3747449   -0.2805926  0.00    0.0003056   -0.0000281    0.0000585
n     0.4145632   -0.7489948   -0.7122548  0.00   -0.0007736   -0.0004404   -0.0000407
c     2.1942848    0.6138102   -0.2437307  0.00   -0.0002765    0.0010656    0.0002437
c     1.8317354   -0.6581554   -0.5136602  0.00    0.0003299    0.0001093   -0.0001554
h    -0.1737609   -1.5861010   -0.9306308  0.00   -0.0004723   -0.0006352   -0.0001071
c     3.6101150    1.1284122   -0.0297218  0.00    0.0001139    0.0002336   -0.0000188
c     4.6272752    0.0769410    0.4496514  0.00    0.0004431    0.0003348    0.0004479
h     3.5971613    1.9440154    0.7279863  0.00   -0.0000337   -0.0000762   -0.0000036
h     3.9702739    1.5705928   -0.9835633  0.00    0.0000020   -0.0000201   -0.0000118
c     4.1846467   -0.5763195    1.7535330  0.00    0.0000685   -0.0006549   -0.0009125
n     5.9373685    0.7532695    0.5599121  0.00    0.0003598   -0.0004669   -0.0004346
h     4.6909321   -0.7473907   -0.2990333  0.00    0.0000507   -0.0001186   -0.0002199
h     6.4122359    0.5266062    1.4678881  0.00   -0.0000960    0.0004150   -0.0005514
h     6.5731770    0.4183944   -0.2009010  0.00   -0.0004384    0.0001863    0.0007831
h    -2.3724726    2.8960108   -0.5440637  0.00   -0.0001260   -0.0000823   -0.0000213
h    -2.0599074    0.4705710   -0.8654541  0.00   -0.0004902   -0.0004118   -0.0001146
h    -0.4393543    4.3249969   -0.0623504  0.00    0.0001246    0.0001909    0.0000408
h     1.8018625    3.3527862    0.1031235  0.00    0.0004489    0.0003359    0.0000815
h     2.5020062   -1.5123085   -0.5715732  0.00    0.0000373   -0.0000874    0.0000168
o     4.0611976    0.1715175    2.9201444  0.00   -0.0002011    0.0003487    0.0007020
o     3.8966130   -1.9351423    1.7806497  0.00    0.0002714    0.0006318   -0.0026225
h     3.6193982   -2.1912762    2.7219427  0.00   -0.0004696   -0.0008549    0.0028773
    27
 Energy =       0.1805284883
c    -1.3784150    2.4544043   -0.4555393  0.00   -0.0000449   -0.0000092   -0.0000062
c    -1.2130477    1.1143062   -0.6420003  0.00   -0.0000155   -0.0000354   -0.0000112
c     0.0330387    0.6044162   -0.5491033  0.00    0.0000265    0.0000619    0.0000002
c    -0.2998166    3.2505319   -0.1865304  0.00    0.0000371    0.0000442    0.0000118
c     0.9502872    2.7114256   -0.1006402  0.00    0.0000351    0.0000225    0.0000081
c     1.0912105    1.3721471   -0.2838094  0.00    0.0000252   -0.0000112   -0.0000001
n     0.4196306   -0.7490486   -0.7264861  0.00   -0.0000543   -0.0000894   -0.0000087
c     2.1994264    0.6116571   -0.2565579  0.00   -0.0000163    0.0000832    0.0000513
c     1.8370842   -0.6585883   -0.5329035  0.00    0.0000380   -0.0000063   -0.0000273
h    -0.1684193   -1.5849948   -0.9480087  0.00   -0.0000503   -0.0000730   -0.0000105
c     3.6165869    1.1244851   -0.0472419  0.00   -0.0000644    0.0000039   -0.0000265
c     4.6272263    0.0750476    0.4501373  0.00    0.0001215    0.0000062    0.0000446
h     3.6063910    1.9510573    0.6985980  0.00   -0.0000211    0.0000969    0.0000846
h     3.9808898    1.5511072   -1.0066943  0.00    0.0000356    0.0000550   -0.0001245
c     4.1736307   -0.5624663    1.7579417  0.00    0.0000107   -0.0000672   -0.0001081