    13
 Energy =       0.1454868190
c    -3.7133889    1.6950595    0.3173519  0.00   -0.0432962    0.0546812    0.1537731
c    -2.4962693    2.6345192    0.2419999  0.00    0.2007020    0.1400715   -0.2919428
c    -4.9565486    2.3924193   -0.2155699  0.00    0.0182318    0.0096718    0.0036172
h    -5.8072983    1.7014095   -0.2223689  0.00    0.0132068    0.0086648   -0.0026628
h    -4.8071186    2.7393792   -1.2437896  0.00   -0.0070777   -0.0050398    0.0183576
h    -5.2375685    3.2516891    0.4029209  0.00   -0.0008245   -0.0143765   -0.0116274
n    -3.4097890    0.4519539   -0.4549189  0.00    0.0248735   -0.0705580   -0.0150026
h    -3.8575589    1.4177196    1.3669296  0.00    0.1145288    0.0877692    0.0387245
h    -3.2072391   -0.2948399    0.2179739  0.00   -0.0168120    0.0302334   -0.0188953
h    -4.2689788    0.1396900   -0.9176007  0.00    0.0230328    0.0226337    0.0254429
o    -1.9513094    3.0041591   -0.7839488  0.00   -0.1319027   -0.0959236    0.2473930
o    -2.1005994    3.0267291    1.4825496  0.00   -0.0707655   -0.0559625    0.0048199
h    -2.6645092    2.5096893    2.1108994  0.00   -0.1238971   -0.1118651   -0.1519973
    13
 Energy =       0.0995375603
c    -3.7050980    1.6870429    0.3064172  0.00   -0.0083348    0.0249974    0.0652450
c    -2.5587987    2.6899114    0.2806435  0.00    0.0676961    0.0514228   -0.1003072
c    -5.0179093    2.3308211   -0.1619663  0.00    0.0061455    0.0044833    0.0018943
h    -5.8277616    1.5741136   -0.1886147  0.00    0.0027639    0.0004051   -0.0003346
h    -4.9025388    2.7662310   -1.1782508  0.00   -0.0017047    0.0012490    0.0029819
h    -5.3360724    3.1370946    0.5327181  0.00   -0.0028425   -0.0021757   -0.0009319
n    -3.3682364    0.5016018   -0.5203564  0.00    0.0140738   -0.0187811   -0.0048599
h    -3.8111311    1.3783207    1.3647464  0.00    0.0605130    0.0493592    0.0259695
h    -3.1004924   -0.2942208    0.0990671  0.00   -0.0046866    0.0042836   -0.0038112
h    -4.1863260    0.1684233   -1.0763539  0.00    0.0038598    0.0030569    0.0034811
o    -1.9506432    3.0538568   -0.8455451  0.00   -0.0446817   -0.0398758    0.0848704
o    -2.1601102    3.1738858    1.5058146  0.00   -0.0081582    0.0201156   -0.0243129
h    -2.5530582    2.5024948    2.1841086  0.00   -0.0846436   -0.0985404   -0.0498845
    13
 Energy =       0.0910736723
c    -3.7012017    1.6611040    0.2919202  0.00   -0.0024553    0.0212508    0.0486894
c    -2.5008378    2.6023031    0.2717797  0.00    0.0440749    0.0349399   -0.0635692
c    -5.0030306    2.4047901   -0.0725928  0.00    0.0022849    0.0048424   -0.0032702
h    -5.8721738    1.7082257   -0.0360446  0.00   -0.0031157   -0.0022564   -0.0003403
h    -4.9307325    2.8307753   -1.0985925  0.00   -0.0008731    0.0005265    0.0006597
h    -5.2014126    3.2370244    0.6471894  0.00   -0.0032270    0.0039339    0.0042909
n    -3.4795802    0.5041438   -0.6161796  0.00    0.0167788   -0.0129255   -0.0081034
h    -3.7676255    1.3022163    1.3429357  0.00    0.0439336    0.0351222    0.0215924
h    -3.2592455   -0.3558554   -0.0562471  0.00   -0.0012010   -0.0046057    0.0008668
h    -4.3347027    0.2743443   -1.1824075  0.00   -0.0050191   -0.0010117   -0.0038290
o    -1.8657087    2.9332801   -0.8754579  0.00   -0.0275309   -0.0260722    0.0541744
o    -2.0653608    3.0873833    1.4898795  0.00   -0.0028041    0.0173819   -0.0180706
h    -2.4965636    2.4798420    2.1962459  0.00   -0.0608461   -0.0711261   -0.0330907
    13
 Energy =       0.0873852984
c    -3.7084135    1.6587167    0.3039948  0.00   -0.0024773    0.0158433    0.0363842
c    -2.4837104    2.5693139    0.2953862  0.00    0.0316092    0.0261210   -0.0460553
c    -4.9816350    2.4224453   -0.1168365  0.00    0.0008151    0.0039550   -0.0020736
h    -5.8665559    1.7465932   -0.0856404  0.00   -0.0025813   -0.0018844   -0.0000972
h    -4.8701320    2.8207053   -1.1516729  0.00   -0.0004979    0.0008115   -0.0005646
h    -5.1784176    3.2770468    0.5751377  0.00   -0.0027141    0.0033455    0.0035154
n    -3.4899999    0.4731650   -0.5639287  0.00    0.0251690    0.0045034   -0.0087849
h    -3.8213230    1.3333144    1.3640231  0.00    0.0331092    0.0267307    0.0182596
h    -3.4179986   -0.4015159    0.0308559  0.00    0.0011865   -0.0183201    0.0120005
h    -4.2938861    0.3189084   -1.2366766  0.00   -0.0166234   -0.0008500   -0.0122243
o    -1.8087698    2.8550810   -0.8549783  0.00   -0.0186345   -0.0192491    0.0380772
o    -2.0524279    3.0785405    1.5085033  0.00   -0.0013853    0.0142479   -0.0143588
h    -2.5049064    2.5172624    2.2342607  0.00   -0.0469751   -0.0552548   -0.0240784
    13
 Energy =       0.0827788398
c    -3.7320126    1.6577435    0.3145548  0.00   -0.0011329    0.0088194    0.0238575
c    -2.4583337    2.5044430    0.2928269  0.00    0.0169538    0.0165349   -0.0260035
c    -4.9491949    2.4713869   -0.1775947  0.00   -0.0004199    0.0041191   -0.0000138
h    -5.8756833    1.8532087   -0.1197567  0.00   -0.0037517   -0.0027626    0.0008580
h    -4.7927938    2.7957736   -1.2357767  0.00    0.0007609    0.0019551   -0.0037872
h    -5.1042379    3.3807311    0.4552581  0.00   -0.0030020    0.0052617    0.0039405
n    -3.5598275    0.4286792   -0.4980088  0.00    0.0203176    0.0042255   -0.0062586
h    -3.8994035    1.3860254    1.3862275  0.00    0.0206484    0.0167406    0.0150972
h    -3.4371481   -0.4083016    0.1365433  0.00    0.0006994   -0.0143738    0.0097807
h    -4.3992831    0.2247067   -1.1089928  0.00   -0.0134607   -0.0033434   -0.0118463
o    -1.7440286    2.6963279   -0.8711687  0.00   -0.0067880   -0.0113409    0.0168706
o    -2.0161140    3.0709761    1.4813604  0.00    0.0034992    0.0142515   -0.0133153
h    -2.5101150    2.6078766    2.2469558  0.00   -0.0343242   -0.0400871   -0.0091798
    13
 Energy =       0.0813034672
c    -3.7204139    1.6520836    0.3131392  0.00   -0.0017009    0.0078842    0.0223442
c    -2.4821498    2.5519404    0.2994071  0.00    0.0117139    0.0125984   -0.0161397
c    -4.9706357    2.4236228   -0.1648258  0.00   -0.0006759    0.0045502   -0.0000261
h    -5.8741084    1.7720061   -0.1055802  0.00   -0.0039828   -0.0028472    0.0008705
h    -4.8325186    2.7611331   -1.2212794  0.00    0.0007734    0.0018744   -0.0035510
h    -5.1530526    3.3232249    0.4740443  0.00   -0.0027953    0.0050453    0.0036050
n    -3.5019942    0.4416095   -0.5164163  0.00    0.0187114    0.0025022   -0.0060322
h    -3.8755447    1.3563665    1.3799922  0.00    0.0179898    0.0144762    0.0135449
h    -3.3682404   -0.4009168    0.1066841  0.00    0.0005676   -0.0128917    0.0086836
h    -4.3264721    0.2247417   -1.1415797  0.00   -0.0121526   -0.0033412   -0.0107446
o    -1.8271101    2.8550810   -0.8836834  0.00   -0.0010847   -0.0072408    0.0064958
o    -2.0313446    3.0910616    1.4991459  0.00    0.0030249    0.0126263   -0.0111536
h    -2.5145911    2.6176227    2.2633803  0.00   -0.0303887   -0.0352362   -0.0078968
    13
 Energy =       0.0776539044
c    -3.7140340    1.6466992    0.3247661  0.00   -0.0016875    0.0004730    0.0084117
c    -2.5065896    2.5900518    0.2416008  0.00   -0.0012622   -0.0027992    0.0042359
c    -4.9972368    2.3594495   -0.1463844  0.00   -0.0002950    0.0018311    0.0002349
h    -5.8804365    1.6903584   -0.0325386  0.00   -0.0024563   -0.0019484    0.0001406
h    -4.9013262    2.6528310   -1.2197739  0.00    0.0001921    0.0012659   -0.0027536
h    -5.1782389    3.2800222    0.4554388  0.00   -0.0005457    0.0020484    0.0015937
n    -3.4858210    0.4261811   -0.4764901  0.00    0.0110069    0.0088637   -0.0021847
h    -3.8418415    1.3706769    1.3998857  0.00    0.0074849    0.0053416    0.0065042
h    -3.2494591   -0.3810181    0.1610303  0.00    0.0013068   -0.0109048    0.0081856
h    -4.3395688    0.1354336   -1.0255051  0.00   -0.0107713   -0.0025418   -0.0088390
o    -1.9839336    2.9607037   -1.0011627  0.00    0.0052771    0.0030745   -0.0118948
o    -1.9729454    3.1618118    1.3993017  0.00    0.0068840    0.0111793   -0.0048332
h    -2.4267447    2.7763758    2.2222597  0.00   -0.0151338   -0.0158833    0.0011988
    13
 Energy =       0.0781487816
c    -3.7033603    1.6539752    0.3380019  0.00   -0.0032402   -0.0000645    0.0075980
c    -2.5038136    2.5999802    0.1603684  0.00   -0.0021253   -0.0041650    0.0039207
c    -5.0176372    2.3437171   -0.0835355  0.00   -0.0008497    0.0020388    0.0004205
h    -5.8861081    1.6636420    0.0788152  0.00   -0.0034262   -0.0024569    0.0003398
h    -4.9751467    2.6266182   -1.1643367  0.00    0.0001765    0.0015166   -0.0040059
h    -5.1828444    3.2688887    0.5156312  0.00   -0.0005182    0.0019928    0.0016775
n    -3.5084043    0.4075831   -0.4341931  0.00    0.0142295    0.0134205   -0.0047077
h    -3.7735752    1.4125519    1.4292175  0.00    0.0063706    0.0046324    0.0084284
h    -3.3679567   -0.4105511    0.2242028  0.00    0.0027000   -0.0164786    0.0121847
h    -4.3393525    0.1706227   -1.0463898  0.00   -0.0151538   -0.0030122   -0.0113304
o    -2.0715012    2.9608068   -1.1228019  0.00    0.0066967    0.0043081   -0.0168368
o    -1.8804844    3.1771082    1.2740110  0.00    0.0104538    0.0142135   -0.0031930
h    -2.2679916    2.7946340    2.1334373  0.00   -0.0153137   -0.0159454    0.0055043
    13
 Energy =       0.0772789366
c    -3.6899708    1.6399398    0.3317763  0.00   -0.0024788    0.0002082    0.0027676
c    -2.5294094    2.6372114    0.1924554  0.00   -0.0011858   -0.0027769   -0.0020257
c    -5.0225237    2.2852844   -0.0957885  0.00   -0.0005660    0.0011949   -0.0000426
h    -5.8674620    1.5779432    0.0614548  0.00   -0.0018558   -0.0012358    0.0002082
h    -4.9831809    2.5679538   -1.1742346  0.00    0.0000578    0.0006048   -0.0015357
h    -5.2219829    3.2043588    0.5006018  0.00   -0.0002894    0.0012816    0.0009025
n    -3.4358072    0.4183656   -0.4618657  0.00    0.0074701    0.0044094   -0.0032764
h    -3.7704021    1.3693479    1.4123764  0.00    0.0022918    0.0013899    0.0035539
h    -3.2449045   -0.3947531    0.1798554  0.00    0.0007742   -0.0083652    0.0057039
h    -4.2581362    0.1431155   -1.0586382  0.00   -0.0068935   -0.0010970   -0.0051261
o    -2.0649896    2.9904822   -1.0747668  0.00    0.0021859    0.0015664   -0.0073817
o    -1.9820976    3.2769403    1.3136668  0.00    0.0073118    0.0092308    0.0002401
h    -2.4073093    2.9533871    2.1755352  0.00   -0.0068222   -0.0064110    0.0060119
    13
 Energy =       0.0771654230
c    -3.6742763    1.6496764    0.3459691  0.00   -0.0006625   -0.0014332    0.0024752
c    -2.5622254    2.6916983    0.1521283  0.00   -0.0001154   -0.0006015    0.0014805
c    -5.0482170    2.2182145   -0.0613684  0.00   -0.0011635    0.0023589   -0.0005865
h    -5.8487227    1.4652609    0.1168607  0.00   -0.0018478   -0.0015099    0.0003963
h    -5.0462738    2.4964938   -1.1408659  0.00   -0.0000447    0.0005332   -0.0008134
h    -5.2860860    3.1293201    0.5318955  0.00   -0.0002682    0.0009053    0.0002773
n    -3.3815980    0.4186130   -0.4165952  0.00    0.0129135    0.0107383    0.0002980
h    -3.7196303    1.4035780    1.4331093  0.00    0.0002937   -0.0005253    0.0013343
h    -3.3167582   -0.4042479    0.2415952  0.00    0.0024606   -0.0098248    0.0101076
h    -4.1267477    0.1911569   -1.1340265  0.00   -0.0142721   -0.0035634   -0.0123327
o    -2.1866532    3.0721389   -1.1357848  0.00    0.0023688    0.0018199   -0.0058045
o    -1.9604679    3.3318151    1.2414210  0.00    0.0027835    0.0027845   -0.0006552
h    -2.3205199    3.0058589    2.1280901  0.00   -0.0024459   -0.0016821    0.0038231
    13
 Energy =       0.0770444142
c    -3.7017622    1.6645575    0.3492735  0.00   -0.0004031   -0.0016471    0.0006765
c    -2.5562973    2.6745795    0.1805297  0.00   -0.0018652   -0.0026333   -0.0028222
c    -5.0455996    2.2616842   -0.1172543  0.00   -0.0018176    0.0025204    0.0000175
h    -5.8719364    1.5338161    0.0466364  0.00   -0.0018841   -0.0014593    0.0005699
h    -4.9979919    2.5195588   -1.2017291  0.00    0.0000632    0.0007959   -0.0017362
h    -5.2803867    3.1897130    0.4507940  0.00   -0.0005471    0.0010190    0.0003662
n    -3.4111695    0.4172832   -0.3869582  0.00    0.0097199    0.0074582   -0.0000085
h    -3.7979564    1.4348139    1.4374502  0.00   -0.0004589   -0.0013240    0.0019878
h    -3.3452586   -0.3906370    0.2858313  0.00    0.0017477   -0.0072448    0.0072230
h    -4.1556799    0.1737978   -1.0949742  0.00   -0.0100002   -0.0027900   -0.0089888
o    -2.2023901    3.1053815   -1.0977169  0.00    0.0013662    0.0011906   -0.0062061
o    -1.8894507    3.2268266    1.2847957  0.00    0.0055630    0.0051344    0.0037678
h    -2.2222968    2.8582019    2.1657504  0.00   -0.0014838   -0.0010199    0.0051530
    13
 Energy =       0.0767681378
c    -3.7352554    1.6898439    0.3547003  0.00    0.0011652   -0.0003504   -0.0004229
c    -2.5656515    2.6759201    0.2240811  0.00   -0.0020921   -0.0032751   -0.0045258
c    -5.0393713    2.2912723   -0.2130729  0.00   -0.0033882    0.0017424    0.0010696
h    -5.8877864    1.5871349   -0.0664471  0.00   -0.0011820   -0.0006429    0.0005963
h    -4.9252721    2.5018507   -1.3046495  0.00    0.0002666    0.0010240   -0.0036426
h    -5.2888515    3.2466747    0.3027729  0.00   -0.0011306    0.0017350    0.0009127
n    -3.4181944    0.4177310   -0.3267794  0.00    0.0063570    0.0032548   -0.0006142
h    -3.9060491    1.4977248    1.4426290  0.00   -0.0012930   -0.0012335    0.0035937
h    -3.3175646   -0.3541839    0.3790416  0.00    0.0006205   -0.0046806    0.0035216
h    -4.1649411    0.1164168   -1.0038019  0.00   -0.0046013   -0.0022168   -0.0052876
o    -2.2241031    3.1703039   -1.0333681  0.00    0.0002694    0.0004563   -0.0047543
o    -1.8493053    3.1294389    1.3424283  0.00    0.0054836    0.0049402    0.0039730
h    -2.1558303    2.6994488    2.2048942  0.00   -0.0004751   -0.0007534    0.0055805
    13
 Energy =       0.0763901467
c    -3.7534180    1.7264983    0.3689526  0.00    0.0013292    0.0033278    0.0033926
c    -2.6078668    2.7375174    0.2290103  0.00   -0.0039511   -0.0029650   -0.0016691
c    -5.0536158    2.2517084   -0.2778974  0.00   -0.0027860    0.0001232   -0.0008948
h    -5.8833948    1.5281195   -0.1254680  0.00   -0.0004962   -0.0003260   -0.0001195
h    -4.9081402    2.4079731   -1.3733797  0.00   -0.0002976    0.0004686   -0.0023473
h    -5.3504015    3.2256952    0.1768780  0.00   -0.0009159    0.0028050    0.0014437
n    -3.3751934    0.4238513   -0.2229297  0.00    0.0056331   -0.0023632   -0.0040997
h    -3.9586765    1.5987439    1.4596603  0.00   -0.0006759   -0.0004780    0.0027997
h    -3.3265403   -0.3094854    0.5278481  0.00    0.0008959   -0.0036825    0.0042392
h    -4.0665723    0.0848701   -0.9384914  0.00   -0.0038541   -0.0013043   -0.0040732
o    -2.3547724    3.3268930   -1.0127284  0.00    0.0006792    0.0029729   -0.0108135
o    -1.8069413    3.0953491    1.3248467  0.00    0.0057990    0.0063349   -0.0003271
h    -2.0326429    2.5718432    2.1661269  0.00   -0.0013596   -0.0049135    0.0124689
    13
 Energy =       0.0758422864
c    -3.7809590    1.7603372    0.3804368  0.00    0.0007129    0.0029923    0.0004791
c    -2.6195671    2.7524886    0.2423682  0.00   -0.0027886   -0.0010448   -0.0032565
c    -5.0444000    2.2504803   -0.3590129  0.00   -0.0024757    0.0001781    0.0007166
h    -5.8859944    1.5429522   -0.1984546  0.00   -0.0001753   -0.0001562    0.0003071
h    -4.8457076    2.3362857   -1.4551298  0.00    0.0003458    0.0005535   -0.0036495
h    -5.3546738    3.2530068    0.0181249  0.00   -0.0012921    0.0028137    0.0011670
n    -3.3828408    0.4233844   -0.1112992  0.00    0.0038565   -0.0021515   -0.0040190
h    -4.0397324    1.7034178    1.4669590  0.00   -0.0012665   -0.0001986    0.0035926
h    -3.3625689   -0.2600960    0.6853122  0.00    0.0004891   -0.0030987    0.0030055
h    -4.0470982    0.0360312   -0.8252086  0.00   -0.0011694   -0.0012153   -0.0018667
o    -2.3993059    3.3945650   -0.9739041  0.00   -0.0001023   -0.0001193   -0.0028316
o    -1.7577006    3.0248210    1.3122194  0.00    0.0038080    0.0019642    0.0030472
h    -1.9576274    2.4519028    2.1200170  0.00    0.0000578   -0.0005173    0.0033080
    13
 Energy =       0.0755509606
c    -3.7971502    1.7848255    0.3858195  0.00    0.0007826    0.0015960    0.0013457
c    -2.6486469    2.7937284    0.2614166  0.00   -0.0041150   -0.0032179    0.0007795
c    -5.0481918    2.2268263   -0.4021625  0.00   -0.0020360   -0.0001653   -0.0000078
h    -5.8820072    1.5102421   -0.2420042  0.00   -0.0001628   -0.0000756    0.0000232
h    -4.8216269    2.2815457   -1.4930871  0.00    0.0000020    0.0002010   -0.0020036
h    -5.3840366    3.2347695   -0.0666608  0.00   -0.0007537    0.0018597    0.0007790
n    -3.3614113    0.4427844   -0.0537391  0.00    0.0028860   -0.0016087   -0.0018626
h    -4.0832740    1.7573154    1.4652318  0.00   -0.0006532    0.0002027    0.0019357
h    -3.3499372   -0.2141348    0.7635891  0.00    0.0002884   -0.0016216    0.0016296
h    -4.0015713    0.0199949   -0.7695139  0.00   -0.0011782   -0.0010496   -0.0016861
o    -2.4970641    3.5393085   -0.9116772  0.00    0.0000510    0.0045706   -0.0106568
o    -1.7280415    2.9749562    1.3028424  0.00    0.0051456    0.0052347    0.0003989
h    -1.8752172    2.3174149    2.0623737  0.00   -0.0002568   -0.0059261    0.0093252
    13
 Energy =       0.0752360192
c    -3.8172335    1.8132776    0.3954809  0.00    0.0003782    0.0036966    0.0003179
c    -2.6562793    2.8066480    0.2626588  0.00   -0.0009987    0.0000725   -0.0005976
c    -5.0305618    2.2091829   -0.4732486  0.00   -0.0021886   -0.0000241    0.0004285
h    -5.8748591    1.5071965   -0.3034737  0.00   -0.0001473   -0.0001619    0.0002677
h    -4.7558293    2.1941783   -1.5555897  0.00    0.0005244    0.0001587   -0.0033808
h    -5.3748482    3.2385793   -0.2174558  0.00   -0.0012652    0.0028602    0.0007096
n    -3.3713581    0.4424764    0.0622430  0.00    0.0039231   -0.0027550   -0.0041381
h    -4.1470016    1.8574168    1.4634273  0.00   -0.0008987    0.0003647    0.0034125
h    -3.3967748   -0.1596868    0.9223422  0.00    0.0002121   -0.0029645    0.0039765
h    -3.9858020   -0.0247333   -0.6483588  0.00   -0.0008425   -0.0013620   -0.0016315
o    -2.5310170    3.5885659   -0.8826898  0.00    0.0000067   -0.0000752   -0.0014412
o    -1.7004497    2.9393998    1.2728392  0.00    0.0013438    0.0003175    0.0012334
h    -1.8361618    2.2570756    2.0042534  0.00   -0.0000474   -0.0001276    0.0008430
    13
 Energy =       0.0751096036
c    -3.8256328    1.8242077    0.3988373  0.00    0.0001430    0.0017364    0.0001034
c    -2.6664794    2.8211434    0.2752275  0.00   -0.0023552   -0.0021580    0.0012359
c    -5.0316663    2.2076732   -0.4832219  0.00   -0.0013014   -0.0000541    0.0002502
h    -5.8748513    1.5036083   -0.3172469  0.00   -0.0000874   -0.0000794    0.0001292
h    -4.7462311    2.1871214   -1.5610411  0.00    0.0002522    0.0000731   -0.0017769
h    -5.3818284    3.2362082   -0.2380997  0.00   -0.0006370    0.0014942    0.0003820
n    -3.3724454    0.4543812    0.0795478  0.00    0.0021045   -0.0013861   -0.0021068
h    -4.1640053    1.8745971    1.4622797  0.00   -0.0004471    0.0002398    0.0018024
h    -3.4011431   -0.1400468    0.9432354  0.00    0.0001283   -0.0015333    0.0020306
h    -3.9817455   -0.0216103   -0.6288691  0.00   -0.0004711   -0.0007187   -0.0008839
o    -2.5911918    3.6798018   -0.8228695  0.00   -0.0005504    0.0034311   -0.0064034
o    -1.6675414    2.8872741    1.2521180  0.00    0.0030543    0.0017928    0.0016151
h    -1.7734143    2.1552175    1.9425306  0.00    0.0001674   -0.0028379    0.0036221
    13
 Energy =       0.0749548124
c    -3.8438748    1.8495677    0.4065068  0.00    0.0003581    0.0021955    0.0001191
c    -2.6764428    2.8370263    0.2793888  0.00   -0.0000150   -0.0001292    0.0004203
c    -5.0116450    2.1833619   -0.5453824  0.00   -0.0016029    0.0000258   -0.0000092
h    -5.8618073    1.4881295   -0.3785177  0.00   -0.0000723    0.0000277    0.0000633
h    -4.6801100    2.1069397   -1.6072069  0.00    0.0003594   -0.0000581   -0.0017500
h    -5.3718438    3.2226603   -0.3699064  0.00   -0.0006806    0.0014476    0.0002368
n    -3.3829406    0.4629604    0.1830693  0.00    0.0023650   -0.0015038   -0.0017612
h    -4.2233596    1.9603467    1.4514196  0.00   -0.0004410    0.0003734    0.0018711
h    -3.4421445   -0.0794015    1.0789395  0.00    0.0000529   -0.0014162    0.0021370
h    -3.9707460   -0.0545369   -0.5145351  0.00   -0.0004654   -0.0010004   -0.0009628
o    -2.6378538    3.7508324   -0.7703596  0.00    0.0000021    0.0000647   -0.0007563
o    -1.6426455    2.8516775    1.2166698  0.00    0.0002503   -0.0002825    0.0005874
h    -1.7327625    2.0900132    1.8723426  0.00   -0.0001106    0.0002555   -0.0001953
    13
 Energy =       0.0749172720
c    -3.8488368    1.8556357    0.4101443  0.00    0.0001000    0.0013018   -0.0000292
c    -2.6808372    2.8434868    0.2871815  0.00   -0.0010050   -0.0016794    0.0012121
c    -5.0125899    2.1867126   -0.5465004  0.00   -0.0010415   -0.0000157    0.0000131
h    -5.8625676    1.4904134   -0.3832010  0.00   -0.0000485    0.0000142    0.0000382
h    -4.6761783    2.1108481   -1.6060706  0.00    0.0002196   -0.0000354   -0.0010639
h    -5.3751050    3.2249484   -0.3729183  0.00   -0.0003961    0.0008772    0.0001442
n    -3.3880015    0.4690346    0.1908737  0.00    0.0014749   -0.0008675   -0.0010361
h    -4.2314953    1.9683414    1.4529425  0.00   -0.0002460    0.0002409    0.0011443
h    -3.4467568   -0.0697866    1.0882569  0.00    0.0000362   -0.0008607    0.0012858
h    -3.9772930   -0.0511733   -0.5030237  0.00   -0.0002876   -0.0006100   -0.0005917
o    -2.6795524    3.8124410   -0.7157695  0.00   -0.0006579    0.0025884   -0.0037047
o    -1.6145106    2.8107690    1.1890762  0.00    0.0016872    0.0004190    0.0012556
h    -1.6844517    2.0179058    1.8114368  0.00    0.0001646   -0.0013728    0.0013323
    13
 Energy =       0.0748644880
c    -3.8648237    1.8779818    0.4170725  0.00   -0.0000112    0.0012188   -0.0001221
c    -2.6867612    2.8543740    0.2869250  0.00    0.0002499    0.0001164   -0.0002750
c    -4.9898710    2.1637379   -0.5983803  0.00   -0.0005962    0.0000925    0.0000190
h    -5.8474448    1.4767220   -0.4351877  0.00   -0.0000635   -0.0000217    0.0000797
h    -4.6127850    2.0382848   -1.6390093  0.00    0.0002615   -0.0000431   -0.0008351
h    -5.3574800    3.2087093   -0.4877084  0.00   -0.0003418    0.0007147    0.0000493
n    -3.4073496    0.4787723    0.2866010  0.00    0.0011167   -0.0009332   -0.0011861
h    -4.2839314    2.0469236    1.4378786  0.00   -0.0003774    0.0002186    0.0009767
h    -3.4956273   -0.0090548    1.2104476  0.00   -0.0000773   -0.0007865    0.0013451
h    -3.9822633   -0.0761843   -0.3919199  0.00   -0.0000653   -0.0004310   -0.0002435
o    -2.7218274    3.8771775   -0.6561790  0.00   -0.0000063   -0.0003706    0.0003140
o    -1.5859280    2.7736730    1.1402302  0.00    0.0000270   -0.0004287    0.0004308
h    -1.6420835    1.9584597    1.7316581  0.00   -0.0001160    0.0006537   -0.0005528
    13
 Energy =       0.0748604988
c    -3.8662345    1.8784943    0.4197154  0.00   -0.0000427    0.0008624   -0.0000720
c    -2.6907880    2.8590234    0.2945939  0.00   -0.0001178   -0.0006389    0.0001836
c    -4.9929326    2.1677283   -0.5926373  0.00   -0.0004354    0.0000408    0.0000253
h    -5.8482881    1.4769748   -0.4336235  0.00   -0.0000548   -0.0000281    0.0000623
h    -4.6164030    2.0508915   -1.6342032  0.00    0.0001966   -0.0000334   -0.0006175
h    -5.3638959    3.2104908   -0.4742015  0.00   -0.0002482    0.0005362    0.0000370
n    -3.4063342    0.4811982    0.2797494  0.00    0.0008206   -0.0006854   -0.0008518
h    -4.2842528    2.0400826    1.4418549  0.00   -0.0002714    0.0001628    0.0007100
h    -3.4911702   -0.0118351    1.2008926  0.00   -0.0000571   -0.0005690    0.0009744
h    -3.9824760   -0.0711283   -0.3997866  0.00   -0.0000484   -0.0003085   -0.0001753
o    -2.7481844    3.9132774   -0.6136786  0.00   -0.0003044    0.0009349   -0.0009518
o    -1.5721842    2.7537239    1.1227185  0.00    0.0005360   -0.0000547    0.0005255
h    -1.6150322    1.9206552    1.6910344  0.00    0.0000268   -0.0002190    0.0001503
    13
 Energy =       0.0748573651
c    -3.8667976    1.8792300    0.4200809  0.00   -0.0000001    0.0000023    0.0000015
c    -2.6914385    2.8598492    0.2950929  0.00   -0.0000067   -0.0000078    0.0000041
c    -4.9920290    2.1663624   -0.5936388  0.00   -0.0000021   -0.0000015    0.0000004
h    -5.8474200    1.4756712   -0.4349011  0.00    0.0000001   -0.0000001    0.0000001
h    -4.6143503    2.0481903   -1.6339896  0.00   -0.0000001    0.0000006   -0.0000021
h    -5.3631557    3.2087144   -0.4772148  0.00   -0.0000007    0.0000017    0.0000013
n    -3.4071810    0.4824411    0.2827231  0.00    0.0000018   -0.0000003   -0.0000043
h    -4.2858557    2.0421573    1.4408154  0.00    0.0000004   -0.0000006    0.0000025
h    -3.4934541   -0.0090179    1.2038353  0.00    0.0000013   -0.0000026    0.0000023
h    -3.9824608   -0.0706742   -0.3966571  0.00   -0.0000012    0.0000005   -0.0000013
o    -2.7510198    3.9169913   -0.6084936  0.00   -0.0000020    0.0000116   -0.0000195
o    -1.5706960    2.7519439    1.1191756  0.00    0.0000086   -0.0000000    0.0000110
h    -1.6123178    1.9177178    1.6856001  0.00    0.0000007   -0.0000038    0.0000041
    13
 Energy =       0.0748573367
c    -3.8672077    1.8796376    0.4203524  0.00   -0.0000001    0.0000005    0.0000002
c    -2.6919015    2.8604143    0.2957207  0.00   -0.0000019   -0.0000063    0.0000033
c    -4.9916519    2.1660164   -0.5944616  0.00   -0.0000009   -0.0000002   -0.0000001
h    -5.8470181    1.4752033   -0.4361193  0.00   -0.0000001    0.0000000   -0.0000000
h    -4.6130654    2.0474536   -1.6344309  0.00    0.0000002   -0.0000001   -0.0000005
h    -5.3631764    3.2083167   -0.4788291  0.00   -0.0000002    0.0000003    0.0000001
n    -3.4073747    0.4827889    0.2841671  0.00    0.0000010   -0.0000002   -0.0000003
h    -4.2870764    2.0431311    1.4406598  0.00   -0.0000001    0.0000002    0.0000005
h    -3.4941275   -0.0080326    1.2055758  0.00   -0.0000000   -0.0000003    0.0000005
h    -3.9822786   -0.0708622   -0.3950949  0.00   -0.0000001   -0.0000003   -0.0000003
o    -2.7533407    3.9202316   -0.6045912  0.00   -0.0000024    0.0000095   -0.0000093
o    -1.5696555    2.7504168    1.1174761  0.00    0.0000041    0.0000009    0.0000025
h    -1.6103018    1.9148612    1.6820034  0.00    0.0000006   -0.0000042    0.0000033
    13
 Energy =       0.0748573366
c    -3.8672110    1.8796402    0.4203554  0.00   -0.0000000    0.0000000    0.0000000
c    -2.6919054    2.8604185    0.2957268  0.00   -0.0000000   -0.0000000    0.0000000
c    -4.9916474    2.1660134   -0.5944678  0.00   -0.0000000   -0.0000000    0.0000000
h    -5.8470136    1.4751997   -0.4361291  0.00   -0.0000000   -0.0000000    0.0000000
h    -4.6130532    2.0474471   -1.6344333  0.00   -0.0000000    0.0000000   -0.0000000
h    -5.3631744    3.2083132   -0.4788422  0.00   -0.0000000    0.0000000    0.0000000
n    -3.4073775    0.4827911    0.2841799  0.00    0.0000000   -0.0000000   -0.0000000
h    -4.2870870    2.0431382    1.4406585  0.00    0.0000000   -0.0000000    0.0000000
h    -3.4941378   -0.0080259    1.2055899  0.00    0.0000000   -0.0000000   -0.0000000
h    -3.9822765   -0.0708631   -0.3950835  0.00   -0.0000000    0.0000000   -0.0000000
o    -2.7533582    3.9202530   -0.6045520  0.00   -0.0000000    0.0000000   -0.0000000
o    -1.5696479    2.7504075    1.1174576  0.00    0.0000000    0.0000000    0.0000000
h    -1.6102864    1.9148441    1.6819681  0.00    0.0000000   -0.0000000    0.0000000
