    27
 Energy =       0.2958577173
c    -1.4235396    2.6054793   -0.0667700  0.00   -0.0462377    0.0382441    0.0026447
c    -1.3072796    1.2134697   -0.1072300  0.00   -0.0853495   -0.0325487    0.0019228
c    -0.0178900    0.6711998   -0.1697000  0.00   -0.0889928   -0.1877043   -0.0008737
c    -0.2940599    3.4190890   -0.0891300  0.00   -0.0231915    0.0690571    0.0028093
c     0.9872197    2.8590292   -0.1560400  0.00    0.0105669    0.0640905    0.0008018
c     1.1340797    1.4562096   -0.1970299  0.00    0.0528992    0.0520888    0.0022544
n     0.3879399   -0.6395298   -0.2140799  0.00    0.1484907    0.1068591   -0.0048808
c     2.2666594    0.5727398   -0.2659299  0.00    0.1480589   -0.0622723   -0.0115262
c     1.7555995   -0.7123598   -0.2706899  0.00   -0.0785963   -0.1028857    0.0017469
h    -0.2400399   -1.4313496   -0.2047299  0.00    0.0365072    0.0480948   -0.0000700
c     3.7030089    1.0223397   -0.3320099  0.00    0.0057929   -0.0143485   -0.0139993
c     4.7465686   -0.0024900    0.1378100  0.00    0.0794102    0.1365775   -0.0218118
h     3.7978489    1.9290294    0.2803699  0.00   -0.0054370   -0.0081348   -0.0111259
h     3.9233889    1.3348996   -1.3618196  0.00   -0.0027847   -0.0028514    0.0155587
c     4.8964886   -1.0916697   -0.9404947  0.00   -0.2533062   -0.2941675   -0.1387541
n     4.3764788   -0.6892298    1.4261196  0.00    0.0024089   -0.0528643    0.0693376
h     5.7313184    0.4619039    0.2668599  0.00   -0.0160786   -0.0232900    0.0126317
h     5.1527685   -0.5416468    2.0793394  0.00   -0.0260362    0.0057555   -0.0290422
h     3.5998490   -0.1655630    1.8450295  0.00    0.0251618   -0.0061939   -0.0298406
h    -2.4108593    3.0588691   -0.0157800  0.00   -0.0009505    0.0003274    0.0001091
h    -2.1896094    0.5822398   -0.0890100  0.00   -0.0036658    0.0037474    0.0001538
h    -0.4052699    4.5000487   -0.0535400  0.00    0.0008770    0.0003968    0.0003757
h     1.8590495    3.5066790   -0.1715100  0.00   -0.0005755    0.0027041    0.0008422
h     2.2327294   -1.6813195   -0.3062999  0.00    0.0272623   -0.0162456   -0.0363066
o     4.0245989   -1.8702095   -1.2891796  0.00    0.1237465    0.2110230    0.1293773
o     6.1470682   -1.0846497   -1.4758196  0.00   -0.0138997    0.0337918    0.0410749
h     6.5037381   -1.9948194   -1.3055496  0.00   -0.0160808    0.0307491    0.0165903
    27
 Energy =       0.2860623471
c    -1.3598169    2.7128729   -0.1387914  0.00   -0.0436138    0.0358588    0.0025048
c    -1.2748644    1.3213210   -0.1666674  0.00   -0.0801445   -0.0308973    0.0019070
c    -0.0022787    0.7506323   -0.2297727  0.00   -0.0831618   -0.1729132   -0.0010623
c    -0.2122163    3.4981565   -0.1669884  0.00   -0.0218081    0.0649514    0.0026697
c     1.0547251    2.9076998   -0.2278105  0.00    0.0101019    0.0602391    0.0007435
c     1.1660136    1.5043951   -0.2610923  0.00    0.0489483    0.0492479    0.0019660
n     0.3592529   -0.5739672   -0.2184233  0.00    0.1392867    0.0976678   -0.0043633
c     2.2728030    0.5920869   -0.3016476  0.00    0.1358460   -0.0580142   -0.0113449
c     1.7284724   -0.6770795   -0.2812689  0.00   -0.0739004   -0.0947754    0.0017621
h    -0.2964594   -1.3465013   -0.1810973  0.00    0.0330983    0.0437445    0.0000514
c     3.7329742    0.9779329   -0.2981277  0.00    0.0060273   -0.0115825   -0.0132051
c     4.7063553   -0.1113137    0.2012006  0.00    0.0751369    0.1265803   -0.0219177
h     3.8422553    1.8671548    0.3392073  0.00   -0.0045729   -0.0071088   -0.0101258
h     4.0181363    1.2973758   -1.3129098  0.00   -0.0021591   -0.0016192    0.0126265
c     4.8553636   -1.2013106   -0.8793172  0.00   -0.2373975   -0.2752156   -0.1281003
n     4.2599910   -0.7816394    1.4741448  0.00    0.0003307   -0.0524260    0.0656150
h     5.7119693    0.3031508    0.3702887  0.00   -0.0127979   -0.0208949    0.0118865
h     5.0123267   -0.6721732    2.1661416  0.00   -0.0222471    0.0054792   -0.0251392
h     3.4827403   -0.2300025    1.8614788  0.00    0.0222229   -0.0052791   -0.0271173
h    -2.3364870    3.1894007   -0.0881971  0.00   -0.0012068    0.0004393    0.0001183
h    -2.1707069    0.7092791   -0.1319879  0.00   -0.0037580    0.0032085    0.0001769
h    -0.2977293    4.5819782   -0.1378145  0.00    0.0007786    0.0007472    0.0003630
h     1.9433576    3.5327335   -0.2418570  0.00   -0.0001904    0.0027728    0.0007667
h     2.1922468   -1.6514283   -0.2485811  0.00    0.0244313   -0.0168267   -0.0326718
o     3.9694627   -1.9761651   -1.2460269  0.00    0.1179579    0.1962695    0.1189804
o     6.0915208   -1.1731555   -1.4512689  0.00   -0.0127331    0.0340482    0.0368130
h     6.4884451   -2.0630445   -1.2496282  0.00   -0.0144753    0.0262985    0.0160969
    27
 Energy =       0.2802120453
c    -1.4249765    2.6006338   -0.1284102  0.00   -0.0431778    0.0353315    0.0024756
c    -1.3048113    1.2107128   -0.1603609  0.00   -0.0790257   -0.0306240    0.0019292
c    -0.0175169    0.6722856   -0.2185850  0.00   -0.0817441   -0.1687607   -0.0009154
c    -0.2982010    3.4159927   -0.1516531  0.00   -0.0213788    0.0641767    0.0026304
c     0.9822343    2.8588675   -0.2098194  0.00    0.0103872    0.0593209    0.0007011
c     1.1280742    1.4599080   -0.2430165  0.00    0.0478424    0.0489141    0.0018773
n     0.3883038   -0.6465348   -0.2304924  0.00    0.1351847    0.0955366   -0.0045747
c     2.2614367    0.5874654   -0.2792554  0.00    0.1325991   -0.0566955   -0.0110413
c     1.7647421   -0.6997808   -0.2513283  0.00   -0.0713917   -0.0931156    0.0017401
h    -0.2356785   -1.4478904   -0.2198217  0.00    0.0311711    0.0412285    0.0000692
c     3.7026165    1.0413592   -0.2998542  0.00    0.0060005   -0.0097342   -0.0133757
c     4.7377448   -0.0028719    0.1627208  0.00    0.0742769    0.1234264   -0.0230005
h     3.7832464    1.9272228    0.3477928  0.00   -0.0046052   -0.0064055   -0.0098259
h     3.9499621    1.3895261   -1.3164288  0.00   -0.0017024   -0.0010202    0.0114655
c     4.9013499   -1.0847991   -0.9209879  0.00   -0.2370225   -0.2676960   -0.1221424
n     4.3565488   -0.6932815    1.4480252  0.00   -0.0003142   -0.0542478    0.0650703
h     5.7273143    0.4619039    0.3009148  0.00   -0.0108700   -0.0195668    0.0117251
h     5.1291533   -0.5510218    2.1137893  0.00   -0.0203389    0.0054997   -0.0235437
h     3.5670733   -0.1789563    1.8639747  0.00    0.0202227   -0.0043502   -0.0257399
h    -2.4141053    3.0519571   -0.0812531  0.00   -0.0015722    0.0006035    0.0001347
h    -2.1851302    0.5756714   -0.1354442  0.00   -0.0040477    0.0028740    0.0001898
h    -0.4119819    4.4975347   -0.1212003  0.00    0.0007267    0.0011588    0.0003673
h     1.8547960    3.5068655   -0.2203084  0.00    0.0001796    0.0029452    0.0007458
h     2.2725360   -1.6560379   -0.1982868  0.00    0.0232069   -0.0175451   -0.0307381
o     4.0312938   -1.8886721   -1.2757154  0.00    0.1175991    0.1908469    0.1145785
o     6.1704847   -1.1071651   -1.4254630  0.00   -0.0087899    0.0345915    0.0329620
h     6.5213437   -2.0125059   -1.1963465  0.00   -0.0134157    0.0233072    0.0162354
    27
 Energy =       0.2563881916
c    -1.4636042    2.5060293   -0.1402661  0.00   -0.0348923    0.0287662    0.0020648
c    -1.3188436    1.1239632   -0.1785805  0.00   -0.0642162   -0.0248658    0.0017474
c    -0.0301807    0.6099176   -0.2225070  0.00   -0.0660056   -0.1355681    0.0006010
c    -0.3540829    3.3377971   -0.1500664  0.00   -0.0171210    0.0521761    0.0021489
c     0.9287217    2.8037777   -0.1966319  0.00    0.0090132    0.0479508    0.0005092
c     1.0896374    1.4166693   -0.2286682  0.00    0.0382243    0.0405918    0.0015602
n     0.3945686   -0.7136453   -0.2710255  0.00    0.1043626    0.0772674   -0.0064811
c     2.2338890    0.5889497   -0.2460685  0.00    0.1072253   -0.0458929   -0.0087474
c     1.7851707   -0.7081429   -0.2081155  0.00   -0.0547294   -0.0734450    0.0027320
h    -0.2050848   -1.5417701   -0.3084335  0.00    0.0236444    0.0309582   -0.0004740
c     3.6586027    1.0980134   -0.2859311  0.00    0.0042463   -0.0065944   -0.0110957
c     4.7523940    0.0899987    0.1211899  0.00    0.0606708    0.1000707   -0.0213627
h     3.7220955    1.9701673    0.3864178  0.00   -0.0040498   -0.0046082   -0.0077483
h     3.8660672    1.4822914   -1.3019206  0.00   -0.0010247   -0.0001512    0.0080991
c     4.9418292   -0.9831031   -0.9632295  0.00   -0.2016438   -0.2110760   -0.0961839
n     4.4524811   -0.6026429    1.4239775  0.00   -0.0006757   -0.0491999    0.0530929
h     5.7229416    0.6132196    0.2131448  0.00   -0.0066046   -0.0141476    0.0096250
h     5.2418681   -0.4071611    2.0647522  0.00   -0.0137104    0.0050717   -0.0174798
h     3.6363475   -0.1480048    1.8699885  0.00    0.0129681   -0.0018543   -0.0193824
h    -2.4608938    2.9400401   -0.1038316  0.00   -0.0015052    0.0005938    0.0001267
h    -2.1871036    0.4719044   -0.1746553  0.00   -0.0036589    0.0021008    0.0001601
h    -0.4862391    4.4172481   -0.1186335  0.00    0.0005972    0.0011205    0.0003025
h     1.7920488    3.4640104   -0.1964727  0.00    0.0003975    0.0023755    0.0005959
h     2.3501082   -1.6328025   -0.1022374  0.00    0.0207579   -0.0166309   -0.0231743
o     4.0667994   -1.8324727   -1.3060954  0.00    0.0968144    0.1517153    0.0918806
o     6.2457252   -1.0913800   -1.3853211  0.00   -0.0029900    0.0359719    0.0191511
h     6.5625900   -1.9844830   -1.0375934  0.00   -0.0060942    0.0073037    0.0177324
    27
 Energy =       0.2546405809
c    -1.4104921    2.6148505   -0.1831467  0.00   -0.0333004    0.0269377    0.0019408
c    -1.2998889    1.2324587   -0.2422647  0.00   -0.0605944   -0.0239343    0.0016177
c    -0.0266755    0.6876821   -0.2695895  0.00   -0.0610036   -0.1249368    0.0012216
c    -0.2799211    3.4167862   -0.1609934  0.00   -0.0159082    0.0494805    0.0019798
c     0.9891970    2.8503202   -0.1905021  0.00    0.0089081    0.0453026    0.0004135
c     1.1130662    1.4616947   -0.2385175  0.00    0.0358363    0.0386568    0.0013864
n     0.3530090   -0.6463425   -0.3676749  0.00    0.0933744    0.0715487   -0.0071445
c     2.2320470    0.6023802   -0.2365413  0.00    0.1006305   -0.0427143   -0.0082485
c     1.7420462   -0.6795818   -0.2155521  0.00   -0.0473854   -0.0677829    0.0036899
h    -0.2750891   -1.4530270   -0.4671866  0.00    0.0194281    0.0257700   -0.0010394
c     3.6782151    1.0571275   -0.2460713  0.00    0.0043438   -0.0053135   -0.0104851
c     4.7333907   -0.0027257    0.1478364  0.00    0.0572342    0.0929694   -0.0196781
h     3.7667634    1.9114668    0.4477311  0.00   -0.0035045   -0.0037425   -0.0068720
h     3.9126750    1.4550658   -1.2517281  0.00   -0.0009783    0.0001967    0.0071392
c     4.8906596   -1.0875945   -0.9361667  0.00   -0.1888411   -0.1976713   -0.0892591
n     4.4150882   -0.6788509    1.4528443  0.00   -0.0009393   -0.0466164    0.0493957
h     5.7246199    0.4848635    0.2347816  0.00   -0.0053776   -0.0128737    0.0089899
h     5.2114284   -0.5098344    2.0942089  0.00   -0.0122791    0.0048402   -0.0160499
h     3.6106361   -0.2007948    1.8985400  0.00    0.0116474   -0.0014740   -0.0178889
h    -2.3973273    3.0738237   -0.1602335  0.00   -0.0018968    0.0006644    0.0001264
h    -2.1844765    0.6018837   -0.2735789  0.00   -0.0042374    0.0013199    0.0001070
h    -0.3845808    4.4991849   -0.1163598  0.00    0.0005826    0.0015560    0.0002980
h     1.8705384    3.4868831   -0.1622022  0.00    0.0010873    0.0027400    0.0005693
h     2.2736958   -1.6166515   -0.0669038  0.00    0.0195987   -0.0165594   -0.0209103
o     3.9841704   -1.9244534   -1.2587344  0.00    0.0907686    0.1409255    0.0851075
o     6.1879848   -1.2470170   -1.3638616  0.00   -0.0036200    0.0423467    0.0124051
h     6.5070735   -2.1012093   -0.9149477  0.00   -0.0035738   -0.0016358    0.0211880
    27
 Energy =       0.2522473418
c    -1.3978007    2.6285961   -0.1952253  0.00   -0.0309847    0.0251795    0.0017918
c    -1.2963018    1.2467757   -0.2407550  0.00   -0.0563857   -0.0223335    0.0014482
c    -0.0295058    0.6937904   -0.2700728  0.00   -0.0564192   -0.1151709    0.0009444
c    -0.2626796    3.4219360   -0.1847114  0.00   -0.0147364    0.0461600    0.0018710
c     1.0004967    2.8466409   -0.2152872  0.00    0.0083558    0.0422587    0.0004266
c     1.1125033    1.4591613   -0.2530538  0.00    0.0333943    0.0360802    0.0012827
n     0.3351453   -0.6486443   -0.3302308  0.00    0.0862354    0.0659479   -0.0065046
c     2.2236051    0.5971752   -0.2488971  0.00    0.0937227   -0.0396966   -0.0076758
c     1.7311303   -0.6819826   -0.2186355  0.00   -0.0430797   -0.0626885    0.0032813
h    -0.3017952   -1.4544873   -0.3934146  0.00    0.0173251    0.0231673   -0.0010912
c     3.6719120    1.0444207   -0.2523062  0.00    0.0040551   -0.0049779   -0.0097500
c     4.7208372   -0.0229515    0.1399196  0.00    0.0533040    0.0864206   -0.0183596
h     3.7632920    1.8939072    0.4479845  0.00   -0.0032093   -0.0035060   -0.0063214
h     3.9114469    1.4467262   -1.2556229  0.00   -0.0008719    0.0001841    0.0066631
c     4.8855062   -1.0962956   -0.9532188  0.00   -0.1757284   -0.1846045   -0.0827014
n     4.3979982   -0.7036149    1.4397046  0.00   -0.0009396   -0.0435373    0.0458707
h     5.7112964    0.4662315    0.2336363  0.00   -0.0049262   -0.0121169    0.0083942
h     5.1897772   -0.5378796    2.0887143  0.00   -0.0113841    0.0044327   -0.0148624
h     3.5876809   -0.2331665    1.8848044  0.00    0.0107526   -0.0013900   -0.0165744
h    -2.3812482    3.0945307   -0.1709978  0.00   -0.0017509    0.0007218    0.0000854
h    -2.1848325    0.6212374   -0.2562360  0.00   -0.0040475    0.0012109    0.0000262
h    -0.3593396    4.5054409   -0.1487040  0.00    0.0006164    0.0015823    0.0002970
h     1.8868070    3.4766066   -0.1964867  0.00    0.0011257    0.0026283    0.0005683
h     2.2678566   -1.6167462   -0.0770580  0.00    0.0182495   -0.0153838   -0.0194855
o     3.9829176   -1.9504237   -1.2718488  0.00    0.0847701    0.1305334    0.0797716
o     6.1812611   -1.2424447   -1.3926206  0.00   -0.0210323    0.0753193   -0.0197182
h     6.5898867   -1.9661508   -0.7561946  0.00    0.0135893   -0.0364210    0.0503221
    27
 Energy =       0.2469072263
c    -1.4471981    2.5259348   -0.1658967  0.00   -0.0301176    0.0242580    0.0017066
c    -1.3158189    1.1458757   -0.1862035  0.00   -0.0543069   -0.0219388    0.0012989
c    -0.0382312    0.6201291   -0.2260756  0.00   -0.0536491   -0.1084972    0.0006410
c    -0.3303260    3.3443495   -0.1867774  0.00   -0.0138367    0.0447507    0.0017963
c     0.9431312    2.7968652   -0.2289111  0.00    0.0084671    0.0408185    0.0004168
c     1.0837449    1.4128527   -0.2451991  0.00    0.0319546    0.0351787    0.0011698
n     0.3591920   -0.7197410   -0.2334149  0.00    0.0791008    0.0622650   -0.0058719
c     2.2151550    0.5845894   -0.2522060  0.00    0.0898141   -0.0377050   -0.0073233
c     1.7642910   -0.7088462   -0.1998936  0.00   -0.0382619   -0.0590528    0.0031598
h    -0.2563783   -1.5480911   -0.2346615  0.00    0.0142092    0.0190508   -0.0010075
c     3.6469533    1.0843093   -0.2863967  0.00    0.0041642   -0.0037014   -0.0093397
c     4.7397071    0.0634384    0.1073137  0.00    0.0512591    0.0823250   -0.0173101
h     3.7196464    1.9475582    0.4003017  0.00   -0.0028926   -0.0030022   -0.0058932
h     3.8555132    1.4810430   -1.2997892  0.00   -0.0008343    0.0005409    0.0059103
c     4.9424387   -0.9954822   -0.9880125  0.00   -0.1681824   -0.1763478   -0.0786734
n     4.4475035   -0.6294681    1.4076903  0.00   -0.0008964   -0.0433888    0.0430064
h     5.7095065    0.5953742    0.1968917  0.00   -0.0037570   -0.0110434    0.0080137
h     5.2309413   -0.4223992    2.0572956  0.00   -0.0096324    0.0045805   -0.0134939
h     3.6141547   -0.1994486    1.8540903  0.00    0.0087490   -0.0005912   -0.0152736
h    -2.4405082    2.9704451   -0.1327831  0.00   -0.0020134    0.0007731    0.0000885
h    -2.1904608    0.5000771   -0.1680421  0.00   -0.0045683    0.0005737    0.0000326
h    -0.4503639    4.4262857   -0.1680887  0.00    0.0006377    0.0019727    0.0002902
h     1.8156604    3.4469099   -0.2379349  0.00    0.0016615    0.0029410    0.0005396
h     2.3423242   -1.6268134   -0.0911819  0.00    0.0181529   -0.0159552   -0.0182993
o     4.0649914   -1.8778084   -1.3205139  0.00    0.0808662    0.1240575    0.0755462
o     6.2458161   -1.1025026   -1.4216642  0.00   -0.0191184    0.0721096   -0.0194144
h     6.6664677   -1.8270475   -0.7967508  0.00    0.0130310   -0.0349720    0.0482834
    27
 Energy =       0.2348574710
c    -1.4740894    2.4451974   -0.1407188  0.00   -0.0248765    0.0200671    0.0013942
c    -1.3216569    1.0707110   -0.1331299  0.00   -0.0446474   -0.0184081    0.0008851
c    -0.0423852    0.5644306   -0.1806702  0.00   -0.0438117   -0.0874169   -0.0004846
c    -0.3720346    3.2773972   -0.1932849  0.00   -0.0109690    0.0370507    0.0015685
c     0.9038469    2.7483559   -0.2438087  0.00    0.0073140    0.0337134    0.0004745
c     1.0594246    1.3718639   -0.2353094  0.00    0.0261213    0.0294073    0.0009912
n     0.3721884   -0.7762145   -0.1348701  0.00    0.0622539    0.0501413   -0.0034791
c     2.1991347    0.5750516   -0.2478899  0.00    0.0738003   -0.0306556   -0.0058989
c     1.7841790   -0.7255867   -0.1717974  0.00   -0.0289654   -0.0473927    0.0018460
h    -0.2269183   -1.6199764   -0.0759084  0.00    0.0097459    0.0128774   -0.0004340
c     3.6180396    1.1127348   -0.3096334  0.00    0.0034425   -0.0021941   -0.0076429
c     4.7485257    0.1294323    0.0767149  0.00    0.0421672    0.0676616   -0.0141105
h     3.6801898    1.9839492    0.3701226  0.00   -0.0022952   -0.0023093   -0.0048088
h     3.7986855    1.5059762   -1.3313038  0.00   -0.0007059    0.0007238    0.0044735
c     4.9896300   -0.9134621   -1.0198847  0.00   -0.1386017   -0.1441854   -0.0639140
n     4.4960150   -0.5634103    1.3821601  0.00   -0.0000778   -0.0397627    0.0321181
h     5.6982184    0.7023820    0.1519019  0.00   -0.0021950   -0.0084852    0.0065343
h     5.2581902   -0.2891924    2.0389758  0.00   -0.0045975    0.0050096   -0.0088616
h     3.6238231   -0.1990881    1.8220091  0.00    0.0028459    0.0012936   -0.0112125
h    -2.4732662    2.8753776   -0.1011346  0.00   -0.0018059    0.0006659    0.0000725
h    -2.1848188    0.4112022   -0.0820778  0.00   -0.0042828   -0.0000168    0.0000476
h    -0.5074222    4.3577064   -0.1945819  0.00    0.0005930    0.0019622    0.0002464
h     1.7670680    3.4097768   -0.2808013  0.00    0.0017967    0.0027067    0.0004478
h     2.4006756   -1.6222200   -0.0836525  0.00    0.0160498   -0.0140957   -0.0151195
o     4.1234731   -1.8282310   -1.3670544  0.00    0.0656994    0.1010798    0.0616448
o     6.2923537   -0.9848840   -1.4702616  0.00   -0.0153076    0.0604031   -0.0180178
h     6.7267836   -1.7308905   -0.8909250  0.00    0.0113094   -0.0298410    0.0412398
    27
 Energy =       0.2220496839
c    -1.4702624    2.4178458   -0.1374911  0.00   -0.0166510    0.0135340    0.0009910
c    -1.3137053    1.0506285   -0.1101982  0.00   -0.0299757   -0.0124947    0.0004923
c    -0.0423360    0.5486653   -0.1536555  0.00   -0.0294557   -0.0587773   -0.0007899
c    -0.3731383    3.2473110   -0.2055750  0.00   -0.0072987    0.0249261    0.0012206
c     0.8970031    2.7201180   -0.2516598  0.00    0.0049576    0.0227578    0.0004731
c     1.0477576    1.3522174   -0.2230899  0.00    0.0173933    0.0199233    0.0007531
n     0.3638303   -0.7985732   -0.0877222  0.00    0.0417033    0.0335744   -0.0019352
c     2.1811236    0.5730293   -0.2269127  0.00    0.0497728   -0.0205759   -0.0040036
c     1.7816989   -0.7257771   -0.1373979  0.00   -0.0192949   -0.0317391    0.0010833
h    -0.2331326   -1.6464175   -0.0102816  0.00    0.0064310    0.0084136   -0.0002058
c     3.5982539    1.1215464   -0.2939958  0.00    0.0020056   -0.0012497   -0.0052757
c     4.7509278    0.1503899    0.0670909  0.00    0.0286646    0.0466737   -0.0099762
h     3.6609451    1.9849003    0.3984953  0.00   -0.0015707   -0.0014768   -0.0031692
h     3.7648420    1.5273090   -1.3147362  0.00   -0.0004727    0.0005876    0.0028605
c     5.0139488   -0.8809255   -1.0310846  0.00   -0.0948042   -0.0966271   -0.0421959
n     4.5459138   -0.5272383    1.3834721  0.00    0.0030659   -0.0375653    0.0113802
h     5.6893206    0.7485037    0.1142790  0.00   -0.0008534   -0.0053556    0.0041944
h     5.2542981   -0.1417684    2.0592542  0.00    0.0061304    0.0083336    0.0013799
h     3.6127876   -0.2739657    1.7960934  0.00   -0.0109462    0.0046300   -0.0040989
h    -2.4697961    2.8462841   -0.1014207  0.00   -0.0012171    0.0004684    0.0000513
h    -2.1729851    0.3885149   -0.0466795  0.00   -0.0029311   -0.0000902    0.0000267
h    -0.5099391    4.3269449   -0.2232603  0.00    0.0004039    0.0014618    0.0001815
h     1.7597890    3.3800998   -0.3023545  0.00    0.0012867    0.0018665    0.0003125
h     2.4194649   -1.6052382   -0.0434989  0.00    0.0118487   -0.0097391   -0.0103976
o     4.1357347   -1.8175776   -1.3912718  0.00    0.0434701    0.0681089    0.0416384
o     6.3050338   -0.9329860   -1.5235347  0.00   -0.0144765    0.0489962   -0.0200391
h     6.7404745   -1.7454516   -1.0496781  0.00    0.0128140   -0.0285652    0.0350482
    27
 Energy =       0.2190687059
c    -1.5125592    2.3287540   -0.0967945  0.00   -0.0159199    0.0126478    0.0009231
c    -1.3235521    0.9663362   -0.0491128  0.00   -0.0280741   -0.0120188    0.0004328
c    -0.0420798    0.4934943   -0.1009573  0.00   -0.0275212   -0.0541922   -0.0008884
c    -0.4363302    3.1822897   -0.1928794  0.00   -0.0065567    0.0236340    0.0011169
c     0.8439910    2.6841171   -0.2488985  0.00    0.0050183    0.0214794    0.0004247
c     1.0256520    1.3216252   -0.2002631  0.00    0.0162148    0.0186620    0.0006692
n     0.3988260   -0.8445440   -0.0115850  0.00    0.0378391    0.0305069   -0.0015913
c     2.1759557    0.5735300   -0.2116085  0.00    0.0459270   -0.0186550   -0.0038622
c     1.8152813   -0.7334749   -0.0935467  0.00   -0.0174087   -0.0296624    0.0010765
h    -0.1735247   -1.7074860    0.0959898  0.00    0.0051752    0.0065679   -0.0000671
c     3.5758549    1.1589532   -0.3200250  0.00    0.0024152   -0.0002697   -0.0048847
c     4.7561123    0.2172616    0.0266823  0.00    0.0260491    0.0435922   -0.0088872
h     3.6339094    2.0313426    0.3621563  0.00   -0.0012936   -0.0012841   -0.0027961
h     3.7084025    1.5574130   -1.3495041  0.00   -0.0003993    0.0008866    0.0021148
c     5.0311512   -0.7950360   -1.0842219  0.00   -0.0877460   -0.0892108   -0.0388415
n     4.5680223   -0.4808635    1.3346346  0.00    0.0015211   -0.0488688   -0.0102824
h     5.6783586    0.8409396    0.0744115  0.00   -0.0003124   -0.0043614    0.0031177
h     5.3835583   -0.2203393    1.9684614  0.00    0.0233737    0.0130395    0.0150104
h     3.7020539   -0.1152126    1.8312084  0.00   -0.0264118    0.0113891    0.0042479
h    -2.5215294    2.7343776   -0.0538870  0.00   -0.0014654    0.0005301    0.0000553
h    -2.1660709    0.2850830    0.0381510  0.00   -0.0031784   -0.0005155    0.0000459
h    -0.5984726    4.2583509   -0.2259603  0.00    0.0003761    0.0018259    0.0001681
h     1.6906598    3.3631173   -0.3233664  0.00    0.0016508    0.0021423    0.0002696
h     2.4853096   -1.5919920   -0.0074211  0.00    0.0114240   -0.0095723   -0.0091171
o     4.1631435   -1.7479993   -1.4447523  0.00    0.0401807    0.0627002    0.0380583
o     6.3174141   -0.8179306   -1.5934830  0.00   -0.0136875    0.0473136   -0.0200511
h     6.7583159   -1.6537180   -1.1702425  0.00    0.0128101   -0.0283066    0.0335380
    27
 Energy =       0.2152357931
c    -1.5040351    2.3445511   -0.0767193  0.00   -0.0145360    0.0111072    0.0008534
c    -1.3185069    0.9847243    0.0083390  0.00   -0.0249064   -0.0113149    0.0003669
c    -0.0417414    0.5064428   -0.0525300  0.00   -0.0244716   -0.0477337   -0.0010906
c    -0.4273015    3.1903080   -0.2184443  0.00   -0.0052564    0.0214106    0.0009712
c     0.8487606    2.6858493   -0.2856714  0.00    0.0046516    0.0196527    0.0003819
c     1.0251218    1.3259331   -0.1993609  0.00    0.0146149    0.0166977    0.0006008
n     0.3926809   -0.8314960    0.0781728  0.00    0.0327889    0.0263663   -0.0010575
c     2.1700621    0.5751284   -0.2150664  0.00    0.0399801   -0.0165655   -0.0032144
c     1.8082825   -0.7256808   -0.0487961  0.00   -0.0150385   -0.0265061    0.0007084
h    -0.1810242   -1.6882769    0.2336943  0.00    0.0035077    0.0042400    0.0002526
c     3.5713546    1.1464233   -0.3915188  0.00    0.0027316   -0.0010238   -0.0043074
c     4.7554584    0.2209887   -0.0074584  0.00    0.0223804    0.0396425   -0.0083363
h     3.6500322    2.0633403    0.2324047  0.00   -0.0007356    0.0012082   -0.0009600
h     3.6835496    1.4759089   -1.4503521  0.00   -0.0000298    0.0017338   -0.0008390
c     5.0323049   -0.8426198   -1.0713461  0.00   -0.0777498   -0.0791713   -0.0344065
n     4.5731425   -0.4163910    1.3312894  0.00    0.0016178   -0.0451809   -0.0082277
h     5.6769885    0.8485493    0.0069101  0.00    0.0000217   -0.0031951    0.0028276
h     5.4061738   -0.1582368    1.9401391  0.00    0.0211471    0.0118644    0.0137050
h     3.7283783   -0.0103158    1.8310640  0.00   -0.0244500    0.0103122    0.0051400
h    -2.5106248    2.7549065   -0.0263295  0.00   -0.0013742    0.0004168    0.0000567
h    -2.1610149    0.3087837    0.1337983  0.00   -0.0033308   -0.0010348    0.0001214
h    -0.5861308    4.2658098   -0.2803467  0.00    0.0004492    0.0020775    0.0001172
h     1.6961124    3.3592789   -0.3984360  0.00    0.0020143    0.0024569    0.0001689
h     2.4797464   -1.5809478    0.0455286  0.00    0.0099307   -0.0085212   -0.0079531
o     4.1334346   -1.7779114   -1.4274409  0.00    0.0345787    0.0549153    0.0335045
o     6.3273536   -0.9241899   -1.5554856  0.00   -0.0125782    0.0471046   -0.0217380
h     6.7092951   -1.8124711   -1.1828520  0.00    0.0140426   -0.0309594    0.0323539
    27
 Energy =       0.2097732612
c    -1.4975291    2.3478299   -0.0422578  0.00   -0.0119093    0.0086834    0.0007216
c    -1.3095811    0.9938360    0.0862554  0.00   -0.0195874   -0.0097698    0.0002413
c    -0.0372245    0.5144867    0.0184011  0.00   -0.0194753   -0.0375690   -0.0012752
c    -0.4248039    3.1869066   -0.2337436  0.00   -0.0034250    0.0174389    0.0007545
c     0.8475283    2.6800089   -0.3091681  0.00    0.0038337    0.0162615    0.0003337
c     1.0230759    1.3262257   -0.1789939  0.00    0.0118346    0.0132499    0.0005125
n     0.3952565   -0.8212667    0.1905457  0.00    0.0253362    0.0201106   -0.0003643
c     2.1640258    0.5794028   -0.1948825  0.00    0.0308150   -0.0122729   -0.0025360
c     1.8095679   -0.7140297    0.0248857  0.00   -0.0120260   -0.0214332    0.0003565
h    -0.1752928   -1.6725942    0.3924474  0.00    0.0017761    0.0018497    0.0005660
c     3.5614912    1.1420945   -0.4336225  0.00    0.0028948   -0.0006796   -0.0034045
c     4.7572280    0.2264058   -0.0585717  0.00    0.0174239    0.0317160   -0.0074356
h     3.6621789    2.0779217    0.1597078  0.00   -0.0002724    0.0016285   -0.0002499
h     3.6408599    1.4368146   -1.5063961  0.00    0.0001047    0.0016588   -0.0017870
c     5.0126307   -0.8651241   -1.0997364  0.00   -0.0603133   -0.0614363   -0.0268783
n     4.6096980   -0.3691254    1.3013811  0.00    0.0010278   -0.0375604   -0.0074414
h     5.6777510    0.8567890   -0.0871085  0.00    0.0007146   -0.0019100    0.0021792
h     5.4733823   -0.1312623    1.8707412  0.00    0.0182762    0.0100316    0.0120561
h     3.8017457    0.0735287    1.8265713  0.00   -0.0210447    0.0086898    0.0057313
h    -2.5029588    2.7597117    0.0133882  0.00   -0.0011259    0.0002820    0.0000503
h    -2.1484770    0.3217930    0.2517127  0.00   -0.0031567   -0.0014644    0.0002022
h    -0.5846781    4.2599170   -0.3297618  0.00    0.0004838    0.0022628    0.0000356
h     1.6927563    3.3483405   -0.4628890  0.00    0.0021652    0.0025955    0.0000324
h     2.4893587   -1.5608829    0.1294263  0.00    0.0075908   -0.0067883   -0.0058615
o     4.0750043   -1.7804280   -1.4489315  0.00    0.0259414    0.0422402    0.0256863
o     6.3003344   -0.9895232   -1.5962281  0.00   -0.0140396    0.0494783   -0.0218778
h     6.6245246   -1.9393876   -1.3299864  0.00    0.0161568   -0.0372937    0.0296522
    27
 Energy =       0.2065470529
c    -1.4879464    2.3591530    0.0003168  0.00   -0.0102686    0.0071574    0.0006440
c    -1.2988861    1.0104845    0.1642128  0.00   -0.0163398   -0.0087257    0.0002123
c    -0.0302264    0.5283338    0.0892386  0.00   -0.0163991   -0.0314065   -0.0012235
c    -0.4182844    3.1902630   -0.2329920  0.00   -0.0023545    0.0149443    0.0005755
c     0.8506531    2.6795219   -0.3160761  0.00    0.0033424    0.0140682    0.0002542
c     1.0252158    1.3313307   -0.1503757  0.00    0.0101189    0.0110888    0.0004171
n     0.4008250   -0.8045559    0.2923117  0.00    0.0207716    0.0164141   -0.0000687
c     2.1626026    0.5854913   -0.1678120  0.00    0.0252307   -0.0094586   -0.0021625
c     1.8131250   -0.7001250    0.0961234  0.00   -0.0103097   -0.0183177    0.0002611
h    -0.1671258   -1.6493044    0.5305503  0.00    0.0008666    0.0006252    0.0007219
c     3.5555438    1.1388326   -0.4557032  0.00    0.0025430   -0.0002780   -0.0028221
c     4.7593179    0.2182261   -0.1167877  0.00    0.0146548    0.0266213   -0.0068042
h     3.6804841    2.0774150    0.1289673  0.00   -0.0001479    0.0015817    0.0000533
h     3.6011276    1.4255267   -1.5328031  0.00    0.0001286    0.0014580   -0.0020657
c     4.9705090   -0.8876108   -1.1540022  0.00   -0.0498775   -0.0499067   -0.0223287