24
UFF-Energy = 0.0560312
C     0.6977779    2.5251473   -0.1798918 
C    -0.4599488    2.3814427    0.5055049 
C    -0.9388081    1.1449034    0.7729524 
C     1.3889433    1.4308134   -0.5889415 
C     0.9195964    0.1822390   -0.3120274 
C    -0.2545723    0.0454848    0.3651515 
O    -1.1634549    3.5050097    0.9285464 
H    -0.8569792    3.7925985    1.8511086 
H    -0.6546636   -0.9422150    0.5803695 
H     2.3133762    1.5627516   -1.1467224 
H     1.0604912    3.5223421   -0.4037824 
H    -1.8766400    1.0444834    1.3089731 
C     1.6729664   -1.0423127   -0.7842724 
C     1.1460676   -1.5644462   -2.1309667 
H     1.5889578   -1.8471992   -0.0214134 
H     2.7616790   -0.8261387   -0.8803066 
C     1.3884520   -0.5646724   -3.2576707 
O     0.3831329   -0.2982343   -4.1788700 
O     2.6255337    0.0521509   -3.4088538 
H     2.5903986    0.6472728   -4.2266498 
N     1.7837479   -2.8740221   -2.3811341 
H     0.0385767   -1.6875414   -2.0617973 
H     1.0581277   -3.6280046   -2.3412560 
H     2.2002015   -2.9193041   -3.3433664 
