24
UFF-Energy = 0.074068
C     0.5884447    1.9194772    1.0259132 
C    -0.3261844    2.5648705    0.2669716 
C    -0.4984076    2.2015498   -1.0317715 
C     1.3331892    0.9142287    0.4996388 
C     1.1674620    0.5493594   -0.8012713 
C     0.2436673    1.1970971   -1.5633774 
O    -1.0748719    3.5941161    0.8463502 
H    -1.7377415    4.0324738    0.2162732 
H     0.0939914    0.9143752   -2.6026847 
H     2.0605655    0.4056964    1.1264966 
H     0.7155029    2.2182174    2.0610716 
H    -1.2307006    2.7129511   -1.6465144 
C     1.9791635   -0.5830514   -1.3904265 
C     1.1704782   -1.9020108   -1.4546365 
H     2.9187764   -0.7356812   -0.8133623 
H     2.3016907   -0.2923977   -2.4173902 
C     1.9006533   -2.9658806   -2.2723442 
O     1.4558429   -3.2506381   -3.5579914 
O     3.0471454   -3.6083611   -1.8032582 
H     3.2639276   -3.3354083   -0.8582472 
N     0.8349580   -2.3813468   -0.0995656 
H     0.2234894   -1.7186872   -2.0158786 
H     1.6524893   -2.2859858    0.5474775 
H     0.0669964   -1.7885339    0.2964178 
