24
UFF-Energy = 0.0885332
C     1.1996076    2.1392296    1.0044787 
C     0.0276087    2.4584528    0.4088565 
C    -0.4816276    1.6580587   -0.5559182 
C     1.8705416    1.0194715    0.6330322 
C     1.3625198    0.2070705   -0.3358432 
C     0.1837669    0.5364988   -0.9332309 
O    -0.6574473    3.6067181    0.7923907 
H    -0.3595050    4.4040229    0.2409041 
H    -0.2345521   -0.0952928   -1.7128863 
H     2.8173047    0.7811780    1.1136387 
H     1.5933581    2.7869102    1.7805038 
H    -1.4260640    1.9218298   -1.0206400 
C     2.1201118   -1.0267285   -0.7742895 
C     2.9897261   -0.7522976   -2.0237716 
H     1.3961209   -1.8431717   -0.9914138 
H     2.7652470   -1.3994817    0.0550271 
C     4.0308881    0.3275719   -1.7664535 
O     5.0260760    0.1331084   -0.8155983 
O     3.9333584    1.5593194   -2.4022107 
H     3.2400716    2.1198445   -1.9294067 
N     3.6184969   -2.0059024   -2.4751573 
H     2.3508090   -0.3580465   -2.8477261 
H     4.2510240   -2.3797011   -1.7258481 
H     2.8876128   -2.7308998   -2.6665327 
