24
UFF-Energy = 0.0897896
C     0.9164381    2.7379461    0.2862176 
C     0.3567351    2.2303315    1.4076366 
C     0.2257994    0.8837588    1.5428484 
C     1.3484905    1.9135544   -0.7012929 
C     1.2249141    0.5631614   -0.5696313 
C     0.6561593    0.0542416    0.5586472 
O    -0.0752760    3.1128344    2.4028162 
H    -0.4845223    2.6567844    3.2110627 
H     0.5390930   -1.0197118    0.6783157 
H     1.7946358    2.3445807   -1.5938064 
H     1.0133258    3.8139868    0.1893421 
H    -0.2248520    0.4675707    2.4375052 
C     1.7046210   -0.3665710   -1.6684472 
C     2.9475219   -1.2064348   -1.2483163 
H     1.9448792    0.2012945   -2.5968812 
H     0.8469189   -1.0303972   -1.9036729 
C     3.4337308   -2.2128720   -2.3062614 
O     4.7299652   -2.7057113   -2.2075883 
O     2.6184695   -2.7513661   -3.3077166 
H     1.6678085   -2.4320635   -3.2877581 
N     4.0680880   -0.3205926   -0.8572963 
H     2.6563709   -1.8446510   -0.3827248 
H     3.8299276    0.6973868   -0.8563741 
H     4.3991407   -0.5634921    0.1063722 
