24
UFF-Energy = 0.0838842
C     1.1214368    2.1347714    0.8927393 
C     0.2178462    2.7730568    0.1142448 
C    -0.2436268    2.1814989   -1.0112689 
C     1.5615919    0.8969310    0.5519780 
C     1.0996509    0.2922955   -0.5785194 
C     0.1919517    0.9436892   -1.3592034 
O    -0.2316044    4.0416609    0.4667409 
H    -1.0456805    3.9798646    1.0683339 
H    -0.1901507    0.4821559   -2.2659472 
H     2.2867313    0.3951275    1.1875134 
H     1.4908385    2.6258511    1.7863987 
H    -0.9607661    2.7088734   -1.6316424 
C     1.5963168   -1.0868181   -0.9600691 
C     3.0545166   -1.0669399   -1.4907612 
H     0.9319592   -1.5593871   -1.7188733 
H     1.5341425   -1.7428147   -0.0615647 
C     3.6363776   -2.4809080   -1.5894707 
O     2.7910752   -3.5821727   -1.6619951 
O     5.0130550   -2.6879570   -1.6573523 
H     5.5235943   -1.8162849   -1.6662533 
N     3.1572857   -0.3222335   -2.7694888 
H     3.6873673   -0.5460849   -0.7379318 
H     3.5419115   -0.9250563   -3.5376313 
H     2.2276243    0.0117478   -3.1136534 
