24
UFF-Energy = 0.0802884
C     1.8899880    2.5573357   -0.0020957 
C     0.5860525    2.9368402    0.0486513 
C    -0.3838397    2.0296165   -0.2038529 
C     2.2161715    1.2753813   -0.3052233 
C     1.2404678    0.3557192   -0.5514696 
C    -0.0643118    0.7451516   -0.5041053 
O     0.2153714    4.2508055    0.3527083 
H     0.9971657    4.8636428    0.5579113 
H    -0.8618599    0.0352171   -0.7048477 
H     3.2651085    0.9905258   -0.3401805 
H     2.6750526    3.2773866    0.2016120 
H    -1.4201734    2.3466045   -0.1607143 
C     1.6009967   -1.0810439   -0.8887155 
C     2.0140764   -1.9341768    0.3421112 
H     2.4301529   -1.0777349   -1.6314825 
H     0.7495978   -1.5826179   -1.4005182 
C     3.2855335   -1.4066173    1.0105255 
O     3.2061097   -0.5552583    2.1067954 
O     4.5457563   -1.6734676    0.4700433 
H     4.4975087   -2.2946926   -0.3233492 
N     0.9073923   -2.0737466    1.3120129 
H     2.2759408   -2.9472302   -0.0414692 
H     0.0415032   -1.5675594    1.0190242 
H     0.6496955   -3.0821982    1.4236706 
