24
UFF-Energy = 0.0835277
C     1.7014811    2.6146612   -0.0748008 
C     0.3695077    2.7925799   -0.2317888 
C    -0.4117741    1.7559532   -0.6131350 
C     2.2569878    1.3953549   -0.2935641 
C     1.4769644    0.3474047   -0.6797711 
C     0.1362912    0.5335082   -0.8331890 
O    -0.1962981    4.0433334   -0.0069666 
H    -0.4700645    4.1443693    0.9641196 
H    -0.5038750   -0.2908786   -1.1372376 
H     3.3275971    1.2601502   -0.1538922 
H     2.3159367    3.4569788    0.2247690 
H    -1.4771684    1.9148268   -0.7435444 
C     2.0885350   -1.0172555   -0.9070382 
C     2.0167092   -1.8984103    0.3546226 
H     3.1556773   -0.9199916   -1.2160847 
H     1.5685759   -1.5170680   -1.7551425 
C     2.4099475   -3.3302853    0.0207017 
O     3.6348024   -3.6105001   -0.5690476 
O     1.5340174   -4.3742394    0.2876064 
H     0.8029371   -4.3834440   -0.4078861 
N     2.8887732   -1.3187745    1.3949239 
H     0.9634632   -1.9496801    0.7194134 
H     2.3820729   -0.5360880    1.8708703 
H     3.0783791   -2.0336162    2.1399241 
