24
UFF-Energy = 0.039437
C     1.0675996    2.3173834    0.7672025 
C    -0.1028029    2.4957434    0.1128471 
C    -0.5274083    1.5717740   -0.7792867 
C     1.8122346    1.2047742    0.5418009 
C     1.3840969    0.2624105   -0.3450225 
C     0.2124972    0.4577420   -1.0120440 
O    -0.8647821    3.6353249    0.3491229 
H    -1.5053011    3.4868827    1.1211291 
H    -0.1379781   -0.2720808   -1.7379291 
H     2.7592675    1.0788123    1.0642025 
H     1.4046047    3.0784780    1.4629040 
H    -1.4597242    1.7355742   -1.3098533 
C     2.2198090   -0.9698190   -0.6206925 
C     3.1952009   -0.7577640   -1.7943395 
H     1.5514784   -1.8292636   -0.8472006 
H     2.7990731   -1.2704794    0.2824270 
C     4.2491411    0.2903411   -1.4750658 
O     4.8168269    0.3816955   -0.2071142 
O     4.6686143    1.1643657   -2.4675437 
H     5.3896700    1.7661864   -2.0900642 
N     3.8100407   -2.0550349   -2.1236122 
H     2.6395712   -0.3640798   -2.6791349 
H     3.1041465   -2.6555966   -2.6099358 
H     4.5835991   -1.9016273   -2.8163319 
