24
UFF-Energy = 0.0703469
C     1.7744293    2.7522523    0.3095092 
C     0.6449658    3.1465759   -0.3362029 
C    -0.1094408    2.2300601   -0.9839944 
C     2.1421078    1.4466480    0.3043663 
C     1.3819213    0.5209989   -0.3441358 
C     0.2532887    0.9224813   -0.9924243 
O     0.2382106    4.4844653   -0.3516826 
H     0.8565588    5.1101853    0.1531544 
H    -0.3638692    0.2020695   -1.5253097 
H     3.0514838    1.1489330    0.8194695 
H     2.3886502    3.4793500    0.8288803 
H    -1.0064951    2.5581578   -1.4982205 
C     1.8031502   -0.9351082   -0.3711197 
C     2.7673094   -1.2513075   -1.5373394 
H     0.9032353   -1.5877683   -0.4476550 
H     2.2882434   -1.2021247    0.5934620 
C     2.1237694   -0.9756987   -2.8927641 
O     0.8987991   -1.5513308   -3.2051212 
O     2.7428842   -0.1674496   -3.8358059 
H     2.4683503    0.7865703   -3.6548097 
N     4.0260323   -0.5085098   -1.3440259 
H     2.9777552   -2.3454105   -1.5316534 
H     4.5077429   -0.8668745   -0.4864229 
H     4.6720874   -0.7092154   -2.1454164 
