24
UFF-Energy = 0.0783479
C     2.5339532    2.2729431   -0.3146243 
C     1.4196526    2.9713381    0.0042542 
C     0.2147862    2.3565720    0.0124717 
C     2.4479671    0.9531876   -0.6206424 
C     1.2377039    0.3283159   -0.6174345 
C     0.1206735    1.0378039   -0.2928049 
O     1.5124843    4.3237354    0.3187990 
H     1.6892499    4.4480946    1.3101026 
H    -0.8522185    0.5520840   -0.2644200 
H     3.3523664    0.4022152   -0.8646142 
H     3.4921941    2.7806725   -0.3212673 
H    -0.6712717    2.9266726    0.2705734 
C     1.1415407   -1.1506116   -0.9220110 
C     1.3582245   -2.0058376    0.3485514 
H     1.9018164   -1.4190981   -1.6894944 
H     0.1534721   -1.3824486   -1.3786490 
C     0.3086023   -1.7342112    1.4265677 
O     0.6990020   -1.1160102    2.6082847 
O    -1.0433237   -2.0261847    1.2398589 
H    -1.2028387   -2.4977453    0.3648222 
N     1.4201159   -3.4335813   -0.0150766 
H     2.3272155   -1.7155914    0.8220578 
H     0.5987901   -3.7061451   -0.6054149 
H     2.2808358   -3.6165508   -0.5834669 
