24
UFF-Energy = 0.0811347
C     2.0102836    2.5805691   -0.1007253 
C     0.7477940    2.9717368    0.2196206 
C    -0.2673153    2.0816142    0.1435424 
C     2.2493976    1.3050819   -0.4985490 
C     1.2261720    0.4112135   -0.5872889 
C    -0.0346857    0.8060001   -0.2558664 
O     0.4671773    4.2788994    0.6292445 
H     1.2817830    4.8810762    0.6774039 
H    -0.8626173    0.1007772   -0.2973427 
H     3.2651321    1.0054246   -0.7440576 
H     2.8315855    3.2863413   -0.0367588 
H    -1.2680623    2.4023210    0.4124140 
C     1.4962772   -1.0179344   -1.0091919 
C     1.8504485   -1.9194008    0.1985310 
H     2.3330608   -1.0338686   -1.7422159 
H     0.6084469   -1.4375626   -1.5364448 
C     0.6996807   -2.0059704    1.1894552 
O     0.9065755   -1.7060440    2.5292074 
O    -0.5711745   -2.3787121    0.7685775 
H    -0.6091616   -3.3880084    0.7696683 
N     2.2429736   -3.2713781   -0.2579548 
H     2.6946492   -1.4480770    0.7567296 
H     2.2248611   -3.3715619   -1.3006899 
H     3.2236011   -3.4773878    0.0486935 
