24
UFF-Energy = 3.27979
C     0.5150495    1.9895863    0.8702102 
C    -0.6880238    1.4970001    1.2722433 
C    -1.0842591    0.2854111    0.8309645 
C     1.3293350    1.2735382    0.0315271 
C     0.9098995    0.0471237   -0.4021259 
C    -0.2950368   -0.4392522    0.0035101 
O    -1.5321635    2.2190809    2.1328127 
H    -1.1140399    3.0957027    2.4170929 
H    -0.6310929   -1.4165327   -0.3226099 
H     3.9226513    2.6047528   -0.8180647 
H     0.8482695    2.9612097    1.2136837 
H    -2.0396680   -0.1036689    1.1539708 
C     1.8159029   -0.7914397   -1.2615678 
C     3.1587344   -1.0619388   -0.5492578 
H     1.9913935   -0.2453051   -2.2122426 
H     1.3403266   -1.7582544   -1.5251656 
C     3.9278149    0.2383439   -0.4039408 
O     5.1204247    0.4352865   -1.0968611 
O     3.3645381    1.3820386    0.2156161 
H     2.4506367    2.3819540   -0.8015333 
N     2.9586658   -1.7371354    0.7483246 
H     3.7700368   -1.7231551   -1.1980108 
H     2.5282882   -1.0302437    1.3996511 
H     2.2467538   -2.4930935    0.6361963 
