24
UFF-Energy = -0.0498824
C     2.4244818    2.2967893    0.1787464 
C     1.2799435    2.9957373   -0.0459910 
C     0.1856412    2.3524828   -0.5123658 
C     2.4693148    0.9625522   -0.0652070 
C     1.3682844    0.3131038   -0.5352634 
C     0.2251253    1.0188803   -0.7588216 
O     1.2027523    4.3727482    0.1910100 
H     2.0552216    4.7830073    0.5544617 
H    -0.6679542    0.5200623   -1.1274053 
H     3.3909096    0.4156767    0.1176757 
H     3.3049967    2.8053649    0.5531981 
H    -0.7259774    2.9150524   -0.6836662 
C     1.4269570   -1.1769679   -0.8081999 
C     1.4122374   -2.0261925    0.4799873 
H     2.3584295   -1.3919625   -1.3769255 
H     0.5952964   -1.5064978   -1.4702031 
C     0.0123243   -2.1323306    1.1042523 
O    -1.0101749   -1.2817934    0.7180093 
O    -0.2404462   -3.0037198    2.1513231 
H     0.4698201   -3.7130131    2.0834384 
N     2.0089528   -3.3351885    0.1412630 
H     2.0405669   -1.5264446    1.2520527 
H     2.9698514   -3.4395584    0.5524858 
H     1.4176467   -4.1616293    0.3706969 
