24
UFF-Energy = 0.0788646
C     2.0750297    2.4993067   -0.1094210 
C     0.8106893    2.9753550   -0.0562666 
C    -0.2349147    2.1436841   -0.2657969 
C     2.2988727    1.1853569   -0.3647501 
C     1.2509997    0.3351841   -0.5620980 
C    -0.0198485    0.8272613   -0.5181543 
O     0.5853444    4.3232640    0.2036734 
H     0.4972397    4.4840040    1.2013846 
H    -0.8724795    0.1747900   -0.6866091 
H     3.3225041    0.8188168   -0.3987788 
H     2.9036306    3.1796365    0.0547968 
H    -1.2436201    2.5420336   -0.2327755 
C     1.4966166   -1.1377044   -0.8386899 
C     1.8410679   -1.9636575    0.4297536 
H     2.3238860   -1.2320946   -1.5776171 
H     0.6080356   -1.5928190   -1.3308730 
C     3.1567210   -1.5055751    1.0719452 
O     3.1472281   -0.5662122    2.0969033 
O     4.3893733   -1.9248814    0.5711896 
H     4.2940009   -2.5992773   -0.1731474 
N     0.6987572   -2.0254655    1.3736472 
H     2.0281979   -3.0084079    0.0960194 
H     0.9605012   -1.6505597    2.3180948 
H    -0.1131720   -1.4481456    1.0595439 
