24
UFF-Energy = 0.0910151
C     1.6788903    1.6926087    1.1694174 
C     1.0824014    2.7158997    0.5152038 
C     0.7064965    2.5664363   -0.7757955 
C     1.8953542    0.5118112    0.5357698 
C     1.5200666    0.3542061   -0.7641160 
C     0.9199126    1.3887549   -1.4161839 
O     0.8612165    3.9247191    1.1677128 
H    -0.0408276    3.9231366    1.6308217 
H     0.6123130    1.2823718   -2.4532464 
H     2.3694009   -0.3052705    1.0748788 
H     1.9831407    1.8294273    2.2014789 
H     0.2380527    3.3979009   -1.2917710 
C     1.7451904   -0.9635581   -1.4714267 
C     0.4764105   -1.8419966   -1.4757395 
H     2.5749287   -1.5307561   -0.9875687 
H     2.0809360   -0.7605598   -2.5133778 
C     0.6384101   -3.0095514   -2.4393143 
O     1.5326489   -4.0371111   -2.1706522 
O    -0.0646963   -3.0223273   -3.6375116 
H     0.3725018   -2.3840702   -4.2855014 
N     0.2053297   -2.3023739   -0.1011924 
H    -0.3915483   -1.2562594   -1.8609022 
H    -0.1622046   -1.5034272    0.4669011 
H    -0.5566057   -3.0224710   -0.1145201 
