24
UFF-Energy = 0.0775882
C     1.1154976    1.9995904    0.9897545 
C    -0.1631985    2.1714792    0.5820819 
C    -0.7023728    1.3288131   -0.3286537 
C     1.8582670    0.9777515    0.4931305 
C     1.3191464    0.1199222   -0.4172343 
C     0.0339359    0.3043714   -0.8294702 
O    -0.9207243    3.2216726    1.0911462 
H    -1.4068240    2.9361175    1.9340630 
H    -0.4092901   -0.3610559   -1.5664246 
H     2.8856447    0.8527338    0.8268995 
H     1.5384902    2.6901049    1.7112119 
H    -1.7246164    1.4849456   -0.6566980 
C     2.1532645   -1.0067727   -0.9852683 
C     3.0995260   -0.5206072   -2.1070873 
H     1.5014821   -1.8184495   -1.3798807 
H     2.7417988   -1.4640850   -0.1558470 
C     4.1545044   -1.5769904   -2.4221791 
O     4.8948781   -2.1437599   -1.3934967 
O     4.4329585   -1.9521304   -3.7292647 
H     3.7829550   -2.6771069   -3.9931552 
N     2.2956892   -0.1688220   -3.2927145 
H     3.6740627    0.3679686   -1.7554627 
H     1.7371711    0.6916301   -3.0824048 
H     2.9388188    0.1072430   -4.0739879 
