24
UFF-Energy = 0.0645456
C     1.7277251    2.6770167    0.2480023 
C     0.6494854    3.1464291   -0.4346647 
C    -0.1097519    2.2903414   -1.1554569 
C     2.0394974    1.3568767    0.2062669 
C     1.2735629    0.4934917   -0.5162118 
C     0.1971310    0.9690737   -1.2008143 
O     0.3009154    4.5006752   -0.4142065 
H     0.9162052    5.0773794    0.1494179 
H    -0.4224502    0.2986186   -1.7905787 
H     2.9061930    0.9959227    0.7548142 
H     2.3435668    3.3562076    0.8275887 
H    -0.9657360    2.6785964   -1.6966669 
C     1.6325195   -0.9753603   -0.5742309 
C     2.8079116   -1.2573498   -1.5457972 
H     0.7501601   -1.5888107   -0.8638574 
H     1.9006624   -1.3114843    0.4542010 
C     3.3101723   -2.7021317   -1.4364379 
O     3.0794284   -3.4307722   -0.2752429 
O     4.0794046   -3.2853900   -2.4407185 
H     4.1714927   -2.6583845   -3.2266860 
N     2.4182432   -0.9182995   -2.9295314 
H     3.6827495   -0.6341267   -1.2474702 
H     1.5062421   -1.3744463   -3.1757210 
H     2.2848096    0.1177708   -3.0196220 
