24
UFF-Energy = 0.0639716
C     1.5336778    2.6376180   -0.0410468 
C     0.2254298    2.7907167    0.2690385 
C    -0.6232410    1.7429338    0.1606645 
C     1.9999602    1.4322117   -0.4557675 
C     1.1509133    0.3730391   -0.5702400 
C    -0.1646971    0.5345930   -0.2532801 
O    -0.2486397    4.0276846    0.6939154 
H    -0.1637891    4.1162458    1.7008906 
H    -0.8548782   -0.3040112   -0.3200461 
H     3.0549191    1.3207755   -0.6927397 
H     2.2013261    3.4879056    0.0462796 
H    -1.6701986    1.8784594    0.4110316 
C     1.6736537   -0.9807561   -1.0017930 
C     2.2477998   -1.7846301    0.1892700 
H     2.4663121   -0.8398665   -1.7698504 
H     0.8641778   -1.5713111   -1.4890493 
C     1.1895660   -2.0262713    1.2576976 
O     0.0752064   -2.8124518    0.9837886 
O     1.3077355   -1.4255986    2.5037214 
H     0.5206109   -1.7048630    3.0748612 
N     2.8848222   -3.0386914   -0.2865063 
H     3.0295820   -1.1711686    0.6943891 
H     2.4068864   -3.8825000    0.1160672 
H     2.8213653   -3.1536547   -1.3254039 
