24
UFF-Energy = 0.0313437
C     0.4882454    2.1587970    0.5462543 
C     1.0201329    3.2420703   -0.0498779 
C     2.1244335    3.1173441   -0.8237246 
C     1.0579278    0.9319352    0.3840165 
C     2.1756039    0.8003276   -0.3911497 
C     2.6973813    1.9072255   -0.9952340 
O     0.3993809    4.4698358    0.1541633 
H     0.8419864    5.2488896   -0.3232404 
H     3.5663122    1.8278964   -1.6386348 
H     0.6140474    0.0515359    0.8621387 
H    -0.4065016    2.3170766    1.1463490 
H     2.5545933    3.9805014   -1.3128511 
C     2.8359656   -0.5570731   -0.5816937 
C     2.3931100   -1.2998629   -1.8710583 
H     2.6333059   -1.2096917    0.2966622 
H     3.9410243   -0.4302541   -0.5938731 
C     0.8820951   -1.5593392   -1.8957185 
O     0.1863539   -1.6701298   -0.6872033 
O     0.1635344   -1.7036903   -3.0868305 
H     0.7454966   -1.6746497   -3.9146738 
N     2.8677551   -0.6100894   -3.0822627 
H     2.8910026   -2.2938849   -1.8486997 
H     2.3867100    0.3111653   -3.1954476 
H     3.8942869   -0.4256448   -2.9987225 
