24
UFF-Energy = 0.0579536
C     0.4823514    2.3235140    0.3391947 
C    -0.3287766    2.5536618   -0.7186967 
C    -0.4226050    1.6395475   -1.7116490 
C     1.2078366    1.1778608    0.4056687 
C     1.1177404    0.2524042   -0.5902201 
C     0.3019143    0.4930360   -1.6537994 
O    -1.0711383    3.7285051   -0.7828341 
H    -0.5406768    4.4632322   -1.2386957 
H     0.2233611   -0.2292201   -2.4628146 
H     1.8697233    1.0092178    1.2543035 
H     0.5443295    3.0660545    1.1275344 
H    -1.0813982    1.8336939   -2.5516214 
C     1.9490909   -1.0109315   -0.5371331 
C     3.3259607   -0.8183587   -1.2017724 
H     1.4114070   -1.8401285   -1.0500345 
H     2.0822267   -1.3459218    0.5169945 
C     4.1891425    0.2011248   -0.4544126 
O     4.2818541    0.1388086    0.9312408 
O     4.9139062    1.1834024   -1.1277933 
H     4.8209671    1.1171972   -2.1299033 
N     3.9829539   -2.1324444   -1.2910051 
H     3.1569946   -0.4308482   -2.2324500 
H     4.9001159   -2.0275259   -1.7881991 
H     4.2178726   -2.4671047   -0.3242870 
