    27
 Energy =       0.3589243205
c    -1.4235396    2.6054793   -0.0667700  0.00   -0.0462685    0.0382621    0.0028835
c    -1.3072796    1.2134697   -0.1072300  0.00   -0.0852628   -0.0325937    0.0021819
c    -0.0178900    0.6711998   -0.1697000  0.00   -0.0894671   -0.1873603   -0.0019325
c    -0.2940599    3.4190890   -0.0891300  0.00   -0.0231742    0.0690334    0.0030400
c     0.9872197    2.8590292   -0.1560400  0.00    0.0105700    0.0639765    0.0011570
c     1.1340797    1.4562096   -0.1970299  0.00    0.0531110    0.0521531    0.0016405
n     0.3879399   -0.6395298   -0.2140799  0.00    0.1482932    0.1078623    0.0014309
c     2.2666594    0.5727398   -0.2659299  0.00    0.1523314   -0.0705555   -0.0018550
c     1.7555995   -0.7123598   -0.2706899  0.00   -0.0443089   -0.1118176    0.0693706
h    -0.2400399   -1.4313496   -0.2047299  0.00    0.0354733    0.0478592   -0.0021628
c     3.7030089    1.0223397   -0.3320099  0.00   -0.0127574   -0.0208209    0.0179197
c     4.7465686   -0.0024900    0.1378100  0.00    0.0057918    0.0410741   -0.0751362
h     3.7978489    1.9290294    0.2803699  0.00    0.0001144   -0.0099534   -0.0117216
h     3.9233889    1.3348996   -1.3618196  0.00   -0.0048904    0.0012313    0.0136665
c     4.2682788   -0.6309508    1.4598596  0.00   -0.3091136   -0.1416794    0.1202618
n     6.1061283    0.5956748    0.3870399  0.00    0.0665388   -0.0030026    0.1034452
h     4.8578986   -0.8184518   -0.5859768  0.00    0.0063459    0.0136256    0.0112532
h     6.0567283    1.5811395    0.1086060  0.00   -0.0216461   -0.0326275    0.0106182
h     6.2469182    0.6340138    1.4027096  0.00   -0.2337048   -0.2184666    0.1574614
h    -2.4108593    3.0588691   -0.0157800  0.00   -0.0009186    0.0003132   -0.0000447
h    -2.1896094    0.5822398   -0.0890100  0.00   -0.0036316    0.0037561   -0.0001175
h    -0.4052699    4.5000487   -0.0535400  0.00    0.0008728    0.0003841    0.0002167
h     1.8590495    3.5066790   -0.1715100  0.00   -0.0005228    0.0027734    0.0006105
h     2.2327294   -1.6813195   -0.3062999  0.00   -0.0283446   -0.0042769    0.0237691
o     3.2003091   -1.1944397    1.6325595  0.00    0.1955891    0.1499277   -0.1362778
o     5.2000885   -0.4831479    2.4398893  0.00    0.2182728    0.2381402   -0.2704779
h     4.7363986    0.0164159    3.1610291  0.00    0.0107070    0.0027822   -0.0412006
    27
 Energy =       0.2945451785
c    -1.3715261    2.6343319   -0.0838814  0.00   -0.0282429    0.0232876    0.0016532
c    -1.2669676    1.2549174   -0.1081135  0.00   -0.0528870   -0.0208030    0.0010693
c    -0.0038017    0.7057821   -0.1896670  0.00   -0.0511471   -0.1103076   -0.0072519
c    -0.2409626    3.4290552   -0.1264475  0.00   -0.0145704    0.0425115    0.0020091
c     1.0197154    2.8571447   -0.2014624  0.00    0.0065003    0.0397659    0.0008809
c     1.1325719    1.4722077   -0.2388200  0.00    0.0322656    0.0333931    0.0006149
n     0.3630473   -0.6353821   -0.1491721  0.00    0.0775236    0.0632610    0.0130070
c     2.2393044    0.6144911   -0.3140468  0.00    0.0936894   -0.0456476   -0.0003811
c     1.7489057   -0.6601096   -0.3639116  0.00   -0.0137297   -0.0637160    0.0362104
h    -0.2648264   -1.4429141   -0.0506299  0.00    0.0182004    0.0248011    0.0012728
c     3.6862701    1.0475550   -0.2866979  0.00   -0.0079797   -0.0141491    0.0110525
c     4.6837868   -0.0380336    0.1738965  0.00    0.0029145    0.0235866   -0.0460473
h     3.7729495    1.9081842    0.4045858  0.00    0.0015247   -0.0036573   -0.0042793
h     3.9673232    1.4196544   -1.2910296  0.00   -0.0020866    0.0027009    0.0052396
c     4.2209980   -0.7043727    1.4798016  0.00   -0.1960953   -0.0836779    0.0759981
n     6.0512367    0.5256884    0.4043043  0.00    0.0406109   -0.0067756    0.0662277
h     4.7601525   -0.8384040   -0.5819040  0.00    0.0035770    0.0077410    0.0059839
h     6.0789671    1.5135759    0.0936424  0.00   -0.0128584   -0.0153583    0.0051516
h     6.2230687    0.5471459    1.4303715  0.00   -0.1624513   -0.1506013    0.1169591
h    -2.3535651    3.0971915   -0.0194026  0.00   -0.0007528    0.0001711   -0.0000365
h    -2.1506169    0.6268099   -0.0515397  0.00   -0.0028342    0.0018385    0.0000441
h    -0.3396208    4.5115549   -0.0980353  0.00    0.0005088    0.0003485    0.0001479
h     1.9029363    3.4886357   -0.2333336  0.00   -0.0001077    0.0018717    0.0003990
h     2.2878546   -1.5954832   -0.4650530  0.00   -0.0146123   -0.0045685    0.0115957
o     3.0916670   -1.2942618    1.6465885  0.00    0.1192347    0.0941394   -0.0831664
o     5.1514663   -0.6295419    2.4824482  0.00    0.1913141    0.0940663   -0.2296657
h     4.7879587    0.1491041    3.0901064  0.00   -0.0275087    0.0657778    0.0153114
    27
 Energy =       0.2842857541
c    -1.3874735    2.5945195   -0.0970010  0.00   -0.0267373    0.0219631    0.0015681
c    -1.2709600    1.2175137   -0.1490290  0.00   -0.0498126   -0.0200408    0.0010797
c    -0.0034139    0.6807318   -0.2187030  0.00   -0.0471935   -0.1012469   -0.0065520
c    -0.2636578    3.3989662   -0.1059003  0.00   -0.0133823    0.0402688    0.0018613
c     1.0012971    2.8392160   -0.1695916  0.00    0.0063500    0.0376109    0.0007843
c     1.1246132    1.4578365   -0.2296766  0.00    0.0304579    0.0318722    0.0005862
n     0.3705410   -0.6631293   -0.2412601  0.00    0.0694622    0.0579266    0.0120660
c     2.2396999    0.6178402   -0.2977227  0.00    0.0884491   -0.0425878   -0.0003972
c     1.7710485   -0.6625371   -0.3749099  0.00   -0.0090054   -0.0588125    0.0340614
h    -0.2537011   -1.4827846   -0.2093830  0.00    0.0148043    0.0203481    0.0012157
c     3.6790394    1.0742761   -0.2483816  0.00   -0.0073505   -0.0133593    0.0103117
c     4.6875545   -0.0073409    0.1923667  0.00    0.0026500    0.0219541   -0.0433199
h     3.7486933    1.9198043    0.4644285  0.00    0.0014204   -0.0030646   -0.0037193
h     3.9614324    1.4727340   -1.2430640  0.00   -0.0017702    0.0026839    0.0046047
c     4.2410642   -0.6785085    1.4996844  0.00   -0.1841770   -0.0784535    0.0714264
n     6.0519027    0.5652353    0.4053305  0.00    0.0383022   -0.0064450    0.0620843
h     4.7592335   -0.8042896   -0.5683217  0.00    0.0033563    0.0072490    0.0055869
h     6.0702592    1.5564655    0.1018608  0.00   -0.0120951   -0.0142932    0.0047712
h     6.2380228    0.5794515    1.4287573  0.00   -0.1528024   -0.1416103    0.1100818
h    -2.3745853    3.0478897   -0.0421520  0.00   -0.0008434    0.0001452   -0.0000270
h    -2.1506578    0.5805982   -0.1301980  0.00   -0.0032659    0.0012074    0.0000552
h    -0.3717493    4.4801158   -0.0589855  0.00    0.0005488    0.0005668    0.0001440
h     1.8800541    3.4783187   -0.1738111  0.00    0.0002484    0.0020315    0.0003741
h     2.3316976   -1.5862176   -0.4661822  0.00   -0.0134707   -0.0045745    0.0109186
o     3.1103698   -1.2807195    1.6666746  0.00    0.1117066    0.0883840   -0.0782498
o     5.1753843   -0.6011316    2.5022882  0.00    0.1799695    0.0884488   -0.2156741
h     4.8125843    0.1696728    3.1154794  0.00   -0.0258195    0.0618278    0.0143577
    27
 Energy =       0.2705485584
c    -1.3972344    2.5606196   -0.1166917  0.00   -0.0238449    0.0194848    0.0014059
c    -1.2704264    1.1876956   -0.1966035  0.00   -0.0441728   -0.0181976    0.0010638
c    -0.0012665    0.6613099   -0.2535235  0.00   -0.0410956   -0.0876000   -0.0051405
c    -0.2798063    3.3713418   -0.0904149  0.00   -0.0114984    0.0359387    0.0016007
c     0.9870681    2.8212455   -0.1413893  0.00    0.0058862    0.0335136    0.0006178
c     1.1172756    1.4451589   -0.2245873  0.00    0.0270782    0.0286833    0.0004962
n     0.3782944   -0.6836057   -0.3348770  0.00    0.0586266    0.0500527    0.0099672
c     2.2371822    0.6226770   -0.2835828  0.00    0.0787166   -0.0373221   -0.0003929
c     1.7891718   -0.6609280   -0.3914281  0.00   -0.0045910   -0.0511481    0.0308121
h    -0.2411317   -1.5115099   -0.3681361  0.00    0.0109676    0.0152073    0.0008116
c     3.6698740    1.0984530   -0.2077258  0.00   -0.0063080   -0.0118504    0.0090562
c     4.6880198    0.0201970    0.2173609  0.00    0.0022132    0.0192539   -0.0383823
h     3.7223301    1.9292763    0.5250618  0.00    0.0012535   -0.0023751   -0.0029998
h     3.9565851    1.5203155   -1.1924662  0.00   -0.0013923    0.0025043    0.0038073
c     4.2583508   -0.6577315    1.5244146  0.00   -0.1628620   -0.0691251    0.0631948
n     6.0482474    0.6026547    0.4118694  0.00    0.0339590   -0.0057420    0.0547384
h     4.7555730   -0.7737543   -0.5482288  0.00    0.0029599    0.0063890    0.0049062
h     6.0596479    1.5973853    0.1152138  0.00   -0.0107253   -0.0125377    0.0041610
h     6.2520899    0.6084103    1.4330479  0.00   -0.1361135   -0.1261228    0.0983452
h    -2.3883155    3.0064376   -0.0721106  0.00   -0.0008686    0.0001029   -0.0000186
h    -2.1459499    0.5442439   -0.2154538  0.00   -0.0034726    0.0005593    0.0000371
h    -0.3955101    4.4508868   -0.0247924  0.00    0.0005651    0.0007301    0.0001346
h     1.8622751    3.4652582   -0.1167898  0.00    0.0005845    0.0020710    0.0003381
h     2.3716832   -1.5721802   -0.4730717  0.00   -0.0116205   -0.0042922    0.0097612
o     3.1216272   -1.2741163    1.6898353  0.00    0.0983315    0.0780933   -0.0695927
o     5.1939546   -0.5833036    2.5301647  0.00    0.1602468    0.0786538   -0.1914575
h     4.8286837    0.1680896    3.1575020  0.00   -0.0228230    0.0550748    0.0127289
    27
 Energy =       0.2526173167
c    -1.4005777    2.5327841   -0.1460004  0.00   -0.0190997    0.0154048    0.0011356
c    -1.2647950    1.1661720   -0.2557583  0.00   -0.0350667   -0.0148966    0.0010295
c     0.0027834    0.6484005   -0.2979268  0.00   -0.0321582   -0.0680197   -0.0030754
c    -0.2894643    3.3459434   -0.0797319  0.00   -0.0086565    0.0287880    0.0011848
c     0.9766635    2.8029799   -0.1155617  0.00    0.0049993    0.0268016    0.0003537
c     1.1100185    1.4345181   -0.2244463  0.00    0.0215793    0.0231988    0.0003039
n     0.3855671   -0.6970715   -0.4315187  0.00    0.0442225    0.0388502    0.0067731
c     2.2308523    0.6302516   -0.2723852  0.00    0.0628526   -0.0289927   -0.0003394
c     1.8035112   -0.6536053   -0.4179195  0.00   -0.0009278   -0.0400094    0.0257369
h    -0.2278382   -1.5298641   -0.5268892  0.00    0.0067845    0.0094996    0.0001653
c     3.6579877    1.1215713   -0.1630743  0.00   -0.0047089   -0.0093604    0.0071178
c     4.6857331    0.0465401    0.2508632  0.00    0.0015503    0.0150872   -0.0304160
h     3.6915893    1.9374991    0.5890735  0.00    0.0009878   -0.0015324   -0.0020616
h     3.9530017    1.5649712   -1.1370244  0.00   -0.0009122    0.0021097    0.0027543
c     4.2745850   -0.6425349    1.5549746  0.00   -0.1287359   -0.0541025    0.0499082
n     6.0401476    0.6417818    0.4248693  0.00    0.0268196   -0.0045921    0.0429556
h     4.7503858   -0.7442860   -0.5203563  0.00    0.0023383    0.0050281    0.0038364
h     6.0455316    1.6413422    0.1377337  0.00   -0.0085379   -0.0097731    0.0032182
h     6.2691662    0.6350222    1.4436521  0.00   -0.1103938   -0.1024145    0.0809242
h    -2.3946029    2.9729292   -0.1130480  0.00   -0.0008160    0.0000409   -0.0000104
h    -2.1356987    0.5183235   -0.3138894  0.00   -0.0033664   -0.0001021   -0.0000030
h    -0.4110763    4.4235120    0.0065171  0.00    0.0005514    0.0008382    0.0001171
h     1.8491388    3.4490421   -0.0585578  0.00    0.0009167    0.0019618    0.0002859
h     2.4096488   -1.5505222   -0.4918859  0.00   -0.0088214   -0.0036043    0.0079667
o     3.1268723   -1.2782542    1.7154702  0.00    0.0769456    0.0615536   -0.0559796
o     5.2079137   -0.5802829    2.5681064  0.00    0.1299903    0.0626373   -0.1547182
h     4.8312486    0.1273638    3.2273114  0.00   -0.0183368    0.0455995    0.0108366
    27
 Energy =       0.2321970960
c    -1.4158445    2.4630532   -0.2093845  0.00   -0.0127778    0.0098652    0.0007863
c    -1.2555563    1.1064050   -0.3488641  0.00   -0.0229614   -0.0101217    0.0009898
c     0.0137778    0.6100113   -0.3686107  0.00   -0.0210609   -0.0435744   -0.0009714
c    -0.3212588    3.2877556   -0.0943693  0.00   -0.0048749    0.0191565    0.0006931
c     0.9477861    2.7642536   -0.1076074  0.00    0.0039957    0.0175695    0.0000509
c     1.0977465    1.4071599   -0.2429205  0.00    0.0140366    0.0155811    0.0000152
n     0.4154269   -0.7327634   -0.5367144  0.00    0.0263365    0.0247966    0.0031680
c     2.2259106    0.6358985   -0.2718733  0.00    0.0410481   -0.0178244   -0.0003645
c     1.8375228   -0.6507807   -0.4601417  0.00    0.0015560   -0.0260877    0.0183631
h    -0.1793141   -1.5762623   -0.6856423  0.00    0.0028204    0.0038949   -0.0004249
c     3.6404342    1.1611701   -0.1188274  0.00   -0.0026947   -0.0056784    0.0042442
c     4.6937744    0.1140340    0.3124027  0.00    0.0004519    0.0091034   -0.0191460
h     3.6347034    1.9729155    0.6407434  0.00    0.0004647   -0.0003318   -0.0008165
h     3.9485567    1.6158161   -1.0846214  0.00   -0.0003712    0.0013595    0.0016134
c     4.3013799   -0.5883068    1.6120979  0.00   -0.0818778   -0.0319801    0.0316776
n     6.0283941    0.7530240    0.4694479  0.00    0.0180152   -0.0043715    0.0263362
h     4.7797986   -0.6804411   -0.4561592  0.00    0.0015648    0.0029715    0.0023335
h     6.0013668    1.7670635    0.2230508  0.00   -0.0055329   -0.0038929    0.0014109
h     6.2987393    0.7137127    1.4825547  0.00   -0.0767422   -0.0717365    0.0602323
h    -2.4170713    2.8877445   -0.1934882  0.00   -0.0008643    0.0000414    0.0000011
h    -2.1133261    0.4461182   -0.4490653  0.00   -0.0030075   -0.0007366   -0.0000579
h    -0.4604096    4.3614390    0.0131864  0.00    0.0004916    0.0009712    0.0001055
h     1.8096934    3.4202447   -0.0119324  0.00    0.0013953    0.0017116    0.0002483
h     2.4817828   -1.5232904   -0.5214587  0.00   -0.0047516   -0.0029269    0.0056427
o     3.1503473   -1.2723956    1.7538171  0.00    0.0474912    0.0379081   -0.0378238
o     5.2267114   -0.5497784    2.6381118  0.00    0.0938948    0.0347461   -0.1135773
h     4.8072205    0.0507263    3.3688652  0.00   -0.0160455    0.0395862    0.0152702
    27
 Energy =       0.2222785043
c    -1.4225513    2.4534625   -0.2279044  0.00   -0.0099083    0.0071736    0.0005529
c    -1.2519877    1.1039229   -0.3982464  0.00   -0.0172384   -0.0080884    0.0007993
c     0.0166302    0.6148592   -0.4023457  0.00   -0.0157874   -0.0323099   -0.0003531
c    -0.3356951    3.2786381   -0.0684095  0.00   -0.0030761    0.0146903    0.0004915
c     0.9334585    2.7612834   -0.0667450  0.00    0.0032570    0.0134991   -0.0000279
c     1.0899419    1.4114832   -0.2320926  0.00    0.0108035    0.0118714   -0.0000815
n     0.4248856   -0.7237747   -0.6033052  0.00    0.0192106    0.0179818    0.0019762
c     2.2193919    0.6527500   -0.2584340  0.00    0.0307617   -0.0123025   -0.0000039
c     1.8465756   -0.6290228   -0.4941398  0.00    0.0013055   -0.0196940    0.0140705
h    -0.1616249   -1.5671911   -0.7909565  0.00    0.0014055    0.0018137   -0.0005676
c     3.6288935    1.1861531   -0.0736362  0.00   -0.0021256   -0.0042875    0.0031492
c     4.6973377    0.1372574    0.3238043  0.00    0.0005825    0.0068356   -0.0143391
h     3.6091446    1.9696340    0.7163800  0.00    0.0002804    0.0004672    0.0000068
h     3.9371310    1.6794457   -1.0216877  0.00    0.0000119    0.0014333    0.0004612
c     4.3265610   -0.6059665    1.6076824  0.00   -0.0600872   -0.0222054    0.0235710
n     6.0257095    0.7898118    0.4717997  0.00    0.0130798   -0.0048250    0.0175418
h     4.7814625   -0.6371954   -0.4667889  0.00    0.0013436    0.0019435    0.0014095
h     5.9821529    1.8156999    0.2728125  0.00   -0.0043671   -0.0007416    0.0005309
h     6.3344923    0.7093541    1.4743083  0.00   -0.0582454   -0.0554127    0.0493622
h    -2.4259917    2.8729772   -0.2238938  0.00   -0.0007831   -0.0000560   -0.0000241
h    -2.1031856    0.4417427   -0.5356271  0.00   -0.0027649   -0.0010885   -0.0001260
h    -0.4820425    4.3488765    0.0622104  0.00    0.0004541    0.0010290    0.0000917
h     1.7904577    3.4180509    0.0628663  0.00    0.0014724    0.0016735    0.0002227
h     2.5049634   -1.4895687   -0.5750222  0.00   -0.0034570   -0.0025237    0.0041425
o     3.1839640   -1.3300462    1.7272547  0.00    0.0342238    0.0267355   -0.0281254
o     5.2462680   -0.5900832    2.6408673  0.00    0.0778822    0.0185098   -0.0971635
h     4.7819501   -0.1080268    3.4318463  0.00   -0.0182340    0.0378776    0.0224321
    27
 Energy =       0.2189649021
c    -1.4071121    2.5183922   -0.1884902  0.00   -0.0091510    0.0065622    0.0004946
c    -1.2548228    1.1708919   -0.3855932  0.00   -0.0155664   -0.0076417    0.0006648
c     0.0055986    0.6640376   -0.3938818  0.00   -0.0142127   -0.0288154   -0.0002166
c    -0.3095017    3.3240838   -0.0074209  0.00   -0.0026460    0.0135407    0.0004741
c     0.9515965    2.7883459   -0.0107029  0.00    0.0030255    0.0124926    0.0000138
c     1.0886083    1.4407012   -0.2029318  0.00    0.0097866    0.0107432   -0.0000764
n     0.3934556   -0.6761753   -0.6258545  0.00    0.0172795    0.0156269    0.0016458
c     2.2064538    0.6679655   -0.2442775  0.00    0.0276696   -0.0105422    0.0000132
c     1.8166064   -0.6021208   -0.5123990  0.00    0.0009301   -0.0178348    0.0124223
h    -0.2048142   -1.5068885   -0.8347558  0.00    0.0009308    0.0011186   -0.0006317
c     3.6243595    1.1776177   -0.0514873  0.00   -0.0026212   -0.0036947    0.0023895
c     4.6882988    0.1012803    0.2902644  0.00    0.0006807    0.0059975   -0.0128463
h     3.6212570    1.9297358    0.7701069  0.00    0.0002803    0.0011827    0.0008051
h     3.9266479    1.7055092   -0.9835651  0.00   -0.0000472    0.0016676   -0.0002666
c     4.3352515   -0.6787321    1.5582725  0.00   -0.0536783   -0.0201163    0.0213771
n     6.0276659    0.7335823    0.4269533  0.00    0.0117034   -0.0051089    0.0147819
h     4.7447495   -0.6488329   -0.5273323  0.00    0.0012734    0.0010804    0.0004933
h     5.9939406    1.7659916    0.2592396  0.00   -0.0039530    0.0002499    0.0003332
h     6.3630112    0.6189215    1.4186513  0.00   -0.0517343   -0.0499424    0.0459070
h    -2.4044737    2.9522620   -0.1806918  0.00   -0.0008287    0.0000097   -0.0000198
h    -2.1143975    0.5236785   -0.5413220  0.00   -0.0026984   -0.0012255   -0.0001621
h    -0.4409925    4.3937338    0.1440609  0.00    0.0004080    0.0012678    0.0001297
h     1.8178604    3.4295730    0.1352749  0.00    0.0015286    0.0017403    0.0002432
h     2.4647424   -1.4677304   -0.6211848  0.00   -0.0029537   -0.0027171    0.0035164
o     3.1871526   -1.4006884    1.6736091  0.00    0.0307237    0.0237911   -0.0249647
o     5.2629283   -0.6938284    2.5852880  0.00    0.0713868    0.0152430   -0.0888960
h     4.7942228   -0.2667799    3.4027672  0.00   -0.0175159    0.0353248    0.0223751
    27
 Energy =       0.2157012556
c    -1.4049753    2.5519411   -0.1519542  0.00   -0.0081819    0.0058700    0.0004383
c    -1.2594629    1.2090124   -0.3786994  0.00   -0.0136440   -0.0070832    0.0005370
c    -0.0033366    0.6947622   -0.3901452  0.00   -0.0125187   -0.0251029   -0.0000766
c    -0.3039923    3.3459659    0.0544509  0.00   -0.0021306    0.0121585    0.0004444
c     0.9529588    2.8023375    0.0470773  0.00    0.0026721    0.0113301    0.0000473
c     1.0819666    1.4593369   -0.1748209  0.00    0.0086574    0.0095188   -0.0000702
n     0.3764088   -0.6424106   -0.6549759  0.00    0.0152864    0.0132359    0.0013116
c     2.1946603    0.6831617   -0.2309639  0.00    0.0242976   -0.0087268    0.0001401
c     1.8000706   -0.5768477   -0.5350554  0.00    0.0004419   -0.0157496    0.0107327
h    -0.2256021   -1.4646339   -0.8875501  0.00    0.0005404    0.0005412   -0.0006709
c     3.6148900    1.1829751   -0.0264811  0.00   -0.0029609   -0.0031963    0.0018783
c     4.6856872    0.0947315    0.2601681  0.00    0.0009561    0.0055723   -0.0114429
h     3.6171945    1.9009073    0.8262694  0.00    0.0002058    0.0017574    0.0014754
h     3.9092600    1.7498855   -0.9390552  0.00    0.0000499    0.0019757   -0.0010491
c     4.3562614   -0.7329219    1.5058796  0.00   -0.0470534   -0.0175853    0.0186408
n     6.0264853    0.7257470    0.3895084  0.00    0.0094397   -0.0077455    0.0091403
h     4.7269186   -0.6263728   -0.5852540  0.00    0.0012653    0.0003984   -0.0002792
h     5.9823929    1.7693569    0.2925390  0.00   -0.0039859    0.0043853   -0.0003141
h     6.4029213    0.5494799    1.3599873  0.00   -0.0439642   -0.0448985    0.0448338
h    -2.3995769    2.9919183   -0.1410855  0.00   -0.0007524    0.0000311   -0.0000148
h    -2.1215476    0.5707578   -0.5556805  0.00   -0.0025359   -0.0013020   -0.0001894
h    -0.4296889    4.4129443    0.2289656  0.00    0.0003809    0.0014101    0.0001610
h     1.8225227    3.4344329    0.2121343  0.00    0.0014833    0.0017281    0.0002509
h     2.4463339   -1.4399172   -0.6734015  0.00   -0.0024828   -0.0028268    0.0028644
o     3.2134543   -1.4717341    1.6074006  0.00    0.0268897    0.0202880   -0.0213512
o     5.2941258   -0.7847558    2.5236570  0.00    0.0647140    0.0113357   -0.0804907
h     4.8219626   -0.4255330    3.3696828  0.00   -0.0170697    0.0326805    0.0230529
    27
 Energy =       0.2161962845
c    -1.4372350    2.5209951   -0.1300007  0.00   -0.0080070    0.0057635    0.0004360
c    -1.2751564    1.1833773   -0.3764346  0.00   -0.0131701   -0.0070297    0.0004750
c    -0.0133553    0.6835061   -0.3883208  0.00   -0.0121061   -0.0240158   -0.0000326
c    -0.3465828    3.3240849    0.0949713  0.00   -0.0019714    0.0119063    0.0004687
c     0.9161266    2.7946488    0.0869317  0.00    0.0026436    0.0111274    0.0000922
c     1.0613265    1.4568571   -0.1547720  0.00    0.0083526    0.0092312   -0.0000497
n     0.3841024   -0.6446039   -0.6752807  0.00    0.0147290    0.0123812    0.0011789
c     2.1835634    0.6961872   -0.2187538  0.00    0.0232792   -0.0083285    0.0003701
c     1.8067912   -0.5627812   -0.5479016  0.00    0.0002187   -0.0151785    0.0101733
h    -0.2063943   -1.4703130   -0.9254723  0.00    0.0003288    0.0002127   -0.0007344
c     3.5944891    1.2154597    0.0017957  0.00   -0.0040651   -0.0030891    0.0018092
c     4.6960148    0.1436320    0.2360993  0.00    0.0007355    0.0057707   -0.0106068
h     3.5812548    1.8968201    0.8853022  0.00   -0.0000325    0.0025804    0.0023229
h     3.8739670    1.8293227   -0.8865679  0.00    0.0005170    0.0027242   -0.0021350
c     4.4058826   -0.7463123    1.4513723  0.00   -0.0468796   -0.0164743    0.0161112
n     6.0213323    0.8084496    0.3682142  0.00    0.0063264   -0.0257110   -0.0142464
h     4.7447221   -0.5431286   -0.6384386  0.00    0.0016211   -0.0002872   -0.0010307
h     5.9255738    1.8667067    0.4512921  0.00   -0.0077587    0.0321271    0.0008336
h     6.4795492    0.4937851    1.2810850  0.00   -0.0339814   -0.0519324    0.0630573
h    -2.4368024    2.9496908   -0.1186356  0.00   -0.0007945    0.0000741   -0.0000105
h    -2.1288566    0.5383214   -0.5690823  0.00   -0.0025600   -0.0013935   -0.0002183
h    -0.4852104    4.3870197    0.2845823  0.00    0.0003648    0.0015681    0.0001937
h     1.7777698    3.4339211    0.2660653  0.00    0.0015386    0.0017844    0.0002721
h     2.4656262   -1.4126371   -0.7084372  0.00   -0.0022011   -0.0031178    0.0026227
o     3.2786900   -1.5122058    1.5403361  0.00    0.0256796    0.0185589   -0.0194578
o     5.3757817   -0.8557169    2.4372118  0.00    0.0641828    0.0089235   -0.0751658
h     4.9353227   -0.5105595    3.3054360  0.00   -0.0169901    0.0318242    0.0232711
    27
 Energy =       0.2113827772
c    -1.4268973    2.5492349   -0.0803996  0.00   -0.0066814    0.0048995    0.0003801
c    -1.2710239    1.2207401   -0.3720093  0.00   -0.0104350   -0.0064498    0.0002321
c    -0.0140802    0.7133885   -0.3906956  0.00   -0.0097844   -0.0188696    0.0001982
c    -0.3335742    3.3363024    0.1811598  0.00   -0.0011786    0.0101100    0.0004745
c     0.9246132    2.7989458    0.1643687  0.00    0.0020968    0.0096900    0.0001968
c     1.0619878    1.4702419   -0.1223882  0.00    0.0067657    0.0075209   -0.0000207
n     0.3751507   -0.6071943   -0.7255288  0.00    0.0120635    0.0089085    0.0006379
c     2.1788513    0.7082508   -0.2102834  0.00    0.0186095   -0.0054329    0.0006514
c     1.7985386   -0.5343804   -0.5918029  0.00   -0.0004785   -0.0125423    0.0078265
h    -0.2187483   -1.4206171   -1.0085108  0.00   -0.0002434   -0.0006680   -0.0008520
c     3.5932275    1.2144969    0.0219162  0.00   -0.0036255   -0.0023498    0.0012208
c     4.6963187    0.1337429    0.2112984  0.00    0.0014794    0.0046916   -0.0084071
h     3.5884462    1.8655213    0.9281242  0.00   -0.0000207    0.0024963    0.0024011
h     3.8674856    1.8569254   -0.8476647  0.00    0.0004545    0.0024918   -0.0021769
c     4.4162392   -0.7966870    1.3991337  0.00   -0.0354550   -0.0107882    0.0134314
n     6.0230473    0.7951070    0.3454549  0.00    0.0049228   -0.0204382   -0.0115606
h     4.7335673   -0.5248973   -0.6856755  0.00    0.0013555   -0.0006377   -0.0013628
h     5.9364833    1.8518208    0.4063114  0.00   -0.0061690    0.0258191    0.0008641
h     6.4735302    0.5000781    1.2649350  0.00   -0.0271823   -0.0416135    0.0507917
h    -2.4236144    2.9841052   -0.0625269  0.00   -0.0006659    0.0001204    0.0000027
h    -2.1266297    0.5881126   -0.5949400  0.00   -0.0023571   -0.0015756   -0.0002963
h    -0.4667420    4.3933942    0.4060383  0.00    0.0003249    0.0019203    0.0002918
h     1.7889907    3.4262134    0.3707443  0.00    0.0014703    0.0018419    0.0003102
h     2.4571976   -1.3762015   -0.7934399  0.00   -0.0015330   -0.0032944    0.0016112
o     3.3167664   -1.6182748    1.4349288  0.00    0.0173145    0.0116038   -0.0151670
o     5.3606304   -0.8945303    2.4107935  0.00    0.0589286    0.0034734   -0.0714470
h     4.8685309   -0.6693126    3.2932557  0.00   -0.0199762    0.0290726    0.0297679
    27
 Energy =       0.2078510696
c    -1.4068023    2.5958804   -0.0068213  0.00   -0.0058236    0.0045238    0.0004059
c    -1.2651231    1.2784242   -0.3500489  0.00   -0.0084548   -0.0062746   -0.0000658
c    -0.0154015    0.7572907   -0.3841026  0.00   -0.0080993   -0.0149879    0.0003793
c    -0.3057012    3.3588171    0.2893091  0.00   -0.0006468    0.0090385    0.0005776
c     0.9454279    2.8073749    0.2552436  0.00    0.0017332    0.0089028    0.0003969
c     1.0674277    1.4897292   -0.0831398  0.00    0.0055619    0.0062357    0.0000339
n     0.3578074   -0.5539963   -0.7741001  0.00    0.0102156    0.0059425    0.0001190
c     2.1750765    0.7213306   -0.2037109  0.00    0.0152251   -0.0031401    0.0009185
c     1.7826191   -0.4991499   -0.6408773  0.00   -0.0011657   -0.0107493    0.0058559
h    -0.2448353   -1.3494354   -1.0901997  0.00   -0.0008016   -0.0015325   -0.0010493
c     3.5965810    1.2049075    0.0373223  0.00   -0.0034600   -0.0016392    0.0005887
c     4.6935518    0.1079423    0.1729689  0.00    0.0022443    0.0040151   -0.0065616
h     3.6073809    1.8206192    0.9682231  0.00    0.0000565    0.0025968    0.0027474
h     3.8668345    1.8776845   -0.8104073  0.00    0.0003434    0.0024330   -0.0023297
c     4.4159378   -0.8680870    1.3252815  0.00   -0.0271282   -0.0066871    0.0112796
n     6.0269127    0.7541088    0.3163905  0.00    0.0040109   -0.0172392   -0.0103510
h     4.7149919   -0.5152595   -0.7503498  0.00    0.0010790   -0.0011429   -0.0019436
h     5.9591680    1.8116093    0.3350560  0.00   -0.0051550    0.0223876    0.0009108
h     6.4545611    0.4877769    1.2535048  0.00   -0.0214451   -0.0340813    0.0422867
h    -2.3983423    3.0418355    0.0243804  0.00   -0.0006672    0.0002568    0.0000316
h    -2.1267832    0.6649035   -0.6016357  0.00   -0.0022654   -0.0018079   -0.0004082
h    -0.4272008    4.4084535    0.5546518  0.00    0.0002579    0.0024765    0.0004613
h     1.8165071    3.4162550    0.4874174  0.00    0.0014696    0.0019949    0.0003872
h     2.4348751   -1.3339122   -0.8907112  0.00   -0.0009015   -0.0037350    0.0005984
o     3.3488630   -1.7414039    1.2954375  0.00    0.0103458    0.0056399   -0.0121064
o     5.3211901   -0.9511059    2.3739689  0.00    0.0546769    0.0012384   -0.0653424
h     4.7827693   -0.8280657    3.2495460  0.00   -0.0212061    0.0253346    0.0321793
    27
 Energy =       0.2055721372
c    -1.3730057    2.6598979    0.0679099  0.00   -0.0055043    0.0044801    0.0004766
c    -1.2529726    1.3539308   -0.3242892  0.00   -0.0074266   -0.0063636   -0.0003538
c    -0.0128237    0.8133880   -0.3773064  0.00   -0.0071407   -0.0126870    0.0004806
c    -0.2596014    3.3926081    0.3927691  0.00   -0.0003385    0.0086591    0.0007555
c     0.9818655    2.8214861    0.3385364  0.00    0.0016644    0.0086561    0.0006426
c     1.0815259    1.5154413   -0.0489085  0.00    0.0049297    0.0054767    0.0001072
n     0.3373149   -0.4883709   -0.8202624  0.00    0.0090984    0.0038864   -0.0003119
c     2.1760076    0.7351555   -0.2027343  0.00    0.0133240   -0.0016861    0.0011246
c     1.7636268   -0.4595902   -0.6910415  0.00   -0.0016781   -0.0098071    0.0044882
h    -0.2786169   -1.2617456   -1.1661203  0.00   -0.0013341   -0.0023032   -0.0013093
c     3.6073095    1.1864729    0.0473445  0.00   -0.0032048   -0.0009021    0.0001177
c     4.6867305    0.0659603    0.1365946  0.00    0.0023013    0.0036941   -0.0054152
h     3.6356096    1.7692477    0.9992216  0.00    0.0002199    0.0027178    0.0030690
h     3.8820528    1.8836046   -0.7790002  0.00    0.0002037    0.0024510   -0.0024186
c     4.3921194   -0.9522847    1.2479418  0.00   -0.0221184   -0.0036912    0.0092037