    13
 Energy =      16.5578223757
c    -3.7133889    1.6950595    0.3173519  0.00    0.0056121   -0.0335746   -0.0168896
c    -2.4962693    2.6345192    0.2419999  0.00    0.0689427    0.3384955    0.0945120
c    -4.9565486    2.3924193   -0.2155699  0.00    0.0091382    0.0113863    0.0041647
h    -5.2099685    3.2528291    0.4143399  0.00    0.0023106   -0.0131245   -0.0104560
h    -5.8205883    1.7190695   -0.2147749  0.00    0.0080699    0.0153062    0.0004663
h    -4.8083986    2.7651692   -1.2348596  0.00   -0.0070665    0.0003117    0.0179845
n    -3.4097890    0.4519539   -0.4549189  0.00    0.8364083    0.2798717   -0.1065885
h    -3.8575589    1.4177196    1.3669296  0.00    0.0075678   -0.0096390   -0.0248202
h    -2.5963493    0.6418898   -1.0496997  0.00  151.0978089   94.7034244   71.4578896
h    -3.0749291   -0.2623099    0.1989099  0.00    0.0104677    0.0530662   -0.0386085
o    -2.4571893    3.7760389    0.6681628  0.00   -0.0123358   -0.2669258   -0.1029385
o    -1.4389296    2.0221094   -0.3549299  0.00   -0.2289609   -0.2431169   -0.0855403
h    -1.7862895    1.1491097   -0.6669268  0.00 -151.7979632  -94.8354811  -71.1891755
    13
 Energy =       1.5953879047
c    -3.7133922    1.6950791    0.3173618  0.00   -0.0160877   -0.0322686   -0.0025579
c    -2.4963095    2.6343217    0.2419448  0.00    0.0747723    0.3547233    0.1021522
c    -4.9565539    2.3924127   -0.2155724  0.00    0.0093645    0.0106884    0.0038127
h    -5.2099699    3.2528367    0.4143460  0.00    0.0023290   -0.0129913   -0.0103664
h    -5.8205930    1.7190606   -0.2147752  0.00    0.0079071    0.0154346    0.0005644
h    -4.8083945    2.7651690   -1.2348701  0.00   -0.0071764    0.0006658    0.0180234
n    -3.4102771    0.4517906   -0.4548567  0.00    0.5180956    0.1413246   -0.1035787
h    -3.8575633    1.4177252    1.3669441  0.00    0.0077275   -0.0094707   -0.0245039
h    -2.6845216    0.5866261   -1.0913986  0.00   11.5189961    7.2764137    5.5682596
h    -3.0749352   -0.2623409    0.1989325  0.00    0.0018264    0.0473326   -0.0321226
o    -2.4571821    3.7761947    0.6682229  0.00   -0.0128503   -0.2661045   -0.1020307
o    -1.4387960    2.0222513   -0.3548800  0.00   -0.2263231   -0.3081199   -0.0904504
h    -1.6977086    1.2044504   -0.6253847  0.00  -11.8785812   -7.2176281   -5.3272016
    13
 Energy =       1.3190660203
c    -3.7094820    1.7052960    0.3499093  0.00   -0.0166696   -0.0224926    0.0014429
c    -2.4421091    2.5852524    0.1983007  0.00    0.0558878    0.2813128    0.0841193
c    -4.9410776    2.4412329   -0.1630662  0.00    0.0086065    0.0074071    0.0043251
h    -5.2099235    3.2532738    0.5314704  0.00    0.0018677   -0.0081980   -0.0060018
h    -5.8029206    1.7596955   -0.2419970  0.00    0.0044937    0.0099967   -0.0001744
h    -4.7660716    2.8932578   -1.1537459  0.00   -0.0050515    0.0022522    0.0109909
n    -3.4996880    0.4136608   -0.3973334  0.00    0.3936540    0.1042507   -0.0618453
h    -3.8291164    1.4744245    1.4186442  0.00    0.0055561   -0.0073321   -0.0183294
h    -2.8045448    0.5295261   -1.1994232  0.00    9.4816910    5.9809403    4.5329160
h    -3.0808913   -0.2683532    0.2613225  0.00    0.0052632    0.0351945   -0.0198971
o    -2.2984290    3.7675917    0.5967863  0.00   -0.0064140   -0.2061047   -0.0819400
o    -1.4345796    1.9420095   -0.4662124  0.00   -0.1737250   -0.2443250   -0.0766524
h    -1.8073634    1.1587094   -0.7186411  0.00   -9.7551600   -5.9329020   -4.3689537
    13
 Energy =       0.9929858945
c    -3.6940904    1.7006131    0.2963756  0.00   -0.0096290   -0.0162281   -0.0026421
c    -2.4768820    2.6128361    0.2132292  0.00    0.0343999    0.1989947    0.0610173
c    -4.9617588    2.4158637   -0.1638493  0.00    0.0068986    0.0051174    0.0037510
h    -5.2582832    3.1754889    0.5865618  0.00    0.0005473   -0.0039616   -0.0012084
h    -5.7944591    1.6972040   -0.2707416  0.00    0.0023244    0.0061400    0.0012395
h    -4.8120188    2.9323541   -1.1319385  0.00   -0.0036954    0.0032972    0.0067212
n    -3.4571106    0.4695425   -0.5066900  0.00    0.2837795    0.1012356   -0.0629166
h    -3.8051075    1.4160824    1.3597668  0.00    0.0040475   -0.0061220   -0.0118698
h    -2.6694057    0.5274183   -1.1665022  0.00    7.2455753    4.5754597    3.4567790
h    -3.2182830   -0.3149927    0.1586296  0.00    0.0134789    0.0048029    0.0064103
o    -2.4569405    3.8219258    0.6846703  0.00   -0.0078814   -0.1396929   -0.0553221
o    -1.3732471    2.0307826   -0.3598029  0.00   -0.1179774   -0.1646229   -0.0538178
h    -1.6486103    1.1704585   -0.6836946  0.00   -7.4518681   -4.5644201   -3.3481415
    13
 Energy =       0.5877699351
c    -3.6826640    1.6860026    0.2752924  0.00   -0.0033499   -0.0081617   -0.0016466
c    -2.5089935    2.6455815    0.2432224  0.00    0.0142441    0.0901539    0.0281891
c    -4.9765188    2.3591329   -0.1832515  0.00    0.0033163    0.0031701    0.0021624
h    -5.2899579    3.1289518    0.5531560  0.00    0.0001066   -0.0021501    0.0002947
h    -5.7873338    1.6084735   -0.2738749  0.00    0.0007227    0.0022265    0.0003049
h    -4.8395140    2.8496793   -1.1694391  0.00   -0.0019206    0.0022842    0.0033504
n    -3.4180414    0.5086343   -0.5748778  0.00    0.1673740    0.0809957   -0.0516472
h    -3.7987316    1.3670927    1.3341386  0.00    0.0015996   -0.0030793   -0.0049316
h    -2.5548996    0.5632284   -1.1050024  0.00    4.3460554    2.7520046    2.0720088
h    -3.3441552   -0.3540539    0.0494225  0.00    0.0090976   -0.0164975    0.0197871
o    -2.6149905    3.8870332    0.7642687  0.00   -0.0100219   -0.0579362   -0.0215374
o    -1.3205395    2.1759588   -0.2879305  0.00   -0.0533674   -0.0657457   -0.0274288
h    -1.4898572    1.2298622   -0.6091100  0.00   -4.4738566   -2.7772645   -2.0189057
    13
 Energy =       0.3288684961
c    -3.6802644    1.6706535    0.2778683  0.00   -0.0021127   -0.0029201   -0.0009205
c    -2.5155042    2.6513390    0.2649397  0.00    0.0049992    0.0181022    0.0125643
c    -4.9853521    2.3237313   -0.1799925  0.00    0.0037313   -0.0001319    0.0026025
h    -5.2637711    3.1585125    0.5046187  0.00   -0.0000446    0.0018610    0.0030026
h    -5.8064952    1.5719336   -0.1811911  0.00   -0.0022800   -0.0019476    0.0004908
h    -4.8738811    2.7267803   -1.2138457  0.00   -0.0002512    0.0025114   -0.0028411
n    -3.4162679    0.5090892   -0.5904032  0.00    0.0881094    0.0407913   -0.0258516
h    -3.7960193    1.3415380    1.3354494  0.00    0.0007957   -0.0013975   -0.0021671
h    -2.5306735    0.6003232   -1.1030263  0.00    2.5105869    1.5908130    1.1932580
h    -3.3671738   -0.3689800   -0.0005996  0.00    0.0043978   -0.0079352    0.0095196
o    -2.7142329    3.9772118    0.6190528  0.00   -0.0145311    0.0002305   -0.0054731
o    -1.2579604    2.1991801   -0.1291773  0.00   -0.0077718   -0.0233677   -0.0086938
h    -1.4186011    1.2942649   -0.5876788  0.00   -2.5856290   -1.6166095   -1.1754906
    13
 Energy =       0.2437274109
c    -3.6848189    1.6546626    0.2708753  0.00   -0.0014902   -0.0024282   -0.0005712
c    -2.5125436    2.6306829    0.3075546  0.00    0.0041039    0.0074147    0.0065879
c    -4.9795645    2.3344240   -0.1787758  0.00    0.0025583   -0.0000135    0.0017086
h    -5.2504297    3.1603788    0.5184831  0.00   -0.0000725    0.0014202    0.0024002
h    -5.8097804    1.5936036   -0.1960207  0.00   -0.0018029   -0.0016473    0.0004655
h    -4.8594257    2.7518146   -1.2049406  0.00   -0.0003124    0.0019022   -0.0021177
n    -3.4295782    0.5176618   -0.6329764  0.00    0.0653869    0.0299507   -0.0201732
h    -3.8160869    1.2922800    1.3169275  0.00    0.0006591   -0.0013480   -0.0008993
h    -2.5430366    0.6257637   -1.1494239  0.00    1.9186059    1.2151839    0.9107779
h    -3.3823150   -0.3779762   -0.0731761  0.00    0.0032942   -0.0065459    0.0073711
o    -2.6965065    3.9270463    0.7778059  0.00   -0.0114676    0.0085511   -0.0010020
o    -1.2545200    2.2114819   -0.1163964  0.00   -0.0048545   -0.0159986   -0.0053582
h    -1.4075910    1.3337532   -0.6239223  0.00   -1.9746083   -1.2364412   -0.8991896
    13
 Energy =       0.1373308661
c    -3.6903020    1.6382278    0.2653448  0.00   -0.0005882   -0.0018938   -0.0002497
c    -2.5086343    2.6058702    0.3515620  0.00    0.0022930   -0.0014986    0.0004242
c    -4.9716284    2.3466209   -0.1799450  0.00    0.0011212    0.0001448    0.0007152
h    -5.2339258    3.1670750    0.5254195  0.00   -0.0000922    0.0007256    0.0014410
h    -5.8128260    1.6199858   -0.2120493  0.00   -0.0011043   -0.0011166    0.0003817
h    -4.8393497    2.7730099   -1.1995034  0.00   -0.0003173    0.0010404   -0.0010753
n    -3.4487790    0.5221810   -0.6683385  0.00    0.0358445    0.0162121   -0.0112036
h    -3.8412786    1.2480190    1.2995112  0.00    0.0004513   -0.0010712    0.0001061
h    -2.5666430    0.6489239   -1.2020041  0.00    1.1912665    0.7532815    0.5623496
h    -3.3964975   -0.3874098   -0.1371491  0.00    0.0018178   -0.0039821    0.0041286
o    -2.6773743    3.8595458    0.9365590  0.00   -0.0069771    0.0129150    0.0030256
o    -1.2499713    2.2311300   -0.1064008  0.00   -0.0015370   -0.0082982   -0.0022767
h    -1.3889873    1.3823978   -0.6569919  0.00   -1.2221783   -0.7664588   -0.5577665
    13
 Energy =       0.0354681833
c    -3.6940294    1.6223737    0.2536160  0.00    0.0007466   -0.0008918    0.0003430
c    -2.4940579    2.5674552    0.3952917  0.00    0.0005881   -0.0058408   -0.0035602
c    -4.9559835    2.3779082   -0.1724870  0.00   -0.0002650    0.0004865   -0.0002704
h    -5.1982932    3.1871629    0.5515844  0.00   -0.0001223    0.0003392    0.0006376
h    -5.8160083    1.6757349   -0.2251034  0.00   -0.0006040   -0.0007462    0.0001594
h    -4.8106429    2.8239080   -1.1807072  0.00   -0.0003295    0.0003097   -0.0002811
n    -3.4889564    0.5311400   -0.7180788  0.00    0.0085699    0.0050052   -0.0039873
h    -3.8646301    1.1995861    1.2722646  0.00    0.0003013   -0.0007250    0.0007595
h    -2.6039614    0.6423525   -1.2588753  0.00    0.5100291    0.3204050    0.2371446
h    -3.4735957   -0.3997538   -0.2265097  0.00    0.0007568   -0.0027866    0.0014971
o    -2.6423079    3.7622383    1.0953121  0.00   -0.0019567    0.0111693    0.0046235
o    -1.2347330    2.2423590   -0.0926475  0.00    0.0004310   -0.0022539   -0.0004555
h    -1.3489972    1.4231121   -0.6776457  0.00   -0.5181453   -0.3244706   -0.2366102
    13
 Energy =       0.0042911642
c    -3.6941196    1.6311269    0.2411307  0.00    0.0005731    0.0002129    0.0002251
c    -2.4736307    2.5509821    0.3884446  0.00   -0.0003673   -0.0022572   -0.0013445
c    -4.9387641    2.4184504   -0.1795898  0.00   -0.0001753    0.0005222   -0.0002203
h    -5.1609343    3.2315929    0.5463575  0.00   -0.0001209    0.0003422    0.0003930
h    -5.8161969    1.7384999   -0.2339537  0.00   -0.0005891   -0.0005851    0.0000538
h    -4.7830600    2.8638327   -1.1864370  0.00   -0.0001621    0.0002011   -0.0001773
n    -3.5270473    0.5340850   -0.7314632  0.00   -0.0019207    0.0112394   -0.0033927
h    -3.8728410    1.2126096    1.2596951  0.00    0.0000709   -0.0002400    0.0005460
h    -2.6068920    0.5584702   -1.2277384  0.00    0.3051070    0.1878450    0.1345677
h    -3.6323488   -0.4043056   -0.2530405  0.00   -0.0005272   -0.0118914    0.0057848
o    -2.6105123    3.7483189    1.0793556  0.00   -0.0009922    0.0052350    0.0022785
o    -1.2064470    2.2019609   -0.0617606  0.00    0.0011217   -0.0011810   -0.0003398
h    -1.3034030    1.3699534   -0.6249860  0.00   -0.3020178   -0.1894432   -0.1383743
    13
 Energy =      -0.0325795450
c    -3.6535708    1.6234674    0.2313389  0.00    0.0021510   -0.0031489   -0.0020054
c    -2.4704194    2.6126444    0.2952396  0.00    0.0024601    0.0025805    0.0007225
c    -4.9705442    2.3533887   -0.0808848  0.00   -0.0041322    0.0009285    0.0013888
h    -5.1773519    3.1484566    0.6681969  0.00   -0.0006573   -0.0001244   -0.0000487
h    -5.8190256    1.6340406   -0.0752006  0.00   -0.0020210   -0.0006327    0.0001772
h    -4.9134486    2.8151250   -1.0953400  0.00    0.0003531    0.0018785   -0.0042180
n    -3.5410704    0.5316414   -0.7536990  0.00    0.0007397   -0.0129094    0.0047503
h    -3.7312049    1.1969006    1.2630094  0.00   -0.0006219   -0.0012535    0.0042403
h    -2.6786330    0.5227416   -1.3258442  0.00    0.0135495    0.0081340    0.0110686
h    -3.6588383   -0.3941215   -0.2931476  0.00    0.0015813    0.0142794   -0.0071514
o    -2.6630636    3.8260995    0.9331629  0.00    0.0021063   -0.0030486   -0.0002070
o    -1.1757230    2.3239313   -0.1188360  0.00    0.0006841    0.0060868    0.0031373
h    -1.1733033    1.4612618   -0.6319812  0.00   -0.0161926   -0.0127702   -0.0118546
    13
 Energy =      -0.0325718498
c    -3.6414089    1.6111205    0.2298265  0.00    0.0024231   -0.0021873   -0.0012049
c    -2.4672087    2.6112541    0.2913048  0.00    0.0008701    0.0016345    0.0004279
c    -4.9743238    2.3386473   -0.0182131  0.00   -0.0046851    0.0008461    0.0014928
h    -5.1654079    3.1082309    0.7622755  0.00   -0.0009249    0.0004947    0.0005790
h    -5.8158107    1.6113564   -0.0094445  0.00   -0.0019246   -0.0005813    0.0002308
h    -4.9524115    2.8323197   -1.0196500  0.00    0.0002993    0.0022072   -0.0048586
n    -3.5494480    0.5534172   -0.7954185  0.00    0.0007224   -0.0117081    0.0029906
h    -3.6836936    1.1493856    1.2491054  0.00   -0.0005933   -0.0015596    0.0050464
h    -2.7009878    0.5642614   -1.3884766  0.00    0.0127576    0.0070867    0.0094176
h    -3.6551892   -0.3899446   -0.3650439  0.00    0.0013836    0.0117636   -0.0060730
o    -2.6522871    3.7959333    0.9867550  0.00    0.0008411   -0.0007154    0.0012461
o    -1.1837959    2.3578367   -0.1834504  0.00    0.0029877    0.0048086    0.0018751
h    -1.1842240    1.5117589   -0.7235559  0.00   -0.0141569   -0.0120897   -0.0111699
    13
 Energy =      -0.0328784076
c    -3.6326273    1.6249177    0.2371306  0.00    0.0021895   -0.0025746   -0.0012036
c    -2.4728481    2.6458643    0.2252618  0.00    0.0018758   -0.0010161   -0.0013327
c    -4.9834394    2.3197133   -0.0093927  0.00   -0.0044056    0.0006944    0.0012709
h    -5.1735120    3.1109150    0.7499091  0.00   -0.0008698    0.0007789    0.0008703
h    -5.8116550    1.5777009    0.0379976  0.00   -0.0024361   -0.0011952    0.0001995
h    -4.9886436    2.7824399   -1.0263769  0.00    0.0001653    0.0025134   -0.0053874
n    -3.5465838    0.5265935   -0.7465161  0.00    0.0001615   -0.0107885    0.0005928
h    -3.6423479    1.2050164    1.2763762  0.00   -0.0004573   -0.0020587    0.0061875
h    -2.7042402    0.5226748   -1.3491741  0.00    0.0121065    0.0065889    0.0086013
h    -3.6326819   -0.3996294   -0.2726388  0.00    0.0011125    0.0091807   -0.0047579
o    -2.6733908    3.8825804    0.8280019  0.00    0.0002729    0.0059016    0.0042571
o    -1.1837837    2.3656041   -0.2193188  0.00    0.0032612    0.0052243    0.0023288
h    -1.1804433    1.4911864   -0.7152454  0.00   -0.0129763   -0.0132491   -0.0116266
    13
 Energy =      -0.0331409464
c    -3.6090071    1.6340061    0.2478878  0.00    0.0011671   -0.0034017   -0.0010088
c    -2.4965773    2.7055402    0.1332345  0.00    0.0031939   -0.0008468   -0.0017584
c    -5.0005071    2.2586512    0.0396053  0.00   -0.0038484    0.0011900    0.0009187
h    -5.1918480    3.0657118    0.7814750  0.00   -0.0005460    0.0007362    0.0008142
h    -5.7926739    1.4814875    0.1468204  0.00   -0.0037690   -0.0027210    0.0003097
h    -5.0710239    2.6883830   -0.9899202  0.00   -0.0002934    0.0028914   -0.0058518
n    -3.5248397    0.4952502   -0.6901257  0.00   -0.0021279   -0.0056240   -0.0029448
h    -3.5487644    1.2600616    1.3040704  0.00    0.0001078   -0.0028115    0.0072213
h    -2.7047754    0.4896329   -1.3241321  0.00    0.0074889    0.0032648    0.0046481
h    -3.5575376   -0.4133522   -0.1672687  0.00    0.0005742    0.0021592   -0.0005897
o    -2.7313570    3.9676644    0.6692488  0.00    0.0014987    0.0080028    0.0041232
o    -1.2102514    2.4572187   -0.3369630  0.00    0.0039335    0.0058897    0.0023167
h    -1.1870340    1.5653218   -0.7979182  0.00   -0.0073795   -0.0087292   -0.0081984
    13
 Energy =      -0.0328825740
c    -3.6031032    1.6366779    0.2562134  0.00    0.0008976   -0.0026965   -0.0005761
c    -2.5032348    2.7179161    0.1148267  0.00    0.0018621   -0.0003975   -0.0012315
c    -5.0009027    2.2446381    0.0451238  0.00   -0.0034110    0.0010527    0.0008140
h    -5.1953960    3.0627660    0.7740331  0.00   -0.0004797    0.0007784    0.0008287
h    -5.7849640    1.4622910    0.1705512  0.00   -0.0035219   -0.0026083    0.0002795
h    -5.0816078    2.6554468   -0.9908725  0.00   -0.0003110    0.0027146   -0.0054815
n    -3.5163824    0.4770159   -0.6561884  0.00   -0.0023032   -0.0049885   -0.0033715
h    -3.5330486    1.2860460    1.3193865  0.00    0.0001588   -0.0026292    0.0068210
h    -2.7081318    0.4650128   -1.3045899  0.00    0.0062034    0.0024254    0.0037785
h    -3.5277328   -0.4196495   -0.1108970  0.00    0.0004540    0.0011786   -0.0000427
o    -2.7369105    3.9734715    0.6654269  0.00    0.0011897    0.0072945    0.0038183
o    -1.2292766    2.4909587   -0.4001907  0.00    0.0050722    0.0051475    0.0015567
h    -1.2055056    1.6029858   -0.8668089  0.00   -0.0058110   -0.0072716   -0.0071934
    13
 Energy =      -0.0326108437
c    -3.5992280    1.6389795    0.2637596  0.00    0.0007538   -0.0020876   -0.0002296
c    -2.5088403    2.7270519    0.1048534  0.00    0.0007270   -0.0001331   -0.0008063
c    -5.0006961    2.2335256    0.0432955  0.00   -0.0030402    0.0009138    0.0007266
h    -5.2002948    3.0626752    0.7583639  0.00   -0.0004382    0.0008295    0.0008479
h    -5.7788725    1.4480912    0.1829515  0.00   -0.0032366   -0.0024498    0.0002506
h    -5.0854200    2.6256293   -0.9991159  0.00   -0.0003214    0.0025310   -0.0051074
n    -3.5062696    0.4608653   -0.6245767  0.00   -0.0022878   -0.0044999   -0.0036425
h    -3.5266042    1.3093862    1.3330548  0.00    0.0001984   -0.0024238    0.0063708
h    -2.7065266    0.4420558   -1.2827218  0.00    0.0050475    0.0017005    0.0031404
h    -3.5005520   -0.4241838   -0.0596212  0.00    0.0003779    0.0004911    0.0003195
o    -2.7389086    3.9744293    0.6743798  0.00    0.0008648    0.0067457    0.0035976
o    -1.2484544    2.5199713   -0.4519818  0.00    0.0058590    0.0044383    0.0008948
h    -1.2255298    1.6371005   -0.9266269  0.00   -0.0045042   -0.0060556   -0.0063622
    13
 Energy =      -0.0324007988
c    -3.5973193    1.6406776    0.2694729  0.00    0.0006864   -0.0016739   -0.0000360
c    -2.5126072    2.7325291    0.1018119  0.00    0.0000397   -0.0000308   -0.0005453
c    -5.0000399    2.2261752    0.0371356  0.00   -0.0027378    0.0007883    0.0006595
h    -5.2047851    3.0646140    0.7398760  0.00   -0.0004110    0.0008452    0.0008411
h    -5.7748757    1.4396432    0.1864496  0.00   -0.0029373   -0.0022536    0.0002253
h    -5.0842871    2.6025663   -1.0105938  0.00   -0.0003164    0.0023348   -0.0047152
n    -3.4971140    0.4489207   -0.5999028  0.00   -0.0021315   -0.0040968   -0.0036408
h    -3.5271543    1.3270339    1.3432516  0.00    0.0002138   -0.0022078    0.0058690
h    -2.7019473    0.4240219   -1.2629052  0.00    0.0041867    0.0012111    0.0027077
h    -3.4806641   -0.4268004   -0.0203463  0.00    0.0003313    0.0001464    0.0004681
o    -2.7379092    3.9719963    0.6894537  0.00    0.0006209    0.0062550    0.0033814
o    -1.2644420    2.5412094   -0.4878613  0.00    0.0060651    0.0038382    0.0004671
h    -1.2430517    1.6629902   -0.9698275  0.00   -0.0036099   -0.0051561   -0.0056819
    13
 Energy =      -0.0322613945
c    -3.5964656    1.6419064    0.2735478  0.00    0.0006372   -0.0014010    0.0000562
c    -2.5150526    2.7357374    0.1019212  0.00   -0.0003191    0.0000028   -0.0003906
c    -4.9992088    2.2213738    0.0301843  0.00   -0.0024745    0.0006829    0.0006031
h    -5.2081436    3.0672197    0.7227353  0.00   -0.0003855    0.0008255    0.0008084
h    -5.7722367    1.4348043    0.1862726  0.00   -0.0026530   -0.0020528    0.0002035
h    -5.0813900    2.5852002   -1.0216574  0.00   -0.0003010    0.0021372   -0.0043210
n    -3.4897588    0.4405601   -0.5817456  0.00   -0.0019391   -0.0037287   -0.0034688
h    -3.5303777    1.3397794    1.3504022  0.00    0.0002127   -0.0019998    0.0053587
h    -2.6966458    0.4106609   -1.2466681  0.00    0.0035668    0.0009034    0.0023849
h    -3.4672307   -0.4282128    0.0081738  0.00    0.0002967   -0.0000074    0.0005040
o    -2.7357443    3.9684228    0.7046173  0.00    0.0004603    0.0057651    0.0031427
o    -1.2769916    2.5564532   -0.5123010  0.00    0.0059083    0.0033464    0.0002143
h    -1.2569507    1.6816719   -0.9994681  0.00   -0.0030097   -0.0044737   -0.0050954
    13
 Energy =      -0.0321711405
c    -3.5960917    1.6428337    0.2765160  0.00    0.0005900   -0.0012054    0.0000986
c    -2.5167364    2.7377419    0.1031806  0.00   -0.0005016    0.0000121   -0.0002917
c    -4.9983463    2.2180430    0.0237205  0.00   -0.0022366    0.0005947    0.0005519
h    -5.2105216    3.0698974    0.7078200  0.00   -0.0003589    0.0007861    0.0007618
h    -5.7703518    1.4319164    0.1849905  0.00   -0.0023924   -0.0018621    0.0001842
h    -5.0781791    2.5716229   -1.0313404  0.00   -0.0002811    0.0019473   -0.0039412
n    -3.4839151    0.4345544   -0.5681278  0.00   -0.0017515   -0.0033856   -0.0032274
h    -3.5342237    1.3492500    1.3555174  0.00    0.0002037   -0.0018068    0.0048687
h    -2.6915240    0.4005606   -1.2334826  0.00    0.0030949    0.0007009    0.0021203
h    -3.4580738   -0.4290028    0.0293541  0.00    0.0002674   -0.0000764    0.0004943
o    -2.7333322    3.9647008    0.7181793  0.00    0.0003520    0.0052832    0.0028956
o    -1.2870205    2.5679406   -0.5298984  0.00    0.0055899    0.0029370    0.0000606
h    -1.2678809    1.6955182   -1.0204149  0.00   -0.0025758   -0.0039250   -0.0045758
    13
 Energy =      -0.0321121525
c    -3.5959484    1.6435615    0.2787494  0.00    0.0005434   -0.0010541    0.0001165
c    -2.5179643    2.7390697    0.1048268  0.00   -0.0005895    0.0000126   -0.0002239
c    -4.9975091    2.2156101    0.0179906  0.00   -0.0020201    0.0005202    0.0005044
h    -5.2121837    3.0724697    0.6949487  0.00   -0.0003320    0.0007375    0.0007094
h    -5.7689217    1.4301502    0.1834824  0.00   -0.0021560   -0.0016857    0.0001668
h    -5.0751078    2.5606088   -1.0396593  0.00   -0.0002596    0.0017691   -0.0035840
n    -3.4792046    0.4300825   -0.5576049  0.00   -0.0015788   -0.0030674   -0.0029662
h    -3.5380170    1.3565368    1.3592968  0.00    0.0001912   -0.0016304    0.0044109
h    -2.6868253    0.3926793   -1.2226239  0.00    0.0027166    0.0005599    0.0018933
h    -3.4517007   -0.4294684    0.0455896  0.00    0.0002414   -0.0001067    0.0004668
o    -2.7309793    3.9611398    0.7300274  0.00    0.0002755    0.0048220    0.0026528
o    -1.2952525    2.5770003   -0.5432404  0.00    0.0052083    0.0025903   -0.0000353
h    -1.2765825    1.7061371   -1.0357689  0.00   -0.0022402   -0.0034673   -0.0041115
    13
 Energy =      -0.0320731281
c    -3.5959247    1.6441487    0.2804754  0.00    0.0004983   -0.0009309    0.0001217
c    -2.5188983    2.7399848    0.1065609  0.00   -0.0006241    0.0000097   -0.0001753
c    -4.9967195    2.2137694    0.0129712  0.00   -0.0018232    0.0004566    0.0004603
h    -5.2133346    3.0748864    0.6837963  0.00   -0.0003057    0.0006854    0.0006555
h    -5.7677947    1.4290797    0.1820394  0.00   -0.0019423   -0.0015243    0.0001511
h    -5.0723025    2.5514346   -1.0468102  0.00   -0.0002382    0.0016041   -0.0032525
n    -3.4753471    0.4266534   -0.5492707  0.00   -0.0014224   -0.0027745   -0.0027074
h    -3.5415487    1.3622986    1.3621660  0.00    0.0001773   -0.0014701    0.0039892
h    -2.6825906    0.3863661   -1.2135468  0.00    0.0024022    0.0004573    0.0016943
h    -3.4472017   -0.4297567    0.0583572  0.00    0.0002180   -0.0001182    0.0004330
o    -2.7287813    3.9578287    0.7403627  0.00    0.0002194    0.0043888    0.0024212
o    -1.3021526    2.5843804   -0.5537403  0.00    0.0048092    0.0022932   -0.0000954
h    -1.2836007    1.7145030   -1.0473466  0.00   -0.0019684   -0.0030770   -0.0036956
    13
 Energy =      -0.0320470804
c    -3.5959661    1.6446320    0.2818372  0.00    0.0004552   -0.0008274    0.0001201
c    -2.5196304    2.7406318    0.1082580  0.00   -0.0006274    0.0000059   -0.0001393
c    -4.9959860    2.2123429    0.0085808  0.00   -0.0016444    0.0004019    0.0004194
h    -5.2141180    3.0771361    0.6740746  0.00   -0.0002803    0.0006330    0.0006026
h    -5.7668847    1.4284644    0.1807517  0.00   -0.0017495   -0.0013773    0.0001368
h    -5.0697850    2.5436505   -1.0529871  0.00   -0.0002175    0.0014526   -0.0029475
n    -3.4721462    0.4239641   -0.5425441  0.00   -0.0012815   -0.0025064   -0.0024609
h    -3.5447651    1.3669482    1.3643905  0.00    0.0001632   -0.0013250    0.0036036
h    -2.6787998    0.3812067   -1.2058657  0.00    0.0021347    0.0003799    0.0015181
h    -3.4440052   -0.4299438    0.0685946  0.00    0.0001968   -0.0001201    0.0003979
o    -2.7267630    3.9547856    0.7494111  0.00    0.0001770    0.0039863    0.0022039
o    -1.3080251    2.5905297   -0.5622266  0.00    0.0044151    0.0020364   -0.0001320
h    -1.2893224    1.7212291   -1.0562608  0.00   -0.0017414   -0.0027397   -0.0033227
    13
 Energy =      -0.0320296068
c    -3.5960434    1.6450353    0.2829292  0.00    0.0004148   -0.0007383    0.0001151
c    -2.5202175    2.7410966    0.1098652  0.00   -0.0006121    0.0000021   -0.0001120
c    -4.9953105    2.2112181    0.0047339  0.00   -0.0014823    0.0003545    0.0003815
h    -5.2146355    3.0792198    0.6655525  0.00   -0.0002563    0.0005819    0.0005518
h    -5.7661380    1.4281563    0.1796372  0.00   -0.0015757   -0.0012438    0.0001239
h    -5.0675422    2.5369586   -1.0583516  0.00   -0.0001980    0.0013140   -0.0026682
n    -3.4694613    0.4218176   -0.5370350  0.00   -0.0011547   -0.0022621   -0.0022309
h    -3.5476668    1.3707587    1.3661438  0.00    0.0001495   -0.0011938    0.0032526
h    -2.6754150    0.3769250   -1.1993026  0.00    0.0019035    0.0003198    0.0013613
h    -3.4417354   -0.4300710    0.0769267  0.00    0.0001776   -0.0001170    0.0003635
o    -2.7249242    3.9520039    0.7573678  0.00    0.0001443    0.0036153    0.0020022
o    -1.3130794    2.5957368   -0.5692203  0.00    0.0040372    0.0018128   -0.0001529
h    -1.2940279    1.7267215   -1.0632324  0.00   -0.0015477   -0.0024454   -0.0029880
    13
 Energy =      -0.0320178682
c    -3.5961399    1.6453755    0.2838161  0.00    0.0003771   -0.0006607    0.0001082
c    -2.5206966    2.7414333    0.1113611  0.00   -0.0005859   -0.0000013   -0.0000909
c    -4.9946919    2.2103198    0.0013544  0.00   -0.0013358    0.0003134    0.0003467
h    -5.2149592    3.0811434    0.6580464  0.00   -0.0002339    0.0005331    0.0005040
h    -5.7655182    1.4280590    0.1786870  0.00   -0.0014190   -0.0011228    0.0001122
h    -5.0655499    2.5311501   -1.0630338  0.00   -0.0001798    0.0011878   -0.0024134
n    -3.4671894    0.4200804   -0.5324705  0.00   -0.0010405   -0.0020401   -0.0020187
h    -3.5502739    1.3739194    1.3675441  0.00    0.0001364   -0.0010754    0.0029341
h    -2.6723953    0.3733288   -1.1936517  0.00    0.0017015    0.0002722    0.0012213
h    -3.4401356   -0.4301617    0.0837885  0.00    0.0001602   -0.0001114    0.0003310
o    -2.7232551    3.9494682    0.7643929  0.00    0.0001186    0.0032750    0.0018163
o    -1.3174661    2.6001987   -0.5750696  0.00    0.0036810    0.0016170   -0.0001631
h    -1.2979257    1.7312623   -1.0687507  0.00   -0.0013801   -0.0021868   -0.0026876
    13
 Energy =      -0.0320151591
c    -3.5981529    1.6508725    0.2976485  0.00    0.0006497    0.0014755    0.0008702
c    -2.5282262    2.7460812    0.1375599  0.00   -0.0084543   -0.0015037    0.0036399
c    -4.9839717    2.1965510   -0.0552106  0.00    0.0007923   -0.0018400    0.0007591
h    -5.2184300    3.1148013    0.5319462  0.00   -0.0007221    0.0023187    0.0013783
h    -5.7556595    1.4289639    0.1634134  0.00    0.0010080    0.0000426    0.0001605
h    -5.0319592    2.4346663   -1.1410178  0.00   -0.0001962    0.0001362   -0.0013103
n    -3.4303968    0.3930576   -0.4599304  0.00    0.0005982    0.0007077   -0.0008700
h    -3.5947019    1.4242191    1.3890241  0.00    0.0003112    0.0008150   -0.0008125
h    -2.6212094    0.3153881   -1.1006349  0.00   -0.0038160   -0.0044122   -0.0016977
h    -3.4190418   -0.4314490    0.1921949  0.00   -0.0000587   -0.0014203    0.0007942
o    -2.6945282    3.9056258    0.8826541  0.00   -0.0029522    0.0026737    0.0029439
o    -1.3902735    2.6734938   -0.6690914  0.00    0.0089941   -0.0045207   -0.0082393
h    -1.3596461    1.8033057   -1.1525417  0.00    0.0038458    0.0055273    0.0023836
    13
 Energy =      -0.0320191244
c    -3.5903761    1.6530326    0.2994750  0.00    0.0005874    0.0008914    0.0006386
c    -2.5377140    2.7618200    0.1119240  0.00   -0.0065468   -0.0011518    0.0027710
c    -4.9899335    2.1770837   -0.0335946  0.00    0.0004523   -0.0013227    0.0006141
h    -5.2275117    3.0944953    0.5525933  0.00   -0.0006006    0.0018679    0.0010995
h    -5.7477674    1.3999255    0.2010188  0.00    0.0006139   -0.0001378    0.0001925
h    -5.0585187    2.4095719   -1.1194869  0.00   -0.0001937    0.0001834   -0.0012612
n    -3.4187478    0.3927207   -0.4526749  0.00    0.0002488    0.0008017   -0.0008150
h    -3.5647231    1.4337565    1.3924775  0.00    0.0002815    0.0005420   -0.0003959
h    -2.6186555    0.3227630   -1.1056795  0.00   -0.0028777   -0.0035190   -0.0015234