    27
 Energy =       2.6973358816
c    -1.4235396    2.6054793   -0.0667700  0.00   -0.0467973    0.0386358    0.0024888
c    -1.3072796    1.2134697   -0.1072300  0.00   -0.0854383   -0.0328205    0.0018064
c    -0.0178900    0.6711998   -0.1697000  0.00   -0.0886468   -0.1879625   -0.0008295
c    -0.2940599    3.4190890   -0.0891300  0.00    0.1027416    0.0663317    0.0965915
c     0.9872197    2.8590292   -0.1560400  0.00    3.0745630    3.6503580   10.5066755
c     1.1340797    1.4562096   -0.1970299  0.00    0.0985484    0.1198075    0.0333220
n     0.3879399   -0.6395298   -0.2140799  0.00    0.1427876    0.1103293   -0.0034680
c     2.2666594    0.5727398   -0.2659299  0.00    0.1530727   -0.0812694   -0.0281847
c     1.7555995   -0.7123598   -0.2706899  0.00   -0.1009422   -0.0976452    0.0040651
h    -0.2400399   -1.4313496   -0.2047299  0.00    0.0368241    0.0478261   -0.0005072
c     3.7030089    1.0223397   -0.3320099  0.00   -0.0295311    0.0406566    0.0208678
c     4.0547688    2.2615794    0.5049969  0.00   -0.0115256   -0.0547044    0.0905400
h     3.9407589    1.2278196   -1.3843196  0.00    0.0020880   -0.0062072    0.0161657
h     4.3455988    0.1801669   -0.0411573  0.00   -0.0101263    0.0065161   -0.0084143
c     2.9727892    3.3351790    0.2854279  0.00   -0.1539443   -0.2192791   -0.0410373
n     5.3813085    2.8752092    0.1415580  0.00    0.0746461    0.0601266    0.0036745
h     4.0661188    2.0288794    1.5763396  0.00    0.0152241    0.0183430   -0.0203223
h     5.9393083    2.9158592    1.0006797  0.00   -0.0244553   -0.0136451   -0.0270895
h     5.8842883    2.2013894   -0.4465299  0.00   -0.0265456    0.0100953    0.0234420
h    -2.4108593    3.0588691   -0.0157800  0.00   -0.0005107    0.0001602    0.0001605
h    -2.1896094    0.5822398   -0.0890100  0.00   -0.0036516    0.0036921    0.0001327
h    -0.4052699    4.5000487   -0.0535400  0.00    0.0012919   -0.0031960    0.0019264
h     1.8590495    3.5066790   -0.1715100  0.00   -0.4248155    0.3516785    1.6418037
h     2.2327294   -1.6813195   -0.3062999  0.00   -0.0406514   -0.0114407    0.0023858
o     2.7320592    3.8947389   -0.7713858  0.00   -0.0627447   -0.1060988   -0.2362527
o     2.2961393    3.5939090    1.4368496  0.00   -0.2261556   -0.1994166   -0.3287065
h     1.3544696    3.3499890    1.2409596  0.00   -2.3653052   -3.5108712  -11.7512362
    27
 Energy =       2.6060761237
c    -1.4272998    2.5674377   -0.0270734  0.00   -0.0450127    0.0372279    0.0023887
c    -1.2978282    1.1777773   -0.0774536  0.00   -0.0821964   -0.0316626    0.0017636
c    -0.0046878    0.6490450   -0.1413690  0.00   -0.0856360   -0.1790700   -0.0005181
c    -0.3061748    3.3911654   -0.0452228  0.00    0.0987930    0.0638150    0.0928348
c     0.9791367    2.8431255   -0.1149608  0.00    2.9571279    3.5133736   10.1074851
c     1.1359200    1.4468189   -0.1676936  0.00    0.0944725    0.1159050    0.0318758
n     0.4161114   -0.6592320   -0.2338926  0.00    0.1374210    0.1049252   -0.0035564
c     2.2751618    0.5862123   -0.2701827  0.00    0.1454869   -0.0774239   -0.0261140
c     1.7870334   -0.7049254   -0.3008074  0.00   -0.0973469   -0.0929929    0.0041512
h    -0.1973640   -1.4644508   -0.2416771  0.00    0.0351008    0.0454858   -0.0005678
c     3.6942297    1.0739232   -0.3980438  0.00   -0.0295707    0.0397786    0.0221979
c     4.0507232    2.2763653    0.4908479  0.00   -0.0115908   -0.0526355    0.0869235
h     3.8598305    1.3574022   -1.4519192  0.00    0.0028524   -0.0044233    0.0104419
h     4.3809393    0.2324326   -0.1999104  0.00   -0.0063962    0.0025311   -0.0073953
c     2.9698057    3.3640568    0.3283208  0.00   -0.1459078   -0.2089607   -0.0390488
n     5.3720521    2.9020427    0.1331737  0.00    0.0716483    0.0581626    0.0034756
h     4.0754214    1.9935983    1.5514028  0.00    0.0146075    0.0171972   -0.0182595
h     5.9316123    2.9369644    0.9926353  0.00   -0.0234512   -0.0130891   -0.0260072
h     5.8799310    2.2426847   -0.4687019  0.00   -0.0253521    0.0094331    0.0222837
h    -2.4189848    3.0112607    0.0241747  0.00   -0.0005446    0.0001794    0.0001568
h    -2.1739353    0.5376103   -0.0721876  0.00   -0.0036202    0.0034471    0.0001256
h    -0.4272831    4.4710754   -0.0054881  0.00    0.0012364   -0.0030108    0.0018547
h     1.8392083    3.4801816   -0.1360035  0.00   -0.4107178    0.3330969    1.5767471
h     2.2847648   -1.6608698   -0.3940261  0.00   -0.0381356   -0.0127686    0.0021826
o     2.6937370    3.9117685   -0.7194460  0.00   -0.0590802   -0.1000802   -0.2281180
o     2.2868631    3.5693628    1.4925757  0.00   -0.2185000   -0.1908783   -0.3144574
h     1.3464222    3.3347197    1.2868683  0.00   -2.2756877   -3.3775626  -11.3028463
    27
 Energy =       2.3931388801
c    -1.4311523    2.5062018    0.0172899  0.00   -0.0400829    0.0333443    0.0021199
c    -1.2815891    1.1221684   -0.0463715  0.00   -0.0733060   -0.0283625    0.0016054
c     0.0144320    0.6138431   -0.1097781  0.00   -0.0770186   -0.1568730    0.0004043
c    -0.3235195    3.3438227    0.0076553  0.00    0.0884711    0.0568379    0.0828640
c     0.9660524    2.8138921   -0.0597680  0.00    2.6495873    3.1563882    9.0657904
c     1.1354950    1.4290331   -0.1295608  0.00    0.0839372    0.1047656    0.0282014
n     0.4530202   -0.6917021   -0.2646888  0.00    0.1223444    0.0915802   -0.0038397
c     2.2824919    0.6073143   -0.2702806  0.00    0.1276953   -0.0678470   -0.0218147
c     1.8312401   -0.6907445   -0.3379105  0.00   -0.0871895   -0.0813585    0.0043826
h    -0.1392590   -1.5174127   -0.2992993  0.00    0.0306485    0.0393471   -0.0007679
c     3.6771182    1.1436838   -0.4665741  0.00   -0.0262195    0.0358851    0.0215095
c     4.0471800    2.3103312    0.4681333  0.00   -0.0106808   -0.0481217    0.0761989
h     3.7631459    1.4956159   -1.5155096  0.00    0.0030226   -0.0021962    0.0043536
h     4.4054531    0.3133666   -0.3586635  0.00   -0.0022678   -0.0011469   -0.0063247
c     2.9610564    3.4082603    0.4014354  0.00   -0.1258494   -0.1804347   -0.0340659
n     5.3535007    2.9502652    0.0921083  0.00    0.0634883    0.0522198    0.0028146
h     4.1097914    1.9705980    1.5144543  0.00    0.0132248    0.0144110   -0.0140800
h     5.9328046    2.9918396    0.9410660  0.00   -0.0204838   -0.0116227   -0.0228691
h     5.8610627    2.3115769   -0.5361662  0.00   -0.0220952    0.0078819    0.0192543
h    -2.4293483    2.9357082    0.0658054  0.00   -0.0006083    0.0002161    0.0001458
h    -2.1478365    0.4685837   -0.0606766  0.00   -0.0034812    0.0028496    0.0000911
h    -0.4591542    4.4222471    0.0510585  0.00    0.0011001   -0.0025657    0.0016607
h     1.8103813    3.4364501   -0.0897628  0.00   -0.3756636    0.2794777    1.4023551
h     2.3667265   -1.6191689   -0.5001795  0.00   -0.0322467   -0.0143153    0.0015041
o     2.6396687    3.9541855   -0.6180829  0.00   -0.0473520   -0.0823689   -0.2043309
o     2.2710962    3.5291599    1.5834949  0.00   -0.1983917   -0.1697029   -0.2769618
h     1.3354876    3.3084338    1.3547111  0.00   -2.0405824   -3.0282887  -10.1302009
    27
 Energy =       2.0639792604
c    -1.4339135    2.4349565    0.0480756  0.00   -0.0311598    0.0264370    0.0016779
c    -1.2611135    1.0612286   -0.0435128  0.00   -0.0572109   -0.0225486    0.0013377
c     0.0342740    0.5766739   -0.1023028  0.00   -0.0607289   -0.1171443    0.0031239
c    -0.3426953    3.2861823    0.0636681  0.00    0.0709967    0.0442727    0.0655384
c     0.9494502    2.7771992    0.0072659  0.00    2.1250126    2.5439971    7.2964638
c     1.1296551    1.4085992   -0.0944077  0.00    0.0656024    0.0847400    0.0219068
n     0.4854606   -0.7239800   -0.3507737  0.00    0.0952690    0.0671203   -0.0056619
c     2.2815929    0.6374924   -0.2726151  0.00    0.0990482   -0.0506848   -0.0153781
c     1.8760722   -0.6641027   -0.3986646  0.00   -0.0684483   -0.0613709    0.0053717
h    -0.0859338   -1.5702448   -0.4432829  0.00    0.0223436    0.0276698   -0.0015408
c     3.6509539    1.2210394   -0.5194352  0.00   -0.0200790    0.0275063    0.0173080
c     4.0420022    2.3471624    0.4618399  0.00   -0.0079972   -0.0391644    0.0577589
h     3.6699339    1.6334569   -1.5543661  0.00    0.0024796   -0.0002924   -0.0003132
h     4.4079193    0.4046052   -0.4895668  0.00    0.0006969   -0.0033523   -0.0050048
c     2.9589295    3.4560848    0.5143961  0.00   -0.0946469   -0.1325163   -0.0258140
n     5.3342198    2.9928406    0.0679615  0.00    0.0484084    0.0417247    0.0025223
h     4.1426609    1.9416018    1.4877464  0.00    0.0109445    0.0099959   -0.0083416
h     5.9394274    3.0328474    0.9041751  0.00   -0.0154064   -0.0091316   -0.0173855
h     5.8362317    2.3832599   -0.6002563  0.00   -0.0162846    0.0051300    0.0136401
h    -2.4395041    2.8479917    0.0883811  0.00   -0.0006811    0.0002210    0.0001240
h    -2.1153725    0.3929763   -0.0961885  0.00   -0.0033989    0.0015774   -0.0000271
h    -0.4943725    4.3626212    0.1169339  0.00    0.0008962   -0.0018148    0.0012970
h     1.7935007    3.3993310   -0.0282340  0.00   -0.3122574    0.1958198    1.1046680
h     2.4641229   -1.5488748   -0.6288660  0.00   -0.0230598   -0.0149018    0.0003707
o     2.5968957    4.0179122   -0.4593297  0.00   -0.0286199   -0.0544499   -0.1588084
o     2.2584174    3.4780559    1.7098708  0.00   -0.1623025   -0.1356085   -0.2142313
h     1.3265307    3.2806365    1.4454273  0.00   -1.6394164   -2.4332316   -8.1406024
    27
 Energy =       1.7947411881
c    -1.4401818    2.3625804    0.0895991  0.00   -0.0236544    0.0202201    0.0012365
c    -1.2394369    0.9986634   -0.0080484  0.00   -0.0436512   -0.0171603    0.0007664
c     0.0570271    0.5423532   -0.0782936  0.00   -0.0463024   -0.0887185    0.0015733
c    -0.3687368    3.2321277    0.1084530  0.00    0.0550938    0.0333310    0.0505839
c     0.9299328    2.7497043    0.0519850  0.00    1.6670822    2.0013670    5.7471538
c     1.1249660    1.3935418   -0.0770074  0.00    0.0488883    0.0657720    0.0168004
n     0.5247611   -0.7604533   -0.3237047  0.00    0.0669954    0.0512936   -0.0025034
c     2.2809044    0.6701657   -0.3012644  0.00    0.0745711   -0.0383609   -0.0098959
c     1.9192647   -0.6351364   -0.4505215  0.00   -0.0484199   -0.0448758    0.0030624
h    -0.0240236   -1.6315650   -0.3830781  0.00    0.0160856    0.0194236   -0.0018428
c     3.6219923    1.2985155   -0.6015323  0.00   -0.0144272    0.0205233    0.0133221
c     4.0416096    2.3809661    0.4210179  0.00   -0.0051124   -0.0310140    0.0429451
h     3.5740719    1.7648945   -1.6158113  0.00    0.0018725    0.0012482   -0.0035870
h     4.3999815    0.4989817   -0.6483199  0.00    0.0029452   -0.0047007   -0.0039124
c     2.9600523    3.4849082    0.5966293  0.00   -0.0704144   -0.0953140   -0.0205686
n     5.3151564    3.0406100    0.0065556  0.00    0.0350509    0.0331718    0.0025551
h     4.1844272    1.9126579    1.4206187  0.00    0.0089702    0.0061059   -0.0034958
h     5.9517838    3.0667777    0.8250154  0.00   -0.0108188   -0.0070525   -0.0120511
h     5.8036613    2.4678801   -0.7096680  0.00   -0.0108512    0.0024583    0.0082787
h    -2.4539647    2.7548508    0.1351244  0.00   -0.0007813    0.0002390    0.0000742
h    -2.0786482    0.3115758   -0.0585167  0.00   -0.0028233    0.0010183   -0.0004002
h    -0.5413674    4.3054117    0.1700207  0.00    0.0006234   -0.0011697    0.0012141
h     1.7805565    3.3911238    0.0155808  0.00   -0.2490660    0.1414911    0.8515899
h     2.5464958   -1.4757677   -0.7447433  0.00   -0.0147685   -0.0135355   -0.0010467
o     2.5573251    4.0780802   -0.3294743  0.00   -0.0181454   -0.0354835   -0.1212416
o     2.2626140    3.3983055    1.8072939  0.00   -0.1247556   -0.1072026   -0.1546580
h     1.3151215    3.2657994    1.5160298  0.00   -1.2941864   -1.9130753   -6.4059525
    27
 Energy =       1.5853845146
c    -1.4283230    2.4147784    0.1123702  0.00   -0.0180813    0.0149654    0.0012780
c    -1.2445666    1.0494706    0.0480621  0.00   -0.0329876   -0.0140950    0.0005587
c     0.0377001    0.5778090   -0.0357722  0.00   -0.0341320   -0.0647191    0.0006208
c    -0.3479703    3.2724454    0.0970271  0.00    0.0422124    0.0257173    0.0389251
c     0.9429358    2.7707429    0.0460477  0.00    1.3041268    1.5772431    4.5111317
c     1.1063332    1.4118071   -0.0709428  0.00    0.0368732    0.0499011    0.0130621
n     0.4788386   -0.7495695   -0.2219974  0.00    0.0490888    0.0361387   -0.0004469
c     2.2421737    0.6792195   -0.3053566  0.00    0.0565129   -0.0283224   -0.0071082
c     1.8743260   -0.6235309   -0.4182793  0.00   -0.0342193   -0.0330719    0.0010948
h    -0.0821360   -1.6209390   -0.2243250  0.00    0.0110980    0.0121478   -0.0009599
c     3.5830651    1.2826760   -0.6531706  0.00   -0.0111636    0.0156490    0.0089468
c     4.0663922    2.3369910    0.3731274  0.00   -0.0040870   -0.0233372    0.0329715
h     3.4997358    1.7691445   -1.6559823  0.00    0.0008122    0.0013940   -0.0037977
h     4.3448671    0.4717504   -0.7450352  0.00    0.0033294   -0.0038125   -0.0035137
c     3.0172148    3.4552605    0.6223511  0.00   -0.0547471   -0.0691900   -0.0144154
n     5.3299248    2.9765758   -0.0918509  0.00    0.0253969    0.0270269    0.0012807
h     4.2426734    1.8469222    1.3582871  0.00    0.0075163    0.0047938   -0.0019877
h     6.0078164    3.0000493    0.6971174  0.00   -0.0066766   -0.0046343   -0.0082936
h     5.7803833    2.4144126   -0.8452412  0.00   -0.0072505    0.0014375    0.0038632
h    -2.4374275    2.8172657    0.1682357  0.00   -0.0008690   -0.0004430    0.0003905
h    -2.0903416    0.3675247    0.0394125  0.00   -0.0026004   -0.0004520   -0.0000720
h    -0.5066228    4.3484636    0.1452604  0.00    0.0001771   -0.0010294    0.0012385
h     1.8276268    3.3644992    0.0152188  0.00   -0.1909123    0.0973846    0.6521211
h     2.5014086   -1.4617036   -0.7185022  0.00   -0.0107941   -0.0100293   -0.0012325
o     2.6123941    4.0587842   -0.2793269  0.00   -0.0130131   -0.0261682   -0.0908683
o     2.3113775    3.3429722    1.8375734  0.00   -0.0878285   -0.0849897   -0.1135160
h     1.3355465    3.2937311    1.5396311  0.00   -1.0277818   -1.4995052   -5.0212715
    27
 Energy =       1.5113005544
c    -1.4113310    2.4986616    0.0541372  0.00   -0.0169108    0.0137204    0.0012142
c    -1.2617587    1.1290987    0.0026075  0.00   -0.0303131   -0.0130908    0.0005630
c     0.0071691    0.6242394   -0.0649390  0.00   -0.0310087   -0.0585367    0.0006978
c    -0.3090166    3.3280476    0.0416358  0.00    0.0378614    0.0239225    0.0351537
c     0.9676986    2.7909496    0.0099226  0.00    1.1849740    1.4347063    4.0990042
c     1.0949865    1.4286830   -0.0918711  0.00    0.0334135    0.0452426    0.0120380
n     0.4127930   -0.7176239   -0.2338313  0.00    0.0437900    0.0324882   -0.0004238
c     2.2142273    0.6668760   -0.2973267  0.00    0.0509229   -0.0258315   -0.0061808
c     1.8181765   -0.6277654   -0.4002872  0.00   -0.0300867   -0.0301667    0.0009788
h    -0.1748732   -1.5728915   -0.2402682  0.00    0.0095340    0.0103534   -0.0008964
c     3.5824191    1.2275722   -0.6116198  0.00   -0.0095777    0.0145301    0.0084400
c     4.0614363    2.2837434    0.4151698  0.00   -0.0058672   -0.0237416    0.0289743
h     3.5442422    1.7016820   -1.6239286  0.00    0.0007329    0.0017832   -0.0044208
h     4.3245256    0.3946068   -0.6663322  0.00    0.0038414   -0.0041596   -0.0031936
c     3.0478687    3.4526724    0.5936966  0.00   -0.0490343   -0.0612295   -0.0187467
n     5.3723638    2.8601112   -0.0032014  0.00    0.0254182    0.0262009   -0.0021799
h     4.1685336    1.8068089    1.4191269  0.00    0.0068343    0.0027973    0.0003900
h     6.0262206    2.8412962    0.8086235  0.00   -0.0041213   -0.0041753   -0.0058985
h     5.8198443    2.2836424   -0.7482633  0.00   -0.0061030    0.0012082    0.0034623
h    -2.4105531    2.9277656    0.0957441  0.00   -0.0012729   -0.0001854    0.0003751
h    -2.1246379    0.4686078   -0.0091357  0.00   -0.0026786   -0.0006551   -0.0000665
h    -0.4388611    4.4090053    0.0771555  0.00    0.0000611   -0.0004028    0.0011349
h     1.8677632    3.3501274   -0.0199807  0.00   -0.1727190    0.0852500    0.5911741
h     2.4361343   -1.4841822   -0.6689570  0.00   -0.0092068   -0.0095948   -0.0012827
o     2.6728024    4.0273889   -0.3297443  0.00   -0.0119788   -0.0216176   -0.0829807
o     2.3332127    3.4559860    1.8096956  0.00   -0.0763470   -0.0750982   -0.0918109
h     1.3639600    3.3124438    1.5161108  0.00   -0.9401577   -1.3637175   -4.5655193
    27
 Energy =       1.4283684305
c    -1.3907811    2.5838746   -0.0085686  0.00   -0.0154189    0.0122114    0.0011230
c    -1.2766514    1.2112317   -0.0480983  0.00   -0.0270720   -0.0118092    0.0005581
c    -0.0227542    0.6727660   -0.0980407  0.00   -0.0273051   -0.0512642    0.0007529
c    -0.2667308    3.3833039   -0.0157035  0.00    0.0329511    0.0216906    0.0308046
c     0.9938687    2.8104911   -0.0267979  0.00    1.0465042    1.2690847    3.6208477
c     1.0834980    1.4462842   -0.1148302  0.00    0.0292367    0.0396807    0.0106659
n     0.3459677   -0.6831150   -0.2486374  0.00    0.0377521    0.0282263   -0.0004281
c     2.1845075    0.6561993   -0.2894566  0.00    0.0444255   -0.0228698   -0.0052337
c     1.7600277   -0.6290418   -0.3838158  0.00   -0.0254756   -0.0267199    0.0008663
h    -0.2678491   -1.5216179   -0.2602718  0.00    0.0078209    0.0084513   -0.0008169
c     3.5785729    1.1733234   -0.5676994  0.00   -0.0078209    0.0130981    0.0077802
c     4.0558780    2.2299207    0.4605900  0.00   -0.0071541   -0.0231570    0.0246758
h     3.5854787    1.6348939   -1.5870793  0.00    0.0006807    0.0020775   -0.0048373
h     4.2982046    0.3189373   -0.5870618  0.00    0.0041597   -0.0043605   -0.0027777
c     3.0838493    3.4452482    0.5758356  0.00   -0.0426526   -0.0529614   -0.0201770
n     5.4074252    2.7430562    0.0895308  0.00    0.0247462    0.0245592   -0.0049713
h     4.0971803    1.7669049    1.4778527  0.00    0.0058574    0.0011185    0.0022866
h     6.0361908    2.6825431    0.9213942  0.00   -0.0018289   -0.0037314   -0.0035723
h     5.8503803    2.1566476   -0.6512138  0.00   -0.0050334    0.0009807    0.0030665
h    -2.3789107    3.0399774    0.0177889  0.00   -0.0016345    0.0000754    0.0003455
h    -2.1564507    0.5732833   -0.0642792  0.00   -0.0027013   -0.0008280   -0.0000601
h    -0.3666384    4.4682866    0.0080055  0.00   -0.0000363    0.0001975    0.0010044
h     1.9126338    3.3359217   -0.0534510  0.00   -0.1517340    0.0720251    0.5203157
h     2.3681682   -1.5024853   -0.6204804  0.00   -0.0075083   -0.0089381   -0.0012700
o     2.7393739    3.9922275   -0.3684236  0.00   -0.0105158   -0.0171989   -0.0737064
o     2.3561325    3.5458438    1.7815655  0.00   -0.0661056   -0.0633784   -0.0735427
h     1.3947743    3.3326467    1.4952858  0.00   -0.8341371   -1.2062604   -4.0336996
    27
 Energy =       1.3333101115
c    -1.3661061    2.6691937   -0.0685592  0.00   -0.0134714    0.0103628    0.0009959
c    -1.2884110    1.2948942   -0.0961985  0.00   -0.0230648   -0.0101756    0.0005314
c    -0.0514017    0.7227609   -0.1281319  0.00   -0.0228019   -0.0426409    0.0007515
c    -0.2209497    3.4370545   -0.0691554  0.00    0.0273738    0.0188276    0.0257402
c     1.0217331    2.8288083   -0.0593272  0.00    0.8847741    1.0751045    3.0631885
c     1.0721861    1.4642282   -0.1350202  0.00    0.0243262    0.0330194    0.0089481
n     0.2787744   -0.6465410   -0.2603808  0.00    0.0309874    0.0231570   -0.0004428
c     2.1524983    0.6474920   -0.2814316  0.00    0.0369494   -0.0192289   -0.0042792
c     1.6996573   -0.6270355   -0.3683497  0.00   -0.0204373   -0.0226132    0.0007294
h    -0.3602527   -1.4679407   -0.2761849  0.00    0.0059827    0.0064583   -0.0007089
c     3.5684160    1.1215101   -0.5292016  0.00   -0.0060652    0.0112014    0.0068079
c     4.0511562    2.1754398    0.5006473  0.00   -0.0076663   -0.0211568    0.0200411
h     3.6141337    1.5717365   -1.5525962  0.00    0.0006282    0.0021373   -0.0047225
h     4.2633964    0.2469547   -0.5200837  0.00    0.0040818   -0.0042445   -0.0022777
c     3.1253695    3.4319024    0.5702020  0.00   -0.0350984   -0.0435565   -0.0188986
n     5.4344735    2.6268485    0.1708384  0.00    0.0226526    0.0219369   -0.0065406
h     4.0364023    1.7242114    1.5249881  0.00    0.0046722   -0.0000508    0.0032595
h     6.0418304    2.5237900    1.0163717  0.00    0.0000336   -0.0032360   -0.0015359
h     5.8683267    2.0369173   -0.5733323  0.00   -0.0040488    0.0006814    0.0025613
h    -2.3418612    3.1524641   -0.0577760  0.00   -0.0018981    0.0003201    0.0002986
h    -2.1847240    0.6804282   -0.1171633  0.00   -0.0026203   -0.0009480   -0.0000529
h    -0.2901384    4.5250481   -0.0565512  0.00   -0.0001076    0.0007298    0.0008416
h     1.9609001    3.3232354   -0.0806957  0.00   -0.1275880    0.0576561    0.4371855
h     2.2966272   -1.5154484   -0.5771007  0.00   -0.0058048   -0.0078802   -0.0011617
o     2.8085895    3.9590749   -0.3883208  0.00   -0.0085366   -0.0131302   -0.0619414
o     2.3861459    3.6060230    1.7625119  0.00   -0.0560276   -0.0513186   -0.0582860
h     1.4285742    3.3545026    1.4839407  0.00   -0.7072246   -1.0214125   -3.4110324
    27
 Energy =       1.2434095855
c    -1.3372992    2.7572812   -0.1234194  0.00   -0.0116025    0.0086370    0.0008589
c    -1.2980471    1.3823856   -0.1397104  0.00   -0.0192627   -0.0086016    0.0004884
c    -0.0797030    0.7756157   -0.1538476  0.00   -0.0185128   -0.0345287    0.0007138
c    -0.1710832    3.4914411   -0.1168315  0.00    0.0221853    0.0160707    0.0209633
c     1.0518415    2.8473117   -0.0871225  0.00    0.7316222    0.8907267    2.5350437
c     1.0613721    1.4834398   -0.1516865  0.00    0.0197507    0.0266948    0.0072991
n     0.2097426   -0.6060929   -0.2685568  0.00    0.0247509    0.0183122   -0.0004349
c     2.1184468    0.6396402   -0.2735355  0.00    0.0300522   -0.0157414   -0.0034287
c     1.6353513   -0.6226058   -0.3540355  0.00   -0.0158683   -0.0187805    0.0005831
h    -0.4541630   -1.4093371   -0.2872113  0.00    0.0043036    0.0046553   -0.0005977
c     3.5529626    1.0697217   -0.4973029  0.00   -0.0045690    0.0093184    0.0057494
c     4.0478974    2.1175552    0.5341155  0.00   -0.0076253   -0.0186372    0.0159208
h     3.6316802    1.5097783   -1.5226947  0.00    0.0005809    0.0020539   -0.0043158
h     4.2212750    0.1755129   -0.4662474  0.00    0.0038083   -0.0039959   -0.0018029
c     3.1706446    3.4106557    0.5723425  0.00   -0.0278079   -0.0347552   -0.0164893
n     5.4557777    2.5090750    0.2386386  0.00    0.0200168    0.0191343   -0.0070978
h     3.9863955    1.6763744    1.5614915  0.00    0.0035786   -0.0007662    0.0035550
h     6.0441620    2.3650368    1.0930292  0.00    0.0013531   -0.0027914    0.0000025
h     5.8779118    1.9187239   -0.5127439  0.00   -0.0031761    0.0003694    0.0020077
h    -2.2990464    3.2684708   -0.1277560  0.00   -0.0021018    0.0005453    0.0002456
h    -2.2109698    0.7930403   -0.1655842  0.00   -0.0025360   -0.0010425   -0.0000489
h    -0.2082257    4.5814263   -0.1141429  0.00   -0.0001484    0.0011869    0.0006822
h     2.0112979    3.3121894   -0.1015157  0.00   -0.1050796    0.0449818    0.3582788
h     2.2177738   -1.5257252   -0.5396627  0.00   -0.0043359   -0.0067784   -0.0010239
o     2.8795898    3.9271306   -0.3950166  0.00   -0.0065046   -0.0097175   -0.0504625
o     2.4244994    3.6412159    1.7526154  0.00   -0.0467596   -0.0410094   -0.0461385
h     1.4652612    3.3782918    1.4803309  0.00   -0.5861122   -0.8455410   -2.8205515
    27
 Energy =       1.1724344145
c    -1.3040685    2.8512507   -0.1730128  0.00   -0.0102885    0.0074116    0.0007374
c    -1.3063168    1.4765635   -0.1794557  0.00   -0.0164807   -0.0074377    0.0004431
c    -0.1085457    0.8332287   -0.1765146  0.00   -0.0152563   -0.0283706    0.0006849
c    -0.1162506    3.5489724   -0.1584949  0.00    0.0181651    0.0140935    0.0172365
c     1.0848234    2.8674636   -0.1105437  0.00    0.6114822    0.7455452    2.1197898
c     1.0511913    1.5050604   -0.1655744  0.00    0.0163052    0.0218140    0.0060277
n     0.1373138   -0.5594962   -0.2758204  0.00    0.0199081    0.0145058   -0.0004131
c     2.0823877    0.6318757   -0.2662050  0.00    0.0248986   -0.0130832   -0.0027694
c     1.5654051   -0.6160581   -0.3418557  0.00   -0.0123433   -0.0159760    0.0004623
h    -0.5519681   -1.3425833   -0.2971092  0.00    0.0029286    0.0031896   -0.0005124
c     3.5335818    1.0152937   -0.4702491  0.00   -0.0034245    0.0078728    0.0048594
c     4.0460549    2.0534358    0.5631499  0.00   -0.0074094   -0.0165147    0.0129064
h     3.6418781    1.4461310   -1.4964419  0.00    0.0005594    0.0019643   -0.0039263
h     4.1728030    0.1010574   -0.4222908  0.00    0.0035833   -0.0038484   -0.0014261
c     3.2184003    3.3796475    0.5788045  0.00   -0.0219080   -0.0280250   -0.0141992
n     5.4732448    2.3869477    0.2958421  0.00    0.0178931    0.0168479   -0.0071576
h     3.9450654    1.6215185    1.5914377  0.00    0.0027453   -0.0011923    0.0035605
h     6.0434084    2.2062837    1.1565239  0.00    0.0021819   -0.0024807    0.0010024
h     5.8827988    1.7951240   -0.4619719  0.00   -0.0024708    0.0001441    0.0015681
h    -2.2498067    3.3917183   -0.1914911  0.00   -0.0023315    0.0007774    0.0001957
h    -2.2363852    0.9147428   -0.2107400  0.00   -0.0025701   -0.0011562   -0.0000514
h    -0.1193233    4.6399136   -0.1638845  0.00   -0.0001604    0.0016236    0.0005551
h     2.0636798    3.3013806   -0.1163341  0.00   -0.0877473    0.0356814    0.2965722
h     2.1283759   -1.5351488   -0.5085516  0.00   -0.0032111   -0.0059902   -0.0009184
o     2.9533024    3.8925111   -0.3944711  0.00   -0.0047776   -0.0070590   -0.0416474
o     2.4697317    3.6569192    1.7489919  0.00   -0.0393287   -0.0333844   -0.0373031
h     1.5045646    3.4037992    1.4802022  0.00   -0.4909426   -0.7069525   -2.3562769
    27
 Energy =       1.1276426550
c    -1.2663671    2.9523407   -0.2159363  0.00   -0.0097728    0.0068621    0.0006475
c    -1.3132455    1.5786756   -0.2150588  0.00   -0.0150982   -0.0068550    0.0004077
c    -0.1380175    0.8967452   -0.1966405  0.00   -0.0133726   -0.0247335    0.0006956
c    -0.0564279    3.6109149   -0.1926744  0.00    0.0156410    0.0132456    0.0148862
c     1.1207093    2.8902505   -0.1282836  0.00    0.5361943    0.6541998    1.8582771
c     1.0416739    1.5299962   -0.1766106  0.00    0.0143026    0.0188172    0.0052576
n     0.0613122   -0.5052347   -0.2845144  0.00    0.0167604    0.0120402   -0.0003973
c     2.0443231    0.6244495   -0.2600349  0.00    0.0219588   -0.0115368   -0.0023453
c     1.4893725   -0.6067754   -0.3334617  0.00   -0.0100306   -0.0145459    0.0003864
h    -0.6541334   -1.2656519   -0.3093383  0.00    0.0018484    0.0020588   -0.0004701
c     3.5107280    0.9574943   -0.4475915  0.00   -0.0026299    0.0070567    0.0042544
c     4.0457941    1.9812967    0.5889665  0.00   -0.0072864   -0.0153133    0.0112141
h     3.6459822    1.3807808   -1.4735166  0.00    0.0005729    0.0019535   -0.0037181
h     4.1182232    0.0224625   -0.3880350  0.00    0.0035522   -0.0039573   -0.0011718
c     3.2678137    3.3372969    0.5892566  0.00   -0.0178144   -0.0239005   -0.0125637
n     5.4879360    2.2597056    0.3427721  0.00    0.0168067    0.0155508   -0.0071036
h     3.9125005    1.5573528    1.6169002  0.00    0.0022243   -0.0014628    0.0035163
h     6.0414120    2.0475306    1.2076991  0.00    0.0027107   -0.0023445    0.0016078
h     5.8836796    1.6636949   -0.4195376  0.00   -0.0019524   -0.0000133    0.0012706
h    -2.1940440    3.5233989   -0.2470396  0.00   -0.0026702    0.0010560    0.0001528
h    -2.2609204    1.0469352   -0.2525965  0.00   -0.0028124   -0.0013283   -0.0000636
h    -0.0234215    4.7017053   -0.2037293  0.00   -0.0001451    0.0021182    0.0004729
h     2.1179514    3.2895133   -0.1240465  0.00   -0.0773145    0.0301256    0.2580137
h     2.0274591   -1.5434027   -0.4858423  0.00   -0.0024386   -0.0057099   -0.0008782
o     3.0301537    3.8523578   -0.3880925  0.00   -0.0033949   -0.0050938   -0.0364811
o     2.5193809    3.6534849    1.7509432  0.00   -0.0341397   -0.0286631   -0.0318531
h     1.5455180    3.4302346    1.4799826  0.00   -0.4316994   -0.6196264   -2.0640146
    27
 Energy =       0.9734645934
c    -1.2468734    2.9309623   -0.3082453  0.00   -0.0034731    0.0027852    0.0003554
c    -1.2976393    1.5625941   -0.2864158  0.00   -0.0055253   -0.0020845    0.0001936
c    -0.1294594    0.8798710   -0.2383374  0.00   -0.0050464   -0.0077971    0.0001610
c    -0.0382875    3.5805362   -0.2779867  0.00    0.0084922    0.0043172    0.0077798
c     1.1293090    2.8597033   -0.1949134  0.00    0.2850127    0.3455720    0.9999604
c     1.0442864    1.5082279   -0.2113931  0.00    0.0047251    0.0074978    0.0025303
n     0.0662249   -0.5271118   -0.2829574  0.00    0.0056754    0.0037430   -0.0001804
c     2.0434957    0.6166319   -0.2458262  0.00    0.0077884   -0.0041181   -0.0011017
c     1.5000546   -0.6159294   -0.2998329  0.00   -0.0034609   -0.0050530    0.0000238
h    -0.6481054   -1.2902495   -0.3022416  0.00    0.0004636    0.0008416   -0.0002021
c     3.5123637    0.9577949   -0.3916402  0.00   -0.0008876    0.0021440    0.0012910
c     4.0049416    2.0244123    0.6304085  0.00   -0.0065117   -0.0060838    0.0043126
h     3.6839207    1.3422265   -1.4258638  0.00    0.0000952    0.0009210   -0.0026913
h     4.1193588    0.0297980   -0.2720837  0.00    0.0023048   -0.0028447   -0.0003850
c     3.2630728    3.4044363    0.5534530  0.00   -0.0083912   -0.0087027   -0.0071115