    13
 Energy =       0.0984880658
c    -3.7133889    1.6950595    0.3173519  0.00   -0.0861051    0.0328932    0.0975684
c    -2.4962693    2.6345192    0.2419999  0.00    0.2084921    0.1337842   -0.3223771
c    -4.9565486    2.3924193   -0.2155699  0.00    0.0087035    0.0101521    0.0032610
h    -5.2099685    3.2528291    0.4143399  0.00    0.0023701   -0.0120175   -0.0103065
h    -5.8205883    1.7190695   -0.2147749  0.00    0.0080593    0.0158506    0.0007815
h    -4.8083986    2.7651692   -1.2348596  0.00   -0.0074058    0.0008170    0.0188944
n    -3.4097890    0.4519539   -0.4549189  0.00    0.0807864   -0.0538501   -0.0127016
h    -3.8575589    1.4177196    1.3669296  0.00    0.0096721   -0.0064236   -0.0273975
h    -2.5963493    0.6418898   -1.0496997  0.00   -0.0238515    0.0172857    0.0444381
h    -3.0749291   -0.2623099    0.1989099  0.00   -0.0107909    0.0302255   -0.0226986
o    -1.9513094    3.0041591   -0.7839488  0.00   -0.1301194   -0.1031864    0.2454089
o    -2.1005994    3.0267291    1.4825496  0.00   -0.0444259   -0.0274507   -0.0059473
h    -2.2705794    4.0015489    1.5135996  0.00   -0.0153849   -0.0380800   -0.0089236
    13
 Energy =       0.0680690245
c    -3.7044535    1.7044138    0.3284246  0.00   -0.0326459    0.0138236    0.0379129
c    -2.4672656    2.6009798    0.3155274  0.00    0.0793560    0.0566947   -0.1257736
c    -4.9114205    2.4296085   -0.2656074  0.00    0.0033317    0.0049664    0.0034613
h    -5.2063642    3.2863776    0.3680083  0.00    0.0003623   -0.0044036   -0.0032645
h    -5.7756166    1.7408092   -0.3491769  0.00    0.0007092    0.0041449   -0.0008253
h    -4.6748232    2.8047387   -1.2827891  0.00   -0.0015168    0.0012339    0.0042842
n    -3.4718067    0.4615269   -0.4429109  0.00    0.0268624   -0.0125638   -0.0096030
h    -3.9036871    1.4524134    1.3901943  0.00    0.0044990   -0.0024188   -0.0093602
h    -2.6399567    0.5803265   -1.0605229  0.00   -0.0053125    0.0083858    0.0165386
h    -3.2336822   -0.3170221    0.2113566  0.00   -0.0032111    0.0030480   -0.0031857
o    -1.8891311    2.9795110   -0.8108287  0.00   -0.0527351   -0.0425544    0.0956698
o    -1.9987228    3.0346372    1.5330453  0.00    0.0096988   -0.0578620   -0.0015379
h    -2.3893465    3.9824358    1.6471880  0.00   -0.0293981    0.0275054   -0.0043167
    13
 Energy =       0.0671407890
c    -3.7332862    1.7258046    0.3337218  0.00   -0.0305089    0.0134691    0.0359962
c    -2.4706596    2.5866479    0.3316123  0.00    0.0750970    0.0531469   -0.1220881
c    -4.8951009    2.4568335   -0.3447242  0.00    0.0021718    0.0027875    0.0043121
h    -5.1637422    3.3818971    0.2092552  0.00   -0.0014739    0.0005695   -0.0006985
h    -5.7889012    1.8002375   -0.3890052  0.00   -0.0003986    0.0025232   -0.0002023
h    -4.6178681    2.7356472   -1.3879485  0.00    0.0001316    0.0027082   -0.0010365
n    -3.5027263    0.4439001   -0.3738149  0.00    0.0254704   -0.0128232   -0.0113107
h    -3.9872330    1.5280629    1.3980761  0.00    0.0032571   -0.0030031   -0.0061761
h    -2.6576144    0.5231671   -0.9818692  0.00   -0.0038362    0.0079728    0.0147372
h    -3.2830943   -0.3039206    0.3240930  0.00   -0.0025092    0.0009227   -0.0013740
o    -1.8920986    2.9766371   -0.7943568  0.00   -0.0502343   -0.0405877    0.0908345
o    -1.9625069    2.9632338    1.5553172  0.00    0.0116174   -0.0560439    0.0007632
h    -2.3114452    3.9226083    1.7015517  0.00   -0.0287842    0.0283580   -0.0037571
    13
 Energy =       0.0663320196
c    -3.7452412    1.7341161    0.3271860  0.00   -0.0277337    0.0130687    0.0331326
c    -2.4462804    2.5419569    0.3281225  0.00    0.0679341    0.0482174   -0.1118446
c    -4.8827001    2.5224055   -0.3311708  0.00    0.0018357    0.0029539    0.0029931
h    -5.1028710    3.4552410    0.2331329  0.00   -0.0016373    0.0015783   -0.0001137
h    -5.8062401    1.9056269   -0.3698988  0.00   -0.0014231    0.0016770   -0.0002925
h    -4.6053750    2.7956856   -1.3757034  0.00    0.0001320    0.0024630   -0.0009824
n    -3.5790041    0.4522230   -0.3996553  0.00    0.0190600   -0.0097396   -0.0130566
h    -3.9978893    1.5355550    1.3923042  0.00    0.0028341   -0.0026052   -0.0054441
h    -2.7066372    0.4808773   -0.9774316  0.00   -0.0005080    0.0076704    0.0116113
h    -3.4418474   -0.3287752    0.2888782  0.00   -0.0012396   -0.0044239    0.0024710
o    -1.8632024    2.9308794   -0.8029347  0.00   -0.0452844   -0.0367092    0.0823023
o    -1.8983175    2.8704849    1.5513477  0.00    0.0130842   -0.0526848    0.0020744
h    -2.1906711    3.8444798    1.7177315  0.00   -0.0270540    0.0285339   -0.0028508
    13
 Energy =       0.0626170229
c    -3.7551979    1.7307103    0.3274076  0.00   -0.0187903    0.0087843    0.0230052
c    -2.4628373    2.5443210    0.3512868  0.00    0.0438231    0.0361325   -0.0760272
c    -4.8813919    2.5159652   -0.3511593  0.00    0.0012968    0.0021227    0.0022265
h    -5.0929895    3.4620665    0.1943892  0.00   -0.0010294    0.0015531    0.0001803
h    -5.8101655    1.9069558   -0.3809368  0.00   -0.0010814    0.0014209   -0.0001054
h    -4.5953459    2.7634289   -1.3996161  0.00    0.0002366    0.0020338   -0.0009571
n    -3.5907919    0.4453908   -0.3908546  0.00   -0.0003199    0.0042603   -0.0139022
h    -4.0251423    1.5453998    1.3926387  0.00    0.0018687   -0.0016202   -0.0035009
h    -2.6493309    0.4101222   -0.8697899  0.00    0.0128793    0.0052039    0.0012723
h    -3.5932376   -0.3517890    0.3056467  0.00   -0.0014432   -0.0145653    0.0125735
o    -1.8164521    2.8775618   -0.7870787  0.00   -0.0293329   -0.0262088    0.0537324
o    -1.9488729    2.9214870    1.5780834  0.00    0.0181308   -0.0877524    0.0030721
h    -2.0445210    3.9691361    1.6118915  0.00   -0.0262382    0.0686352   -0.0015695
    13
 Energy =       0.0590930046
c    -3.7602872    1.7391291    0.3567318  0.00   -0.0106179    0.0074778    0.0152673
c    -2.4732294    2.5613136    0.3330304  0.00    0.0205796    0.0239919   -0.0441398
c    -4.8907776    2.4758150   -0.3681328  0.00    0.0006575    0.0006970    0.0016949
h    -5.1007922    3.4574397    0.1155645  0.00   -0.0008870    0.0031879    0.0011827
h    -5.8173382    1.8609264   -0.3499960  0.00   -0.0013912   -0.0000607   -0.0000246
h    -4.6117268    2.6507446   -1.4348886  0.00    0.0004905    0.0018750   -0.0032222
n    -3.6022614    0.4117640   -0.2825885  0.00   -0.0071018    0.0038997   -0.0150042
h    -4.0318660    1.6206184    1.4342202  0.00    0.0008647   -0.0011357    0.0000264
h    -2.7067546    0.3808175   -0.8460472  0.00    0.0146766    0.0050813   -0.0026786
h    -3.5142827   -0.3359841    0.4643999  0.00   -0.0012514   -0.0167009    0.0155708
o    -1.7873342    2.7633990   -0.8385976  0.00   -0.0134182   -0.0184719    0.0220460
o    -1.9734827    3.0567837    1.5297194  0.00    0.0163479   -0.0647891    0.0090065
h    -1.9961437    4.0979896    1.4684931  0.00   -0.0189494    0.0549479    0.0002749
    13
 Energy =       0.0601113803
c    -3.7594023    1.7545701    0.3765164  0.00   -0.0125230    0.0096619    0.0162075
c    -2.4322535    2.5136038    0.2652600  0.00    0.0173080    0.0224424   -0.0378009
c    -4.8908640    2.5258432   -0.3112071  0.00    0.0010402   -0.0000251    0.0016303
h    -5.0368958    3.5256869    0.1626223  0.00   -0.0011271    0.0047892    0.0022487
h    -5.8430442    1.9511487   -0.2385290  0.00   -0.0035725   -0.0011567    0.0000235
h    -4.6530840    2.6666894   -1.3940678  0.00    0.0009736    0.0016221   -0.0044571
n    -3.6992660    0.4023473   -0.2346813  0.00   -0.0106404   -0.0016015   -0.0146275
h    -3.9819665    1.6786725    1.4710161  0.00   -0.0000633   -0.0004405    0.0021836
h    -2.8348922    0.3124238   -0.8425263  0.00    0.0176265    0.0036946   -0.0057047
h    -3.6087072   -0.3302181    0.5257310  0.00   -0.0012047   -0.0157559    0.0147353
o    -1.7689225    2.6046458   -0.9409255  0.00   -0.0076281   -0.0161288    0.0128376
o    -1.8657187    3.0493065    1.4167348  0.00    0.0172273   -0.0586856    0.0125681
h    -1.8912599    4.0860365    1.3259648  0.00   -0.0174164    0.0515839    0.0001557
    13
 Energy =       0.0589540386
c    -3.7861832    1.7497278    0.3628981  0.00   -0.0123962    0.0070699    0.0149423
c    -2.4389860    2.4863903    0.3588974  0.00    0.0156256    0.0212197   -0.0349333
c    -4.8575643    2.5527694   -0.3877833  0.00   -0.0001899    0.0012741    0.0015223
h    -5.0116884    3.5503057    0.0877862  0.00   -0.0010965    0.0045520    0.0022174
h    -5.8261225    1.9974171   -0.3785367  0.00   -0.0054401   -0.0019985    0.0000242
h    -4.5511125    2.7001569   -1.4543240  0.00    0.0013962    0.0019638   -0.0065691
n    -3.7081197    0.4082826   -0.2670652  0.00   -0.0123226   -0.0004239   -0.0144389
h    -4.0871475    1.6567494    1.4400998  0.00   -0.0009914   -0.0008238    0.0051834
h    -2.8626867    0.3531321   -0.9058711  0.00    0.0179255    0.0028390   -0.0068986
h    -3.5681482   -0.3285572    0.4823437  0.00   -0.0007766   -0.0163671    0.0151875
o    -1.6936737    2.6007068   -0.8009575  0.00   -0.0036248   -0.0143123    0.0072501
o    -1.9407224    2.9884475    1.5597033  0.00    0.0184544   -0.0544112    0.0169053
h    -1.9341218    4.0252280    1.4847179  0.00   -0.0165636    0.0494182   -0.0003927
    13
 Energy =       0.0607048372
c    -3.8033612    1.7598873    0.3582935  0.00   -0.0133506    0.0061129    0.0169156
c    -2.4148628    2.4216768    0.3905885  0.00    0.0124596    0.0213982   -0.0287445
c    -4.8134882    2.6210468   -0.4173653  0.00   -0.0006203    0.0030490    0.0007249
h    -4.9304856    3.6239589    0.0586273  0.00   -0.0012671    0.0052264    0.0022162
h    -5.8099117    2.1137024   -0.4342336  0.00   -0.0070073   -0.0027379    0.0000721
h    -4.4736577    2.7568381   -1.4757058  0.00    0.0015911    0.0022394   -0.0070656
n    -3.7817251    0.4150913   -0.2705462  0.00   -0.0130705   -0.0023583   -0.0138407
h    -4.1365261    1.6798348    1.4274519  0.00   -0.0013811   -0.0013552    0.0056014
h    -2.9588954    0.3392008   -0.9368658  0.00    0.0185300    0.0021931   -0.0078301
h    -3.6312306   -0.3219186    0.4764997  0.00   -0.0006992   -0.0160409    0.0150972
o    -1.6021855    2.4419537   -0.7359357  0.00    0.0027994   -0.0128933    0.0004351
o    -1.9365514    2.9257210    1.5988469  0.00    0.0179797   -0.0552538    0.0170274
h    -1.9733956    3.9637629    1.5422532  0.00   -0.0159636    0.0504203   -0.0006091
    13
 Energy =       0.0552930913
c    -3.8352960    1.7409729    0.3487681  0.00   -0.0097041    0.0039338    0.0107659
c    -2.4563380    2.4006627    0.4805543  0.00    0.0021436    0.0150473   -0.0086393
c    -4.7968093    2.6318099   -0.4538978  0.00   -0.0002786    0.0029646    0.0002684
h    -4.9122353    3.6284810    0.0330117  0.00   -0.0003029    0.0041688    0.0015607
h    -5.8001214    2.1453509   -0.5205377  0.00   -0.0060488   -0.0018911   -0.0001468
h    -4.4097333    2.7811746   -1.4933161  0.00    0.0017990    0.0021348   -0.0063106
n    -3.7820063    0.4213483   -0.3215166  0.00   -0.0138800   -0.0004824   -0.0107033
h    -4.2290829    1.6278541    1.3949136  0.00   -0.0019700   -0.0009228    0.0063554
h    -2.9847366    0.4031454   -1.0206021  0.00    0.0156213    0.0011794   -0.0085266
h    -3.5730234   -0.3269388    0.3971746  0.00   -0.0004315   -0.0138159    0.0128679
o    -1.6463893    2.6007068   -0.6433990  0.00    0.0114696   -0.0072466   -0.0163531
o    -2.0211373    2.8260780    1.7359993  0.00    0.0067737   -0.0853890    0.0281180
h    -1.8193676    3.8601106    1.6447563  0.00   -0.0051913    0.0803190   -0.0092565
    13
 Energy =       0.0512598425
c    -3.8281395    1.7295217    0.3502802  0.00   -0.0085435    0.0036832    0.0102671
c    -2.4927822    2.4710998    0.4879080  0.00    0.0006093    0.0111680   -0.0032642
c    -4.8349609    2.5559997   -0.4662209  0.00   -0.0003131    0.0031146   -0.0009437
h    -5.0057526    3.5516206    0.0075987  0.00   -0.0004943    0.0046183    0.0016676
h    -5.8103187    2.0151549   -0.5307612  0.00   -0.0061939   -0.0021417   -0.0002894
h    -4.4518091    2.7132810   -1.5042653  0.00    0.0014258    0.0016592   -0.0048050
n    -3.6939617    0.4088359   -0.3060283  0.00   -0.0124496   -0.0019987   -0.0097760
h    -4.2235963    1.6036459    1.3927952  0.00   -0.0017576   -0.0006302    0.0048783
h    -2.9066449    0.4344120   -1.0137166  0.00    0.0132209    0.0007562   -0.0074161
h    -3.4288685   -0.3165690    0.4160529  0.00    0.0003530   -0.0129385    0.0111871
o    -1.7116329    2.7594600   -0.6376870  0.00    0.0124786   -0.0035418   -0.0156410
o    -2.0774578    2.9042624    1.7452045  0.00    0.0050937   -0.0690685    0.0221843
h    -1.8003518    3.9100317    1.6407484  0.00   -0.0034292    0.0653199   -0.0080490
    13
 Energy =       0.0470361882
c    -3.8245357    1.7209887    0.3513191  0.00   -0.0067066    0.0034145    0.0087303
c    -2.5367185    2.5373045    0.5001963  0.00    0.0004033    0.0077332   -0.0000366
c    -4.8672481    2.4818448   -0.4829005  0.00   -0.0002561    0.0027200   -0.0017527
h    -5.0949034    3.4724512   -0.0223711  0.00   -0.0006715    0.0046325    0.0016691
h    -5.8113285    1.8891149   -0.5494081  0.00   -0.0057384   -0.0021783   -0.0003844
h    -4.4836387    2.6473904   -1.5177625  0.00    0.0010343    0.0011161   -0.0032768
n    -3.6089940    0.4044946   -0.2892753  0.00   -0.0118221   -0.0018944   -0.0089907
h    -4.2256100    1.5822559    1.3884621  0.00   -0.0014824   -0.0002537    0.0034112
h    -2.8463269    0.4784241   -1.0181803  0.00    0.0110954    0.0007881   -0.0065976
h    -3.2701154   -0.2880431    0.4338346  0.00    0.0017352   -0.0127647    0.0104506
o    -1.7832013    2.8997247   -0.6214307  0.00    0.0110714   -0.0007059   -0.0127978
o    -2.1433855    2.9750188    1.7610184  0.00    0.0018439   -0.0543190    0.0167429
h    -1.7702707    3.9397871    1.6484065  0.00   -0.0005065    0.0517115   -0.0071675
    13
 Energy =       0.0432306822
c    -3.8245988    1.7162258    0.3517808  0.00   -0.0045471    0.0030767    0.0064517
c    -2.5840316    2.5958563    0.5151938  0.00    0.0009783    0.0051725    0.0011002
c    -4.8925767    2.4148614   -0.5026184  0.00   -0.0000563    0.0019339   -0.0019987
h    -5.1765552    3.3958752   -0.0537863  0.00   -0.0007877    0.0041870    0.0015473
h    -5.8033706    1.7744347   -0.5762282  0.00   -0.0048072   -0.0020017   -0.0004079
h    -4.5039586    2.5911711   -1.5323578  0.00    0.0007206    0.0006074   -0.0019987
n    -3.5322708    0.4085579   -0.2721683  0.00   -0.0116666   -0.0007626   -0.0080714
h    -4.2339392    1.5646918    1.3824954  0.00   -0.0011756    0.0000640    0.0021627
h    -2.8069857    0.5281707   -1.0308888  0.00    0.0091297    0.0011953   -0.0060482
h    -3.1113622   -0.2399653    0.4487183  0.00    0.0034441   -0.0124369    0.0102313
o    -1.8527642    3.0142199   -0.5989882  0.00    0.0080076    0.0006725   -0.0088319
o    -2.2114390    3.0333735    1.7809416  0.00   -0.0025801   -0.0418465    0.0121329
h    -1.7324241    3.9432835    1.6698148  0.00    0.0033404    0.0401386   -0.0062694
    13
 Energy =       0.0401577628
c    -3.8273995    1.7143377    0.3512803  0.00   -0.0024891    0.0026793    0.0038275
c    -2.6344275    2.6494562    0.5331897  0.00    0.0015933    0.0031725    0.0010455
c    -4.9121636    2.3532549   -0.5257714  0.00    0.0003023    0.0009614   -0.0017418
h    -5.2553856    3.3185023   -0.0857670  0.00   -0.0008648    0.0034542    0.0013551
h    -5.7857165    1.6662459   -0.6139105  0.00   -0.0036641   -0.0017384   -0.0003754
h    -4.5138076    2.5467974   -1.5475906  0.00    0.0005425    0.0001824   -0.0010677
n    -3.4596732    0.4201942   -0.2555755  0.00   -0.0111348    0.0004111   -0.0067692
h    -4.2474621    1.5482850    1.3742739  0.00   -0.0008688    0.0002633    0.0011676
h    -2.7827761    0.5808399   -1.0489657  0.00    0.0069122    0.0016994   -0.0054126
h    -2.9526091   -0.1712906    0.4584023  0.00    0.0050512   -0.0111095    0.0097051
o    -1.9180281    3.1111268   -0.5703499  0.00    0.0043927    0.0009472   -0.0047906
o    -2.2826249    3.0822869    1.8054872  0.00   -0.0070654   -0.0300012    0.0079770
h    -1.6942030    3.9207197    1.7072057  0.00    0.0072927    0.0290785   -0.0049205
    13
 Energy =       0.0381619969
c    -3.8314348    1.7131463    0.3491435  0.00   -0.0009394    0.0020647    0.0010427
c    -2.6866417    2.6972034    0.5564318  0.00    0.0017568    0.0015435    0.0002085
c    -4.9247246    2.2974511   -0.5521019  0.00    0.0008008   -0.0000305   -0.0008672
h    -5.3321702    3.2376040   -0.1147966  0.00   -0.0008582    0.0024544    0.0010957
h    -5.7551354    1.5640621   -0.6665301  0.00   -0.0024153   -0.0014487   -0.0002823
h    -4.5118229    2.5208765   -1.5615092  0.00    0.0005632   -0.0000574   -0.0006588
n    -3.3886095    0.4385431   -0.2429123  0.00   -0.0090952    0.0010534   -0.0046783
h    -4.2648442    1.5276611    1.3623860  0.00   -0.0005889    0.0002786    0.0004996
h    -2.7707855    0.6343974   -1.0736042  0.00    0.0041595    0.0018856   -0.0042018
h    -2.7938560   -0.0819042    0.4562516  0.00    0.0056191   -0.0079086    0.0078256
o    -1.9693130    3.1874020   -0.5309959  0.00    0.0010143    0.0004371   -0.0013098
o    -2.3646752    3.1273221    1.8369433  0.00   -0.0089035   -0.0168349    0.0043562
h    -1.6722638    3.8769914    1.7632025  0.00    0.0088867    0.0165627   -0.0030300
    13
 Energy =       0.0374905489
c    -3.8309839    1.7060455    0.3455815  0.00   -0.0000259    0.0004294   -0.0011300
c    -2.7248635    2.7230718    0.5838757  0.00   -0.0002052   -0.0008343   -0.0018499
c    -4.9229162    2.2584559   -0.5745323  0.00    0.0007181   -0.0004616    0.0004382
h    -5.3865043    3.1659751   -0.1287287  0.00   -0.0003189    0.0007257    0.0004495
h    -5.7123149    1.4900217   -0.7271666  0.00   -0.0006830   -0.0006622   -0.0000476
h    -4.4945390    2.5250700   -1.5668739  0.00    0.0004848    0.0000702   -0.0006882
n    -3.3301117    0.4535686   -0.2416335  0.00   -0.0027021    0.0008063   -0.0009526
h    -4.2775922    1.4965352    1.3479487  0.00   -0.0002332   -0.0000096    0.0001868
h    -2.7716747    0.6716708   -1.1048237  0.00    0.0008205    0.0007391   -0.0012421
h    -2.6633544    0.0024764    0.4326679  0.00    0.0019223   -0.0016743    0.0022646
o    -1.9519525    3.1852436   -0.4778278  0.00    0.0004106    0.0001270   -0.0024804
o    -2.4822463    3.1991784    1.8679792  0.00   -0.0026147   -0.0010657    0.0068726
h    -1.7172232    3.8634432    1.8254420  0.00    0.0024267    0.0018102   -0.0018209
    13
 Energy =       0.0374528863
c    -3.8264331    1.6998956    0.3442185  0.00    0.0000490    0.0002772    0.0006241
c    -2.7098787    2.7050480    0.5838308  0.00   -0.0000401    0.0000948    0.0003252
c    -4.9292975    2.2783890   -0.5477415  0.00   -0.0003467   -0.0000422   -0.0002399
h    -5.3821289    3.1770930   -0.0750914  0.00   -0.0001626    0.0002938    0.0001168
h    -5.7238241    1.5178148   -0.7063236  0.00    0.0000349    0.0000110   -0.0000355
h    -4.5151410    2.5657842   -1.5396530  0.00    0.0000036    0.0000499   -0.0002419
n    -3.3441585    0.4545768   -0.2741392  0.00   -0.0002305   -0.0004376   -0.0003800
h    -4.2578597    1.4745306    1.3497365  0.00   -0.0000312    0.0000189    0.0002380
h    -2.8079921    0.6821410   -1.1480520  0.00    0.0002776   -0.0000884   -0.0003707
h    -2.6611856   -0.0056910    0.3745342  0.00    0.0002823   -0.0001769    0.0003371
o    -1.9189317    3.1484520   -0.4710432  0.00    0.0001595    0.0001510   -0.0001341
o    -2.4799243    3.1935976    1.8623510  0.00    0.0001730   -0.0001037   -0.0003428
h    -1.7095218    3.8491248    1.8292814  0.00   -0.0001690   -0.0000479    0.0001038
    13
 Energy =       0.0374503657
c    -3.8241799    1.6974958    0.3449053  0.00    0.0000118    0.0000560    0.0001089
c    -2.7110274    2.7063854    0.5843603  0.00   -0.0001569   -0.0002003   -0.0002228
c    -4.9272447    2.2716184   -0.5488460  0.00   -0.0000702   -0.0000040   -0.0000532
h    -5.3829726    3.1693709   -0.0777320  0.00   -0.0000341    0.0000630    0.0000260
h    -5.7196094    1.5087229   -0.7073365  0.00    0.0000034   -0.0000008   -0.0000083
h    -4.5125831    2.5590377   -1.5403387  0.00    0.0000020    0.0000100   -0.0000480
n    -3.3379572    0.4528861   -0.2710210  0.00   -0.0000515   -0.0000939   -0.0000888
h    -4.2561730    1.4722412    1.3500169  0.00   -0.0000095    0.0000002    0.0000471
h    -2.8033372    0.6808869   -1.1455419  0.00    0.0000573   -0.0000131   -0.0000750
h    -2.6528021   -0.0035993    0.3776625  0.00    0.0000650   -0.0000440    0.0000761
o    -1.9043555    3.1317665   -0.4661646  0.00    0.0001719    0.0000554   -0.0004161
o    -2.5026387    3.2196384    1.8574565  0.00    0.0000376    0.0001779    0.0006347
h    -1.7313961    3.8743055    1.8244878  0.00   -0.0000268   -0.0000065    0.0000195
    13
 Energy =       0.0374500893
c    -3.8236091    1.6966544    0.3445525  0.00   -0.0000002    0.0000031    0.0000014
c    -2.7107220    2.7055689    0.5850211  0.00   -0.0000013   -0.0000001   -0.0000012
c    -4.9275913    2.2720171   -0.5470684  0.00   -0.0000009   -0.0000008   -0.0000004
h    -5.3832548    3.1685799   -0.0737837  0.00   -0.0000012    0.0000024    0.0000009
h    -5.7197994    1.5091210   -0.7063584  0.00   -0.0000001   -0.0000005   -0.0000001
h    -4.5138714    2.5615908   -1.5382804  0.00    0.0000008    0.0000007   -0.0000026
n    -3.3374526    0.4535013   -0.2741510  0.00   -0.0000026   -0.0000039   -0.0000007
h    -4.2546564    1.4692541    1.3495416  0.00   -0.0000010   -0.0000004    0.0000025
h    -2.8041818    0.6834471   -1.1489293  0.00    0.0000025    0.0000005   -0.0000039
h    -2.6511221   -0.0036659    0.3727060  0.00    0.0000026   -0.0000022    0.0000026
o    -1.9024819    3.1302332   -0.4642758  0.00    0.0000005    0.0000008   -0.0000027
o    -2.5044836    3.2199737    1.8576066  0.00    0.0000005    0.0000001    0.0000043
h    -1.7330504    3.8744806    1.8253279  0.00    0.0000003    0.0000002   -0.0000001
    13
 Energy =       0.0374500887
c    -3.8235769    1.6966109    0.3445509  0.00   -0.0000000    0.0000000    0.0000000
c    -2.7106678    2.7054969    0.5850370  0.00   -0.0000000   -0.0000000   -0.0000000
c    -4.9275774    2.2720425   -0.5469978  0.00   -0.0000000    0.0000000   -0.0000000
h    -5.3832065    3.1685837   -0.0736446  0.00   -0.0000000    0.0000000    0.0000000
h    -5.7198064    1.5091716   -0.7063024  0.00   -0.0000000   -0.0000000   -0.0000000
h    -4.5138873    2.5616645   -1.5382049  0.00    0.0000000    0.0000000   -0.0000000
n    -3.3374688    0.4534827   -0.2742345  0.00   -0.0000000   -0.0000000   -0.0000000
h    -4.2545927    1.4691655    1.3495404  0.00   -0.0000000   -0.0000000    0.0000000
h    -2.8042462    0.6834616   -1.1490303  0.00    0.0000000    0.0000000   -0.0000000
h    -2.6511035   -0.0037167    0.3725586  0.00    0.0000000   -0.0000000    0.0000000
o    -1.9021541    3.1298556   -0.4641709  0.00    0.0000000    0.0000000   -0.0000001
o    -2.5047332    3.2202408    1.8575322  0.00   -0.0000000    0.0000000    0.0000001
h    -1.7332561    3.8746967    1.8252750  0.00    0.0000000    0.0000000   -0.0000000
