    13
 Energy =       0.1366063038
c    -3.7133889    1.6950595    0.3173519  0.00   -0.1141353    0.1302586    0.0901994
c    -2.4962693    2.6345192    0.2419999  0.00    0.3426862   -0.0591137   -0.1566415
c    -4.9565486    2.3924193   -0.2155699  0.00    0.0399892    0.0440625    0.0392668
h    -5.3251685    1.8809395   -1.1121297  0.00    0.0133847    0.0028421    0.0131950
h    -4.7411586    3.4296290   -0.4944269  0.00    0.0293612   -0.0146294    0.0379968
h    -5.7692484    2.3924493    0.5188399  0.00    0.0113531    0.0026988   -0.0135265
n    -3.4097890    0.4519539   -0.4549189  0.00    0.0801687   -0.0362465   -0.0406605
h    -3.8575589    1.4177196    1.3669296  0.00   -0.0011458    0.0023356   -0.0242163
h    -3.4845290    0.6754588   -1.4528996  0.00   -0.0039787    0.0017776    0.0406726
h    -2.4188593    0.2248379   -0.3273229  0.00   -0.0351015    0.0351819   -0.0064579
o    -1.4178396    2.3555893   -0.2533479  0.00   -0.2669567    0.0544823    0.1173141
o    -2.7764392    3.8468189    0.7908148  0.00   -0.0836486   -0.0509933   -0.0057304
h    -3.6817390    3.7529189    1.1803597  0.00   -0.0119765   -0.1126565   -0.0914115
    13
 Energy =       0.1106392802
c    -3.7105468    1.7020849    0.3232145  0.00   -0.0761637    0.0947165    0.0649879
c    -2.4960901    2.6362493    0.2902516  0.00    0.2335972   -0.0423854   -0.1095543
c    -4.9376333    2.4037313   -0.2709049  0.00    0.0290648    0.0329494    0.0281267
h    -5.2768987    1.9135688   -1.1964651  0.00    0.0083701    0.0015148    0.0082179
h    -4.7156749    3.4506920   -0.5328373  0.00    0.0217576   -0.0095880    0.0268965
h    -5.7875307    2.3890652    0.4301016  0.00    0.0065754    0.0017885   -0.0086906
n    -3.4136412    0.4222428   -0.3879490  0.00    0.0501416   -0.0302508   -0.0003363
h    -3.8963324    1.4660408    1.3846822  0.00   -0.0009669    0.0014803   -0.0149608
h    -3.6360829    0.5167057   -1.4092244  0.00   -0.0093450    0.0049775   -0.0019887
h    -2.3901878    0.2406774   -0.3666296  0.00   -0.0119786    0.0240126   -0.0034504
o    -1.3722956    2.3399097   -0.2285342  0.00   -0.1834361    0.0367194    0.0803706
o    -2.7318883    3.8484914    0.8786642  0.00   -0.0473194   -0.0327808   -0.0054130
h    -3.6837335    3.8208540    1.1913104  0.00   -0.0202971   -0.0831539   -0.0642055
    13
 Energy =       0.1117016921
c    -3.7074184    1.7062427    0.3398429  0.00   -0.0708386    0.0925270    0.0623568
c    -2.4838330    2.6325069    0.3138534  0.00    0.2236495   -0.0405980   -0.1053983
c    -4.9133580    2.4151959   -0.2995935  0.00    0.0271921    0.0322905    0.0267742
h    -5.2416520    1.9282830   -1.2300856  0.00    0.0070066    0.0018948    0.0080165
h    -4.6694391    3.4552727   -0.5736497  0.00    0.0207131   -0.0088665    0.0254584
h    -5.7812923    2.4257198    0.3809875  0.00    0.0057108    0.0017285   -0.0079350
n    -3.4126180    0.3925541   -0.3193513  0.00    0.0366601   -0.0319662    0.0288376
h    -3.9211493    1.5077975    1.4052226  0.00   -0.0009712    0.0012252   -0.0132402
h    -3.7948360    0.3677886   -1.3156971  0.00   -0.0194781    0.0047954   -0.0320635
h    -2.3728907    0.2817983   -0.4454779  0.00    0.0106268    0.0226745   -0.0030259
o    -1.3578251    2.3343442   -0.2118927  0.00   -0.1755684    0.0349056    0.0766628
o    -2.7153441    3.8537995    0.8878094  0.00   -0.0442991   -0.0312508   -0.0054222
h    -3.6768803    3.8490100    1.1737121  0.00   -0.0204035   -0.0793598   -0.0610213
    13
 Energy =       0.1005594364
c    -3.7332399    1.7085437    0.3398190  0.00   -0.0545641    0.0724795    0.0488491
c    -2.5025310    2.6198317    0.3632743  0.00    0.1758360   -0.0314041   -0.0821456
c    -4.8991720    2.4259831   -0.3700420  0.00    0.0211563    0.0264154    0.0201393
h    -5.1967167    1.9236252   -1.3063272  0.00    0.0052772    0.0014410    0.0055904
h    -4.6224572    3.4602088   -0.6507571  0.00    0.0167779   -0.0062278    0.0199624
h    -5.7979612    2.4654987    0.2739904  0.00    0.0031416    0.0014956   -0.0053848
n    -3.4327792    0.3866781   -0.2892197  0.00    0.0173895   -0.0237424    0.0321949
h    -4.0034062    1.5281111    1.3999963  0.00   -0.0012308    0.0006672   -0.0086673
h    -3.7074144    0.3818313   -1.3223168  0.00   -0.0189749    0.0041997   -0.0349683
h    -2.3853027    0.2140304   -0.2867248  0.00    0.0240825    0.0150712   -0.0020197
o    -1.3607961    2.3108137   -0.1822121  0.00   -0.1374446    0.0271024    0.0592790
o    -2.7124428    3.8412477    0.9545978  0.00   -0.0294700   -0.0240323   -0.0047300
h    -3.6943167    3.8839097    1.1816020  0.00   -0.0219766   -0.0634653   -0.0480993
    13
 Energy =       0.0997667748
c    -3.7628967    1.7172391    0.3642421  0.00   -0.0487425    0.0681544    0.0467860
c    -2.5131803    2.6005728    0.4217701  0.00    0.1670440   -0.0297541   -0.0769613
c    -4.8545900    2.4433147   -0.4621337  0.00    0.0188776    0.0268426    0.0155561
h    -5.1025221    1.9151668   -1.4007637  0.00    0.0040392    0.0019143    0.0035100
h    -4.5180763    3.4561503   -0.7692852  0.00    0.0153730   -0.0037695    0.0168215
h    -5.7990691    2.5452240    0.1152373  0.00   -0.0013544    0.0020285   -0.0024743
n    -3.4567723    0.3591727   -0.1869631  0.00    0.0184386   -0.0256354    0.0321100
h    -4.1127991    1.5945198    1.4145488  0.00   -0.0026531    0.0000183   -0.0036366
h    -3.7096436    0.2977210   -1.2235172  0.00   -0.0173707    0.0026966   -0.0358499
h    -2.4116400    0.1778271   -0.1522603  0.00    0.0233823    0.0134990   -0.0020960
o    -1.3811010    2.2859585   -0.1540181  0.00   -0.1286110    0.0253417    0.0550711
o    -2.7138660    3.8341759    0.9934496  0.00   -0.0213687   -0.0229200   -0.0051189
h    -3.7123797    3.9232707    1.1453732  0.00   -0.0270543   -0.0584163   -0.0437178
    13
 Energy =       0.0931500630
c    -3.7353924    1.7038534    0.3284085  0.00   -0.0389301    0.0608135    0.0415749
c    -2.5099907    2.6206179    0.3729339  0.00    0.1468312   -0.0274817   -0.0688353
c    -4.9135798    2.4263561   -0.3829256  0.00    0.0154301    0.0262486    0.0105066
h    -5.2200502    1.9189694   -1.3189126  0.00    0.0017607    0.0024001    0.0012435
h    -4.6393438    3.4655674   -0.6691188  0.00    0.0128030   -0.0011190    0.0131473
h    -5.8153763    2.4700220    0.2739904  0.00   -0.0056925    0.0021169    0.0010185
n    -3.4248564    0.3880024   -0.3127117  0.00    0.0182269   -0.0277467    0.0331953
h    -4.0133559    1.5102789    1.3945204  0.00   -0.0035588   -0.0009487    0.0016265
h    -3.6305310    0.4123679   -1.3636182  0.00   -0.0149874    0.0007069   -0.0392716
h    -2.3851924    0.1904561   -0.2439779  0.00    0.0216536    0.0122706   -0.0012762
o    -1.3526409    2.3158655   -0.1816601  0.00   -0.1112007    0.0221477    0.0481890
o    -2.7099832    3.8346355    0.9910421  0.00   -0.0139567   -0.0194647   -0.0048694
h    -3.6982433    3.8933206    1.2177094  0.00   -0.0283794   -0.0499435   -0.0362491
    13
 Energy =       0.0805618283
c    -3.7208746    1.6899098    0.2778413  0.00   -0.0169683    0.0376176    0.0222726
c    -2.5224049    2.6362424    0.3622893  0.00    0.0762255   -0.0177667   -0.0396806
c    -4.9601414    2.4045816   -0.3297936  0.00    0.0096835    0.0188468    0.0050116
h    -5.3438076    1.8892436   -1.2386126  0.00   -0.0017380    0.0009233   -0.0018542
h    -4.7235994    3.4537694   -0.6181195  0.00    0.0080234    0.0004846    0.0086968
h    -5.8034617    2.4302233    0.4041522  0.00   -0.0066385    0.0012092    0.0032064
n    -3.4136715    0.4341701   -0.4618378  0.00    0.0062109   -0.0226894    0.0294581
h    -3.9484455    1.4138790    1.3407595  0.00   -0.0028416   -0.0013259    0.0050822
h    -3.5212294    0.5711211   -1.5180065  0.00   -0.0101649    0.0001780   -0.0381160
h    -2.3957102    0.1788326   -0.3138593  0.00    0.0194075    0.0074798    0.0018766
o    -1.3231840    2.3429251   -0.1912926  0.00   -0.0569542    0.0117173    0.0259256
o    -2.7003004    3.8229019    1.0540497  0.00   -0.0053602   -0.0076938   -0.0008721
h    -3.6717057    3.8825134    1.3381098  0.00   -0.0188852   -0.0289808   -0.0210071
    13
 Energy =       0.0771285084
c    -3.7218235    1.6936690    0.2604855  0.00   -0.0115279    0.0268012    0.0155617
c    -2.5437776    2.6621915    0.3822653  0.00    0.0514026   -0.0119294   -0.0283313
c    -4.9700852    2.3781223   -0.3602911  0.00    0.0135616    0.0108578    0.0058519
h    -5.2563969    1.9236667   -1.3441040  0.00   -0.0028427   -0.0038902   -0.0088777
h    -4.7974898    3.4719431   -0.5373444  0.00    0.0081482    0.0088598    0.0053919
h    -5.8594933    2.2714702    0.3221841  0.00   -0.0127342    0.0000117    0.0089881
n    -3.3842469    0.4538036   -0.4848907  0.00    0.0022096   -0.0164897    0.0235034
h    -3.9590437    1.4042699    1.3162259  0.00   -0.0019498   -0.0009582    0.0038354
h    -3.4265234    0.6154968   -1.5374322  0.00   -0.0078711    0.0002155   -0.0306387
h    -2.3819582    0.1803685   -0.2821235  0.00    0.0164932    0.0050010    0.0018208
o    -1.3077873    2.3676605   -0.1172483  0.00   -0.0373920    0.0077851    0.0182757
o    -2.7383274    3.8407694    1.0888403  0.00   -0.0030042   -0.0052297   -0.0004230
h    -3.7015831    3.8868817    1.3991132  0.00   -0.0144934   -0.0210350   -0.0149582
    13
 Energy =       0.0734263780
c    -3.7553839    1.6837182    0.2284483  0.00   -0.0057735    0.0128148    0.0064366
c    -2.5396866    2.5958659    0.4612622  0.00    0.0173817   -0.0019567   -0.0124260
c    -4.9565985    2.4416108   -0.3989839  0.00    0.0055753    0.0043716    0.0003993
h    -5.2845165    1.9758715   -1.3601518  0.00   -0.0010305   -0.0028267   -0.0047170
h    -4.7099991    3.5144922   -0.6084870  0.00    0.0046336    0.0077478    0.0028639
h    -5.8403051    2.4128519    0.2895866  0.00   -0.0083982   -0.0003688    0.0052107
n    -3.4468873    0.4854423   -0.5862568  0.00   -0.0152536   -0.0131633    0.0216490
h    -4.0409641    1.3347093    1.2546589  0.00   -0.0007219   -0.0020043    0.0047575
h    -3.3617333    0.7460175   -1.6182996  0.00   -0.0051694    0.0053080   -0.0334261
h    -2.4969676    0.1016182   -0.3020334  0.00    0.0223324   -0.0018893    0.0071291
o    -1.2735120    2.2284842    0.0415048  0.00   -0.0074349    0.0030935    0.0083443
o    -2.6906029    3.7646941    1.2012987  0.00    0.0031110   -0.0003978    0.0006023
h    -3.6513794    3.8649372    1.5031329  0.00   -0.0092520   -0.0107288   -0.0068235
    13
 Energy =       0.0715276572
c    -3.7374111    1.6851445    0.2422402  0.00   -0.0047198    0.0078672    0.0049929
c    -2.5426016    2.6433951    0.3965920  0.00    0.0082785   -0.0002561   -0.0067221
c    -4.9917195    2.3830872   -0.3499446  0.00    0.0043477    0.0027257    0.0013220
h    -5.3748414    1.8497711   -1.2584407  0.00   -0.0030555   -0.0037766   -0.0074851
h    -4.7761436    3.4437044   -0.6457272  0.00    0.0046483    0.0091601    0.0009811
h    -5.8271910    2.3854972    0.3972291  0.00   -0.0082177   -0.0010244    0.0059574
n    -3.4235409    0.4892629   -0.5683710  0.00   -0.0111210   -0.0097763    0.0159442
h    -3.9665665    1.3448429    1.2856562  0.00   -0.0007629   -0.0022712    0.0048755
h    -3.3130718    0.7613997   -1.5898518  0.00   -0.0035635    0.0040244   -0.0243174
h    -2.4841932    0.1004911   -0.2698994  0.00    0.0161002   -0.0015231    0.0051801
o    -1.2929876    2.3206722   -0.1172483  0.00    0.0015267    0.0021663    0.0038195
o    -2.6850017    3.8231845    1.1220798  0.00    0.0043494    0.0001764    0.0001316
h    -3.6332664    3.9198604    1.4613657  0.00   -0.0078103   -0.0074924   -0.0046797
    13
 Energy =       0.0706030345
c    -3.7440032    1.6870938    0.2286247  0.00   -0.0032563    0.0054084    0.0034656
c    -2.5341360    2.6248410    0.3717989  0.00   -0.0008893   -0.0016612   -0.0031187
c    -4.9971478    2.4107614   -0.3294789  0.00    0.0028961    0.0021140    0.0012180
h    -5.3875138    1.9103437   -1.2514232  0.00   -0.0023563   -0.0030326   -0.0058958
h    -4.7809428    3.4787273   -0.5900412  0.00    0.0033612    0.0072782    0.0006388
h    -5.8248222    2.3932234    0.4223954  0.00   -0.0060057   -0.0006639    0.0044929
n    -3.4627516    0.5001097   -0.6045041  0.00   -0.0087877   -0.0079588    0.0114151
h    -3.9592304    1.3364595    1.2703038  0.00   -0.0005198   -0.0016108    0.0036856
h    -3.3275596    0.7938142   -1.6135201  0.00   -0.0026730    0.0032728   -0.0182982
h    -2.5413045    0.0760684   -0.3058259  0.00    0.0127053   -0.0013640    0.0042363
o    -1.3299021    2.3400362   -0.2760014  0.00    0.0113338   -0.0032956   -0.0044874
o    -2.6170367    3.7551675    1.1896530  0.00    0.0032183    0.0057277    0.0041302
h    -3.5421856    3.8436672    1.5936988  0.00   -0.0090265   -0.0042142   -0.0014823
    13
 Energy =       0.0694970581
c    -3.7376898    1.7028061    0.2443770  0.00   -0.0023681    0.0009439    0.0002558
c    -2.5339680    2.6604748    0.2861978  0.00   -0.0017402   -0.0001015   -0.0002928
c    -5.0230415    2.3749333   -0.2981836  0.00    0.0003987   -0.0005467   -0.0005880
h    -5.3861940    1.8761555   -1.2270666  0.00   -0.0007524   -0.0012674   -0.0018583
h    -4.8646066    3.4530233   -0.5423546  0.00    0.0011517    0.0037165   -0.0003564
h    -5.8456821    2.3038040    0.4504448  0.00   -0.0029878    0.0001277    0.0020204
n    -3.4787178    0.4860049   -0.5475573  0.00   -0.0069749   -0.0039033    0.0050640
h    -3.9047692    1.4016112    1.3098866  0.00   -0.0003106   -0.0014245    0.0034569
h    -3.2759469    0.7596563   -1.5456902  0.00   -0.0006064    0.0028727   -0.0086679
h    -2.5961839    0.0252804   -0.2012217  0.00    0.0073711   -0.0021199    0.0020367
o    -1.3761571    2.3713269   -0.4347545  0.00    0.0077543   -0.0010741   -0.0028915
o    -2.5674578    3.8157014    1.0701353  0.00    0.0060852    0.0037850    0.0006691
h    -3.4581213    3.9195351    1.5414669  0.00   -0.0070204   -0.0010083    0.0011520
    13
 Energy =       0.0690828480
c    -3.7412051    1.7110040    0.2348764  0.00    0.0009850   -0.0003713    0.0000149
c    -2.5538891    2.6791985    0.2797669  0.00   -0.0025096    0.0001441    0.0017481
c    -5.0263769    2.3640823   -0.3183350  0.00    0.0006677   -0.0002104    0.0008093
h    -5.4071622    1.8223335   -1.2139693  0.00    0.0000419   -0.0002755   -0.0006710
h    -4.8655834    3.4240845   -0.6189782  0.00   -0.0000160    0.0002634    0.0001903
h    -5.8323890    2.3372884    0.4457738  0.00    0.0004589   -0.0003912    0.0000975
n    -3.4637231    0.4987590   -0.5524508  0.00   -0.0028897    0.0016739    0.0016010
h    -3.9142793    1.4128499    1.2953593  0.00    0.0001667    0.0005589   -0.0013500
h    -3.1780509    0.7744687   -1.5257835  0.00    0.0008411    0.0008956   -0.0020259
h    -2.6299429    0.0042547   -0.1475366  0.00    0.0019537   -0.0008482    0.0010621
o    -1.4346600    2.4461811   -0.5130708  0.00    0.0013688   -0.0020735   -0.0021156
o    -2.5690653    3.7982714    1.1114793  0.00   -0.0011921   -0.0004373    0.0001444
h    -3.4322090    3.8775371    1.6285483  0.00    0.0001235    0.0010716    0.0004949
    13
 Energy =       0.0690633031
c    -3.7531899    1.7197498    0.2424439  0.00    0.0008591    0.0005418    0.0003104
c    -2.5557425    2.6765440    0.2917060  0.00   -0.0010515    0.0000706    0.0007702
c    -5.0149661    2.3722707   -0.3669095  0.00    0.0000840    0.0005250   -0.0001018
h    -5.3712767    1.8151072   -1.2631781  0.00   -0.0001985   -0.0001695   -0.0007744
h    -4.8347982    3.4244001   -0.6846808  0.00   -0.0001189    0.0004711   -0.0001074
h    -5.8467836    2.3695826    0.3709439  0.00   -0.0004679   -0.0001359    0.0006643
n    -3.4673366    0.4800384   -0.5003802  0.00   -0.0018171   -0.0002971    0.0010005
h    -3.9604344    1.4548714    1.3074019  0.00   -0.0001227    0.0000546    0.0004199
h    -3.1584171    0.7223646   -1.4755981  0.00    0.0008181    0.0006958   -0.0023041
h    -2.6471640   -0.0083824   -0.0619470  0.00    0.0018342   -0.0010504    0.0008908
o    -1.4347207    2.4331392   -0.4940986  0.00    0.0007665   -0.0010369   -0.0011215
o    -2.5676155    3.8003174    1.1167831  0.00   -0.0004476   -0.0002176    0.0000005
h    -3.4360911    3.8903104    1.6231934  0.00   -0.0001377    0.0005485    0.0003526
    13
 Energy =       0.0690538571
c    -3.7536534    1.7237451    0.2435906  0.00   -0.0000934    0.0000231    0.0000305
c    -2.5571495    2.6836107    0.2829202  0.00   -0.0001235    0.0000523    0.0000505
c    -5.0156906    2.3678693   -0.3719607  0.00    0.0000064   -0.0000250    0.0000004
h    -5.3630469    1.8094314   -1.2699959  0.00   -0.0000042   -0.0000035    0.0000474
h    -4.8402303    3.4210910   -0.6871798  0.00    0.0000213   -0.0000310    0.0000143
h    -5.8517242    2.3592987    0.3598788  0.00    0.0000114    0.0000232   -0.0000424
n    -3.4672225    0.4767830   -0.4857134  0.00    0.0001274   -0.0001221   -0.0000970
h    -3.9605269    1.4692897    1.3107949  0.00    0.0000196   -0.0000180    0.0000176
h    -3.1598269    0.7078986   -1.4624389  0.00   -0.0000588   -0.0000247    0.0001357
h    -2.6477341   -0.0055967   -0.0429401  0.00   -0.0001517    0.0000734   -0.0000763
o    -1.4481266    2.4527713   -0.5221651  0.00    0.0002696    0.0000129   -0.0001170
o    -2.5606312    3.8009142    1.1165247  0.00    0.0001259    0.0000669   -0.0000215
h    -3.4229732    3.8832070    1.6343647  0.00   -0.0001501   -0.0000275    0.0000577
    13
 Energy =       0.0690537547
c    -3.7538849    1.7239527    0.2435424  0.00   -0.0000000    0.0000001   -0.0000002
c    -2.5575450    2.6838202    0.2829219  0.00   -0.0000033   -0.0000004    0.0000016
c    -5.0157460    2.3678074   -0.3727181  0.00    0.0000012   -0.0000009    0.0000007
h    -5.3638947    1.8078553   -1.2695462  0.00   -0.0000005   -0.0000013   -0.0000016
h    -4.8396889    3.4203089   -0.6901228  0.00    0.0000005    0.0000026   -0.0000006
h    -5.8514147    2.3612739    0.3596144  0.00   -0.0000014   -0.0000001    0.0000018
n    -3.4668950    0.4768207   -0.4851962  0.00   -0.0000003   -0.0000003   -0.0000003
h    -3.9612443    1.4697916    1.3107021  0.00    0.0000001   -0.0000000    0.0000002
h    -3.1595918    0.7076217   -1.4621240  0.00   -0.0000000    0.0000001   -0.0000002
h    -2.6470826   -0.0050300   -0.0421876  0.00    0.0000003   -0.0000000    0.0000001
o    -1.4500629    2.4546317   -0.5244882  0.00    0.0000049   -0.0000022   -0.0000039
o    -2.5599093    3.7998143    1.1182137  0.00   -0.0000002    0.0000022    0.0000017
h    -3.4215761    3.8816448    1.6370684  0.00   -0.0000012    0.0000004    0.0000006
    13
 Energy =       0.0690537546
c    -3.7538921    1.7239627    0.2435417  0.00    0.0000000    0.0000000    0.0000000
c    -2.5575547    2.6838334    0.2829116  0.00   -0.0000000   -0.0000000    0.0000000
c    -5.0157463    2.3678051   -0.3727444  0.00    0.0000000    0.0000000    0.0000000
h    -5.3638924    1.8078307   -1.2695571  0.00   -0.0000000   -0.0000000   -0.0000000
h    -4.8396820    3.4202941   -0.6901779  0.00    0.0000000    0.0000000    0.0000000
h    -5.8514187    2.3612985    0.3595809  0.00   -0.0000000   -0.0000000    0.0000000
n    -3.4668926    0.4768171   -0.4851695  0.00   -0.0000000   -0.0000000   -0.0000000
h    -3.9612635    1.4698204    1.3107033  0.00    0.0000000   -0.0000000    0.0000000
h    -3.1595865    0.7075987   -1.4621010  0.00    0.0000000    0.0000000   -0.0000000
h    -2.6470810   -0.0050213   -0.0421469  0.00    0.0000000   -0.0000000    0.0000000
o    -1.4501249    2.4547071   -0.5245814  0.00    0.0000000   -0.0000000   -0.0000000
o    -2.5598800    3.7997820    1.1182607  0.00    0.0000000    0.0000000    0.0000000
h    -3.4215216    3.8815848    1.6371598  0.00   -0.0000000    0.0000000    0.0000000
