      -----------------------------------------------------------      
     |                   =====================                   |     
     |                           x T B                           |     
     |                   =====================                   |     
     |                         S. Grimme                         |     
     |          Mulliken Center for Theoretical Chemistry        |     
     |                    University of Bonn                     |     
      -----------------------------------------------------------      

   * xtb version 6.4.0 (d4b70c2) compiled by 'ehlert@majestix' on 2021-02-01

   xtb is free software: you can redistribute it and/or modify it under
   the terms of the GNU Lesser General Public License as published by
   the Free Software Foundation, either version 3 of the License, or
   (at your option) any later version.
   
   xtb is distributed in the hope that it will be useful,
   but WITHOUT ANY WARRANTY; without even the implied warranty of
   MERCHANTABILITY or FITNESS FOR A PARTICULAR PURPOSE.  See the
   GNU Lesser General Public License for more details.
   
   Cite this work as:
   * C. Bannwarth, E. Caldeweyher, S. Ehlert, A. Hansen, P. Pracht,
     J. Seibert, S. Spicher, S. Grimme, WIREs Comput. Mol. Sci., 2020,
     e01493. DOI: 10.1002/wcms.1493
   
   for GFN2-xTB:
   * C. Bannwarth, S. Ehlert and S. Grimme., J. Chem. Theory Comput., 2019,
     15, 1652-1671. DOI: 10.1021/acs.jctc.8b01176
   for GFN1-xTB:
   * S. Grimme, C. Bannwarth, P. Shushkov, J. Chem. Theory Comput., 2017,
     13, 1989-2009. DOI: 10.1021/acs.jctc.7b00118
   for GFN0-xTB:
   * P. Pracht, E. Caldeweyher, S. Ehlert, S. Grimme, ChemRxiv, 2019, preprint.
     DOI: 10.26434/chemrxiv.8326202.v1
   for GFN-FF:
   * S. Spicher and S. Grimme, Angew. Chem. Int. Ed., 2020, 59, 15665-15673.
     DOI: 10.1002/anie.202004239
   
   for DFT-D4:
   * E. Caldeweyher, C. Bannwarth and S. Grimme, J. Chem. Phys., 2017,
     147, 034112. DOI: 10.1063/1.4993215
   * E. Caldeweyher, S. Ehlert, A. Hansen, H. Neugebauer, S. Spicher,
     C. Bannwarth and S. Grimme, J. Chem. Phys., 2019, 150, 154122.
     DOI: 10.1063/1.5090222
   * E. Caldeweyher, J.-M. Mewes, S. Ehlert and S. Grimme, Phys. Chem. Chem. Phys.
     2020, 22, 8499-8512. DOI: 10.1039/D0CP00502A
   
   for sTDA-xTB:
   * S. Grimme and C. Bannwarth, J. Chem. Phys., 2016, 145, 054103.
     DOI: 10.1063/1.4959605
   
   in the mass-spec context:
   * V. Asgeirsson, C. Bauer and S. Grimme, Chem. Sci., 2017, 8, 4879.
     DOI: 10.1039/c7sc00601b
   * J. Koopman and S. Grimme, ACS Omega 2019, 4, 12, 15120-15133.
     DOI: 10.1021/acsomega.9b02011
   
   for metadynamics refer to:
   * S. Grimme, J. Chem. Theory Comput., 2019, 155, 2847-2862
     DOI: 10.1021/acs.jctc.9b00143
   
   with help from (in alphabetical order)
   P. Atkinson, C. Bannwarth, F. Bohle, G. Brandenburg, E. Caldeweyher
   M. Checinski, S. Dohm, S. Ehlert, S. Ehrlich, I. Gerasimov, J. Koopman
   C. Lavinge, S. Lehtola, F. März, M. Müller, F. Musil, H. Neugebauer
   J. Pisarek, P. Pracht, J. Seibert, P. Shushkov, S. Spicher, M. Stahn
   T. Strunk, J. Stückrath, T. Rose, and J. Unsleber
   
 * started run on 2023/05/17 at 16:57:43.917     

           -------------------------------------------------
          |                Calculation Setup                |
           -------------------------------------------------

          program call               : xtb --gfnff struc.xyz
          hostname                   : k27
          coordinate file            : struc.xyz
          omp threads                :                    12
          number of atoms            :                    13
          number of electrons        :                    36
          charge                     :                     0
          spin                       :                   0.0
          first test random number   :      0.62729730751378

   ID    Z sym.   atoms
    1    6 C      1-3
    2    1 H      4-6, 8-10, 13
    3    7 N      7
    4    8 O      11, 12
   1.00000000000000     
 
          ==================== Thresholds ====================
          CN  :   150.00000
          rep :   500.00000
          disp:  2500.00000
          HB1 :   250.00000
          HB2 :   450.00000
 
          Pauling EN used:
          Z : 1  EN :  2.20
          Z : 6  EN :  2.55
          Z : 7  EN :  3.04
          Z : 8  EN :  3.44
          electric field strengths (au): 0.000
 
           ------------------------------------------------- 
          |           Force Field Initialization            |
           ------------------------------------------------- 
 
          distances ...
          ----------------------------------------
          generating topology and atomic info file ...
          pair mat ...
          computing topology distances matrix with Floyd-Warshall algo ...
          making topology EEQ charges ...
          #fragments for EEQ constrain: 1
          ----------------------------------------
          generating topology and atomic info file ...
          pair mat ...
          computing topology distances matrix with Floyd-Warshall algo ...
          making topology EEQ charges ...
          #fragments for EEQ constrain: 1
          rings ...
          # BATM   84
          # H in HB   7
          maxhb123   75 30 0
          doing iterative Hueckel for 1 subsystem(s) ...
 
  atom   neighbors  erfCN metchar sp-hybrid imet pi  qest     coordinates
    1  C       4    3.48   0.00         3    0    0   0.043   -7.017289    3.203199    0.599708
    2  C       3    2.79   0.00         2    0    1   0.228   -4.717266    4.978521    0.457314
    3  C       4    3.49   0.00         3    0    0  -0.060   -9.366521    4.521018   -0.407368
    4  H       1    0.97   0.00         0    0    0   0.072   -9.043170    5.189981   -2.340728
    5  H       1    0.97   0.00         0    0    0   0.072   -9.854770    6.169199    0.746001
    6  H       1    0.97   0.00         0    0    0   0.072  -10.999169    3.249535   -0.457488
    7  N       3    2.78   0.00         3    0    0  -0.280   -6.443569    0.854069   -0.859672
    8  H       1    0.97   0.00         0    0    0   0.070   -7.289731    2.679102    2.583123
    9  H       1    0.98   0.00         0    0    0   0.154   -6.060805   -0.557167    0.411911
   10  H       1    0.98   0.00         0    0    0   0.154   -8.067202    0.263976   -1.734014
   11  O       1    0.98   0.00         2    0    1  -0.370   -3.687441    5.677039   -1.481449
   12  O       2    1.91   0.00         3    0    1  -0.412   -3.969558    5.719690    2.801613
   13  H       1    0.97   0.01         0    0    0   0.258   -5.035194    4.742626    3.989023
 
          #atoms :   13
          #bonds :   12
          #angl  :   19
          #tors  :   25
          #nmol  :   1
          #optfrag :   1
           ------------------------------------------------- 
          |                   G F N - F F                   |
          |          A general generic force-field          |
          |                  Version 1.0.2                  | 
           ------------------------------------------------- 

 E+G (total)                   0 d,  0 h,  0 min,  0.001 sec
 distance/D3 list               ...        0 min,  0.000 sec (  0.192%)
 non bonded repulsion           ...        0 min,  0.000 sec (  9.151%)
 dCN                            ...        0 min,  0.000 sec (  0.812%)
 EEQ energy and q               ...        0 min,  0.000 sec (  9.600%)
 D3                             ...        0 min,  0.000 sec (  9.600%)
 EEQ gradient                   ...        0 min,  0.000 sec (  8.617%)
 bonds                          ...        0 min,  0.000 sec ( 17.939%)
 bend and torsion               ...        0 min,  0.000 sec ( 17.212%)
 bonded ATM                     ...        0 min,  0.000 sec (  8.617%)
 HB/XB (incl list setup)        ...        0 min,  0.000 sec ( 17.126%)

         :::::::::::::::::::::::::::::::::::::::::::::::::::::
         ::                     SUMMARY                     ::
         :::::::::::::::::::::::::::::::::::::::::::::::::::::
         :: total energy              -1.994698338467 Eh    ::
         :: gradient norm              0.049685802150 Eh/a0 ::
         ::.................................................::
         :: bond energy               -1.982252403637 Eh    ::
         :: angle energy               0.002204253279 Eh    ::
         :: torsion energy             0.003783819333 Eh    ::
         :: repulsion energy           0.127275293798 Eh    ::
         :: electrostat energy        -0.138514326730 Eh    ::
         :: dispersion energy         -0.005709701489 Eh    ::
         :: HB energy                 -0.000000375741 Eh    ::
         :: XB energy                  0.000000000000 Eh    ::
         :: bonded atm energy         -0.001484897280 Eh    ::
         :: external energy            0.000000000000 Eh    ::
         :: add. restraining           0.000000000000 Eh    ::
         :: total charge               0.000000000000 e     ::
         :::::::::::::::::::::::::::::::::::::::::::::::::::::

           -------------------------------------------------
          |                Property Printout                |
           -------------------------------------------------

           -------------------------------------------------
          | TOTAL ENERGY               -1.994698338467 Eh   |
          | GRADIENT NORM               0.049685802150 Eh/α |
           -------------------------------------------------

------------------------------------------------------------------------
 * finished run on 2023/05/17 at 16:57:43.948     
------------------------------------------------------------------------
 total:
 * wall-time:     0 d,  0 h,  0 min,  0.031 sec
 *  cpu-time:     0 d,  0 h,  0 min,  0.247 sec
 * ratio c/w:     8.003 speedup
 SCF:
 * wall-time:     0 d,  0 h,  0 min,  0.001 sec
 *  cpu-time:     0 d,  0 h,  0 min,  0.012 sec
 * ratio c/w:     8.979 speedup

