    24
 Energy =       0.1725962456
c     1.6703672    2.6182922    0.2614132  0.00    0.0361891    0.0887393    0.0346498
c     0.3248649    2.9356558    0.1418766  0.00   -0.0041976    0.1041447    0.0334686
c    -0.5827484    1.9945952   -0.3219261  0.00   -0.0878620    0.0365834   -0.0016299
c     2.1038063    1.3347474   -0.0833024  0.00    0.0674284   -0.0120395    0.0081028
c     1.2047783    0.3610782   -0.5608861  0.00    0.0191146   -0.0954667   -0.0238708
c    -0.1441045    0.7159142   -0.6796715  0.00   -0.0314112   -0.0457280   -0.0209020
o    -0.1504797    4.1703171    0.4675790  0.00    0.0414772   -0.0055530    0.0043764
h     0.5965194    4.7277081    0.7407382  0.00   -0.0327477   -0.0688516   -0.0266584
h    -0.8895274    0.0262790   -1.0546636  0.00   -0.0072430    0.0024883   -0.0020963
h     3.1621727    1.0964802    0.0165124  0.00    0.0023820   -0.0000410   -0.0007856
h     2.3926004    3.3457758    0.6178375  0.00    0.0024962   -0.0013979   -0.0008032
h    -1.6336796    2.2563998   -0.4108671  0.00   -0.0035306   -0.0036808   -0.0011214
c     1.7669373   -1.0073413   -0.8964724  0.00    0.0230973   -0.0059093   -0.0234607
c     0.8861134   -2.0194266   -1.6556448  0.00   -0.0180219    0.0627953    0.0213648
h     2.1212937   -1.4658931    0.0371405  0.00    0.0007892    0.0095863   -0.0123120
h     2.6645729   -0.8285312   -1.5058794  0.00   -0.0133791   -0.0013406    0.0083573
c     1.7481012   -3.2276699   -2.0845864  0.00    0.3410951   -0.0699550   -0.0811249
o     2.9166907   -3.1880566   -2.4354089  0.00   -0.2811135   -0.0076889    0.0787593
o     1.0176544   -4.3756256   -2.0624861  0.00   -0.2412876    0.1861136    0.1768858
h     1.5430918   -5.0077742   -1.5093229  0.00   -0.0210449    0.0400630   -0.0012549
n    -0.2697763   -2.5678537   -0.8742070  0.00   -0.0514680   -0.1203427   -0.0462472
h     0.4960411   -1.5757973   -2.5789902  0.00   -0.0100489   -0.0132311    0.0222734
h    -1.1308243   -2.1540904   -1.2498506  0.00    0.0311404   -0.0051720    0.0059155
h    -0.3593670   -3.5651556   -1.0813225  0.00    0.2381465   -0.0741158   -0.1518864
    24
 Energy =       0.1441002459
c     1.6939481    2.6095255    0.2038324  0.00    0.0275843    0.0683011    0.0268483
c     0.3611971    2.9421776    0.0685116  0.00   -0.0031243    0.0795793    0.0260570
c    -0.5463804    2.0078910   -0.3821319  0.00   -0.0676081    0.0282008   -0.0008715
c     2.1146727    1.3252415   -0.1154852  0.00    0.0518161   -0.0090698    0.0061151
c     1.2134518    0.3623551   -0.5803282  0.00    0.0137766   -0.0716136   -0.0189606
c    -0.1233066    0.7270421   -0.7119939  0.00   -0.0239696   -0.0353377   -0.0161662
o    -0.0996058    4.1994485    0.3627481  0.00    0.0310236   -0.0034671    0.0029981
h     0.6454053    4.7644539    0.6606760  0.00   -0.0246816   -0.0529700   -0.0202808
h    -0.8733638    0.0372304   -1.0733044  0.00   -0.0055519    0.0019170   -0.0016251
h     3.1681140    1.0748150    0.0031989  0.00    0.0021077   -0.0001481   -0.0005936
h     2.4196675    3.3363239    0.5542036  0.00    0.0019083   -0.0010248   -0.0006119
h    -1.5924008    2.2830120   -0.4839275  0.00   -0.0028805   -0.0027313   -0.0008566
c     1.7483667   -1.0355690   -0.8519966  0.00    0.0149259   -0.0049251   -0.0191158
c     0.8605343   -2.0277207   -1.6343550  0.00   -0.0139587    0.0487270    0.0150801
h     2.0133890   -1.4914606    0.1198379  0.00    0.0010740    0.0049758   -0.0057959
h     2.6993540   -0.9104949   -1.4044216  0.00   -0.0065056   -0.0008218    0.0043176
c     1.7023250   -3.2316965   -2.0963115  0.00    0.2632066   -0.0541000   -0.0623966
o     2.9084142   -3.1739978   -2.4524313  0.00   -0.2160689   -0.0056105    0.0614571
o     1.0037015   -4.4070672   -2.0528195  0.00   -0.2065296    0.1591436    0.1210299
h     1.4789573   -4.9621189   -1.3505697  0.00   -0.0033026    0.0182590    0.0178278
n    -0.2683612   -2.5682342   -0.8194788  0.00   -0.0365573   -0.0935822   -0.0338662
h     0.4568794   -1.5618801   -2.5462325  0.00   -0.0080514   -0.0099726    0.0168779
h    -1.1474023   -2.1317358   -1.1387975  0.00    0.0212180   -0.0026888    0.0038573
h    -0.3824586   -3.5675133   -1.0408138  0.00    0.1901490   -0.0610402   -0.1213254
    24
 Energy =       0.1293219282
c     1.6893552    2.6151102    0.1899046  0.00    0.0244957    0.0606610    0.0238665
c     0.3619343    2.9525201    0.0419707  0.00   -0.0027756    0.0706110    0.0231851
c    -0.5429062    2.0204312   -0.4086332  0.00   -0.0600607    0.0250688   -0.0006856
c     2.1069858    1.3305166   -0.1164940  0.00    0.0460232   -0.0080799    0.0053720
c     1.2075967    0.3708704   -0.5802071  0.00    0.0122593   -0.0634678   -0.0168798
c    -0.1235921    0.7391084   -0.7261164  0.00   -0.0213247   -0.0313459   -0.0143521
o    -0.0960250    4.2171140    0.3231474  0.00    0.0273702   -0.0030034    0.0025863
h     0.6457324    4.7871047    0.6315927  0.00   -0.0218258   -0.0470126   -0.0179664
h    -0.8724886    0.0504570   -1.0898878  0.00   -0.0049384    0.0017804   -0.0014010
h     3.1579988    1.0763335    0.0142894  0.00    0.0019514   -0.0001669   -0.0005257
h     2.4142461    3.3420479    0.5415014  0.00    0.0016979   -0.0009114   -0.0005449
h    -1.5864326    2.3001861   -0.5214402  0.00   -0.0026290   -0.0023936   -0.0007589
c     1.7375584   -1.0338382   -0.8298979  0.00    0.0132544   -0.0044270   -0.0170482
c     0.8505017   -2.0337587   -1.6051398  0.00   -0.0124902    0.0432159    0.0126627
h     1.9908036   -1.4793037    0.1510258  0.00    0.0009478    0.0043423   -0.0049972
h     2.6948127   -0.9212518   -1.3758472  0.00   -0.0056849   -0.0007475    0.0037599
c     1.6893630   -3.2407784   -2.0539376  0.00    0.2343073   -0.0485074   -0.0546007
o     2.9055787   -3.1783705   -2.4288964  0.00   -0.1916273   -0.0051440    0.0550017
o     0.9939661   -4.4219360   -2.0188394  0.00   -0.2207093    0.1781997    0.0797882
h     1.6155819   -5.0868659   -1.5093229  0.00    0.0309609   -0.0182326    0.0438370
n    -0.2724462   -2.5629478   -0.7792584  0.00   -0.0314433   -0.0831248   -0.0296345
h     0.4464465   -1.5773473   -2.5233021  0.00   -0.0071585   -0.0088536    0.0149036
h    -1.1521401   -2.1055820   -1.0708859  0.00    0.0180100   -0.0019791    0.0032232
h    -0.4073325   -3.5597921   -1.0177163  0.00    0.1713896   -0.0564817   -0.1087909
    24
 Energy =       0.0985806036
c     1.7224222    2.5963349    0.1642355  0.00    0.0141815    0.0357130    0.0141795
c     0.4144842    2.9608665   -0.0140167  0.00   -0.0019862    0.0410337    0.0139312
c    -0.4919216    2.0457168   -0.4637019  0.00   -0.0355999    0.0148436    0.0003697
c     2.1175763    1.3091775   -0.1090004  0.00    0.0272180   -0.0047411    0.0026919
c     1.2134553    0.3703944   -0.5692314  0.00    0.0072919   -0.0362217   -0.0106208
c    -0.0978096    0.7609328   -0.7478131  0.00   -0.0125757   -0.0184410   -0.0084581
o    -0.0210356    4.2503712    0.2396739  0.00    0.0147947   -0.0009736    0.0008430
h     0.7177623    4.8284031    0.5788718  0.00   -0.0120455   -0.0275496   -0.0100912
h    -0.8521983    0.0822522   -1.1133925  0.00   -0.0029358    0.0011843   -0.0007443
h     3.1592010    1.0342303    0.0520868  0.00    0.0018514   -0.0003645   -0.0002657
h     2.4528153    3.3156590    0.5197481  0.00    0.0010553   -0.0005071   -0.0003175
h    -1.5256903    2.3488104   -0.6023962  0.00   -0.0021603   -0.0011547   -0.0004672
c     1.7092199   -1.0588561   -0.7674941  0.00    0.0066501   -0.0030372   -0.0105160
c     0.8150616   -2.0401362   -1.5646555  0.00   -0.0074143    0.0254005    0.0068066
h     1.8964307   -1.4987793    0.2356521  0.00    0.0005779    0.0012390   -0.0010243
h     2.6998722   -0.9914211   -1.2693240  0.00   -0.0010563   -0.0002808    0.0012429
c     1.6277399   -3.2488502   -2.0340497  0.00    0.1368936   -0.0282181   -0.0305724
o     2.8863754   -3.1738644   -2.4318783  0.00   -0.1121951   -0.0024563    0.0316894
o     0.9467982   -4.4492202   -2.0320142  0.00   -0.1546942    0.1241352    0.0465297
h     1.6124960   -5.1609666   -1.6680760  0.00    0.0292913   -0.0235104    0.0350902
n    -0.2998244   -2.5450801   -0.7234324  0.00   -0.0127696   -0.0484337   -0.0149130
h     0.4190658   -1.5623139   -2.4814381  0.00   -0.0044685   -0.0051288    0.0086315
h    -1.1773336   -2.0392393   -0.9581801  0.00    0.0068543    0.0012709    0.0011335
h    -0.4898643   -3.5343942   -1.0025640  0.00    0.1132414   -0.0438015   -0.0751486
    24
 Energy =       0.0898843306
c     1.6434711    2.6215324    0.1357144  0.00    0.0123612    0.0289252    0.0117046
c     0.3374415    2.9619096   -0.0873933  0.00   -0.0016528    0.0331121    0.0113704
c    -0.5374005    2.0276902   -0.5537709  0.00   -0.0294248    0.0121895    0.0003754
c     2.0673305    1.3411835   -0.1099164  0.00    0.0228399   -0.0040929    0.0021900
c     1.1951587    0.3850031   -0.5868063  0.00    0.0065628   -0.0294236   -0.0090908
c    -0.1142247    0.7497185   -0.8143160  0.00   -0.0111001   -0.0148308   -0.0069230
o    -0.1293766    4.2498396    0.1345558  0.00    0.0104730   -0.0005912    0.0004014
h     0.5912493    4.8628910    0.4622369  0.00   -0.0089909   -0.0211141   -0.0078440
h    -0.8422620    0.0551843   -1.2065551  0.00   -0.0029509    0.0016037   -0.0011791
h     3.1087344    1.0858178    0.0848181  0.00    0.0022624   -0.0005140   -0.0000851
h     2.3497015    3.3579647    0.5059638  0.00    0.0013482   -0.0001305   -0.0000605
h    -1.5707837    2.3138097   -0.7304927  0.00   -0.0026261   -0.0006887   -0.0005113
c     1.7328113   -1.0308855   -0.7701251  0.00    0.0056954   -0.0015485   -0.0084603
c     0.8495851   -2.0672366   -1.5120409  0.00   -0.0053095    0.0201355    0.0047932
h     1.9735886   -1.4421927    0.2361568  0.00    0.0009765    0.0002000    0.0007212
h     2.7026049   -0.9348513   -1.3098050  0.00    0.0003870    0.0005222    0.0006871
c     1.6889645   -3.2630335   -1.9611174  0.00    0.1102892   -0.0227228   -0.0244170
o     2.9613944   -3.1569590   -2.3537607  0.00   -0.0898955   -0.0017291    0.0254608
o     1.0476844   -4.4863437   -1.9378984  0.00   -0.1297471    0.1028927    0.0377547
h     1.7465563   -5.1877915   -1.6317104  0.00    0.0258849   -0.0213586    0.0297466
n    -0.2242783   -2.5759842   -0.6223317  0.00   -0.0094405   -0.0415426   -0.0104396
h     0.4152778   -1.6344048   -2.4373682  0.00   -0.0042901   -0.0034112    0.0054169
h    -1.1143789   -2.0646039   -0.7994269  0.00    0.0029141    0.0011374    0.0009043
h    -0.4237506   -3.5682306   -0.8970008  0.00    0.0934339   -0.0370196   -0.0625159
    24
 Energy =       0.0827042200
c     1.6365700    2.6265888    0.1079839  0.00    0.0099545    0.0226198    0.0093526
c     0.3387530    2.9694305   -0.1452723  0.00   -0.0015648    0.0256081    0.0090523
c    -0.5314081    2.0302770   -0.6030038  0.00   -0.0233144    0.0098348    0.0004775
c     2.0575662    1.3419932   -0.1030792  0.00    0.0182849   -0.0036729    0.0015807
c     1.1908773    0.3832136   -0.5756710  0.00    0.0055180   -0.0234079   -0.0072655
c    -0.1110457    0.7479818   -0.8313698  0.00   -0.0088488   -0.0118840   -0.0055594
o    -0.1232624    4.2689400    0.0336011  0.00    0.0057038   -0.0015450   -0.0002724
h     0.6064537    4.9066552    0.3034837  0.00   -0.0050563   -0.0139781   -0.0056095
h    -0.8348580    0.0495504   -1.2243372  0.00   -0.0022798    0.0016060   -0.0010353
h     3.0943047    1.0859881    0.1137409  0.00    0.0020259   -0.0005593   -0.0000533
h     2.3394145    3.3678069    0.4747656  0.00    0.0011428   -0.0001330   -0.0000263
h    -1.5594890    2.3189273   -0.8041172  0.00   -0.0023639   -0.0003449   -0.0004187
c     1.7279209   -1.0364336   -0.7321767  0.00    0.0046314   -0.0013663   -0.0067235
c     0.8456035   -2.0825341   -1.4619883  0.00   -0.0040233    0.0157196    0.0033708
h     1.9644685   -1.4327089    0.2811967  0.00    0.0007809    0.0000835    0.0006941
h     2.7000708   -0.9492300   -1.2690092  0.00    0.0003377    0.0003888    0.0004835
c     1.6845163   -3.2714752   -1.9233673  0.00    0.0868720   -0.0176771   -0.0189855
o     2.9662443   -3.1538221   -2.3222973  0.00   -0.0707875   -0.0012319    0.0200001
o     1.0515149   -4.5010337   -1.9235824  0.00   -0.1071214    0.0850604    0.0298513
h     1.7635065   -5.2120333   -1.6893135  0.00    0.0230742   -0.0197939    0.0248906
n    -0.2085642   -2.5943757   -0.5537872  0.00   -0.0025537   -0.0328573   -0.0057380
h     0.3959489   -1.6556051   -2.3837426  0.00   -0.0034695   -0.0026230    0.0041037
h    -1.0878121   -2.0397366   -0.6602306  0.00   -0.0023010    0.0036916    0.0002827
h    -0.4521957   -3.5683370   -0.8708168  0.00    0.0753581   -0.0335380   -0.0524526
    24
 Energy =       0.0770080144
c     1.5655295    2.6520800    0.0756076  0.00    0.0084277    0.0185134    0.0077032
c     0.2665043    2.9682742   -0.1986771  0.00   -0.0011785    0.0208229    0.0073537
c    -0.5777931    2.0097004   -0.6606407  0.00   -0.0192982    0.0081502    0.0003719
c     2.0124048    1.3754578   -0.1164236  0.00    0.0151954   -0.0031285    0.0013182
c     1.1709896    0.3977231   -0.5902669  0.00    0.0045277   -0.0191475   -0.0059660
c    -0.1320332    0.7340501   -0.8677127  0.00   -0.0075071   -0.0098217   -0.0046084
o    -0.2244460    4.2609078   -0.0327080  0.00    0.0031981   -0.0016139   -0.0006822
h     0.4811700    4.9143914    0.2703602  0.00   -0.0030243   -0.0102656   -0.0040219
h    -0.8362012    0.0150667   -1.2590638  0.00   -0.0021046    0.0011785   -0.0009882
h     3.0505131    1.1409015    0.1176146  0.00    0.0020272   -0.0005484    0.0000319
h     2.2487336    3.4100279    0.4457931  0.00    0.0011824    0.0001212    0.0000864
h    -1.6082651    2.2772541   -0.8777178  0.00   -0.0022694   -0.0001661   -0.0004038
c     1.7384357   -1.0117470   -0.7259894  0.00    0.0037417   -0.0009648   -0.0049134
c     0.8851002   -2.0909256   -1.4432419  0.00   -0.0042366    0.0132251    0.0008783
h     1.9786615   -1.3878262    0.2943675  0.00    0.0007339   -0.0000288    0.0007770
h     2.7108121   -0.9098761   -1.2600062  0.00    0.0004304    0.0004690    0.0004398
c     1.7590007   -3.2814183   -1.8449346  0.00    0.0715341   -0.0131106   -0.0156921
o     3.0506510   -3.1370207   -2.2325603  0.00   -0.0565296   -0.0011022    0.0161450
o     1.1762851   -4.5371813   -1.7975860  0.00   -0.0905782    0.0682216    0.0238752
h     1.9222596   -5.2252336   -1.6162411  0.00    0.0212842   -0.0181974    0.0208636
n    -0.1916549   -2.5653398   -0.5384266  0.00    0.0214675   -0.0136979    0.0107809
h     0.4603680   -1.6958792   -2.3926065  0.00   -0.0031462   -0.0019173    0.0021612
h    -1.1118917   -2.1049567   -0.7973549  0.00   -0.0238910    0.0167460   -0.0069929
h    -0.3400351   -3.6084031   -0.7139753  0.00    0.0600133   -0.0537372   -0.0485174
    24
 Energy =       0.0665274341
c     1.5308715    2.6529513    0.0693640  0.00    0.0046403    0.0078725    0.0035217
c     0.2496836    2.9684903   -0.2688275  0.00   -0.0010367    0.0091724    0.0031446
c    -0.5727017    2.0062620   -0.7496356  0.00   -0.0096044    0.0044189    0.0005129
c     1.9804130    1.3761183   -0.0740109  0.00    0.0075803   -0.0021091    0.0003205
c     1.1596904    0.3961098   -0.5634116  0.00    0.0029281   -0.0086218   -0.0026199
c    -0.1255222    0.7287099   -0.9052569  0.00   -0.0041784   -0.0043031   -0.0022319
o    -0.2457008    4.2680565   -0.1411912  0.00   -0.0018515   -0.0014240   -0.0016955
h     0.4365340    4.9272077    0.2152620  0.00    0.0008635   -0.0028239   -0.0006013
h    -0.8145457    0.0017016   -1.3077061  0.00   -0.0011769    0.0004884   -0.0004508
h     3.0063164    1.1434079    0.2114661  0.00    0.0022374   -0.0007024    0.0002616
h     2.1984009    3.4164990    0.4557686  0.00    0.0009167    0.0000890    0.0000937
h    -1.5915320    2.2733969   -1.0169975  0.00   -0.0022458    0.0004222   -0.0003889
c     1.7278358   -1.0171351   -0.6531695  0.00    0.0011842   -0.0004615   -0.0022285
c     0.8993327   -2.0968260   -1.3989002  0.00   -0.0017099    0.0054917   -0.0004178
h     1.9175849   -1.3827338    0.3824765  0.00    0.0005673   -0.0003912    0.0016480
h     2.7257909   -0.9262726   -1.1422170  0.00    0.0013990    0.0001388   -0.0004010
c     1.7865547   -3.2790872   -1.7933845  0.00    0.0294614   -0.0047497   -0.0062611
o     3.0976746   -3.1046945   -2.1752063  0.00   -0.0229898    0.0002917    0.0069174
o     1.2372398   -4.5538074   -1.7860149  0.00   -0.0621488    0.0476873    0.0129169
h     2.0071138   -5.2425241   -1.7749942  0.00    0.0253113   -0.0234789    0.0112964
n    -0.2021996   -2.5543750   -0.5178024  0.00    0.0097175   -0.0063364    0.0053249
h     0.5057505   -1.6942173   -2.3597804  0.00   -0.0014998   -0.0006679    0.0004510
h    -1.1108251   -2.1123672   -0.8094106  0.00   -0.0110975    0.0078217   -0.0026346
h    -0.3486618   -3.5948435   -0.6588103  0.00    0.0327324   -0.0278246   -0.0264784
    24
 Energy =       0.0635656970
c     1.5886384    2.6599584    0.0025763  0.00    0.0029022    0.0062593    0.0025622
c     0.3181871    2.9942719   -0.3525338  0.00   -0.0006124    0.0059907    0.0022409
c    -0.5250858    2.0344125   -0.7985446  0.00   -0.0068370    0.0038319    0.0004452
c     2.0070472    1.3681535   -0.0907796  0.00    0.0055271   -0.0019616    0.0002733
c     1.1653383    0.3911130   -0.5473925  0.00    0.0012157   -0.0054637   -0.0024695
c    -0.1102648    0.7411406   -0.9012306  0.00   -0.0024055   -0.0042869   -0.0016398
o    -0.1451156    4.3117222   -0.2750885  0.00   -0.0021303    0.0008877   -0.0011033
h     0.5512799    4.9701436    0.0565089  0.00    0.0008453   -0.0011143   -0.0002293
h    -0.8179623    0.0142163   -1.2698424  0.00   -0.0010013   -0.0002885   -0.0006139
h     3.0249229    1.1213212    0.2092198  0.00    0.0017278   -0.0006702    0.0002179
h     2.2724790    3.4217576    0.3637593  0.00    0.0007512    0.0005704    0.0002041
h    -1.5364485    2.3155894   -1.0775181  0.00   -0.0016629    0.0004780   -0.0002692
c     1.6914825   -1.0433267   -0.5750357  0.00   -0.0006002   -0.0013474   -0.0023930
c     0.8675931   -2.1046271   -1.3539170  0.00    0.0003752    0.0038475   -0.0015539
h     1.8058666   -1.3956454    0.4783011  0.00    0.0007341   -0.0014798    0.0037778
h     2.7221263   -0.9973887   -1.0044386  0.00    0.0038686    0.0000666   -0.0015539
c     1.7423703   -3.3081427   -1.7211187  0.00    0.0192405   -0.0032143   -0.0040875
o     3.0704544   -3.1539343   -2.0714500  0.00   -0.0140246    0.0002769    0.0044702
o     1.1799930   -4.5785476   -1.7339906  0.00   -0.0435788    0.0327893    0.0089905
h     1.9376102   -5.2708453   -1.7733905  0.00    0.0181264   -0.0168478    0.0078121
n    -0.2840542   -2.5214561   -0.5138532  0.00    0.0092365   -0.0048031    0.0089001
h     0.5251159   -1.6878982   -2.3300454  0.00   -0.0014033    0.0001579   -0.0010086
h    -1.1784922   -2.1134144   -0.8919488  0.00   -0.0131504    0.0083371   -0.0037658
h    -0.4179830   -3.5685461   -0.5906373  0.00    0.0228558   -0.0220155   -0.0192068
    24
 Energy =       0.0614717951
c     1.4812472    2.6605931    0.0831585  0.00    0.0047636    0.0043160    0.0027142
c     0.2295127    2.9742502   -0.3531052  0.00   -0.0005811    0.0049305    0.0014991
c    -0.5635161    2.0045973   -0.8696672  0.00   -0.0068879    0.0009817   -0.0009740
c     1.9303328    1.3799035    0.0022800  0.00    0.0059840    0.0002621    0.0014287
c     1.1394300    0.3934205   -0.5232585  0.00    0.0017715   -0.0046668   -0.0013058
c    -0.1174295    0.7222092   -0.9607730  0.00   -0.0045070   -0.0030010   -0.0021378
o    -0.2656321    4.2810717   -0.2859235  0.00   -0.0045652   -0.0013640   -0.0022766
h     0.3925268    4.9494266    0.1063528  0.00    0.0034052    0.0020953    0.0015423
h    -0.7847083   -0.0133351   -1.3897804  0.00   -0.0027859   -0.0016036   -0.0015301
h     2.9327993    1.1496684    0.3660873  0.00    0.0033704   -0.0002854    0.0010797
h     2.1253576    3.4309510    0.5005383  0.00    0.0023972    0.0017205    0.0011593
h    -1.5606979    2.2697641   -1.2138211  0.00   -0.0034020    0.0003138   -0.0010722
c     1.7024956   -1.0262203   -0.5470990  0.00   -0.0006886   -0.0006685   -0.0005941
c     0.9327060   -2.1039238   -1.3598000  0.00    0.0001113    0.0019182   -0.0018788
h     1.7940847   -1.3843671    0.5052100  0.00    0.0005017   -0.0007805    0.0026178
h     2.7434279   -0.9473652   -0.9440221  0.00    0.0033497    0.0000993   -0.0013263
c     1.8506290   -3.2831141   -1.7055042  0.00    0.0103654   -0.0003163   -0.0025035
o     3.1966353   -3.0901841   -1.9854051  0.00   -0.0040651    0.0013088    0.0020299
o     1.3210615   -4.5668716   -1.7873884  0.00   -0.0297961    0.0190837    0.0060062
h     2.0897781   -5.2353540   -1.8741327  0.00    0.0120936   -0.0122436    0.0048532
n    -0.2415188   -2.5440118   -0.5639756  0.00    0.0045800   -0.0031113    0.0063648
h     0.6187104   -1.6906764   -2.3467163  0.00   -0.0010064    0.0000000   -0.0011338
h    -1.1245180   -2.1415425   -0.9645633  0.00   -0.0084432    0.0051082   -0.0022554
h    -0.3676155   -3.5888621   -0.6510818  0.00    0.0140348   -0.0140972   -0.0123068
    24
 Energy =       0.0603940507
c     1.4304402    2.6586365    0.1078356  0.00    0.0040045    0.0030970    0.0021581
c     0.1928339    2.9645692   -0.3697821  0.00   -0.0003902    0.0036976    0.0010885
c    -0.5697303    1.9937060   -0.9266622  0.00   -0.0053739    0.0001238   -0.0010272
c     1.8951302    1.3843630    0.0293420  0.00    0.0047096    0.0006700    0.0013556
c     1.1343435    0.3967406   -0.5345693  0.00    0.0014652   -0.0034505   -0.0008777
c    -0.1075131    0.7180187   -1.0163044  0.00   -0.0039508   -0.0022086   -0.0017493
o    -0.3185541    4.2651432   -0.3039471  0.00   -0.0038486   -0.0014323   -0.0018823
h     0.3174436    4.9361745    0.1186982  0.00    0.0029822    0.0021434    0.0014756
h    -0.7500304   -0.0184184   -1.4801863  0.00   -0.0025729   -0.0015800   -0.0013924
h     2.8863216    1.1602149    0.4249524  0.00    0.0028200   -0.0001190    0.0009776
h     2.0506979    3.4305835    0.5566528  0.00    0.0021541    0.0016128    0.0011108
h    -1.5558909    2.2527693   -1.3041841  0.00   -0.0029321    0.0001472   -0.0009639
c     1.7177472   -1.0139673   -0.5626193  0.00   -0.0007177   -0.0005830   -0.0002692
c     0.9540745   -2.1049301   -1.3602304  0.00    0.0008671    0.0021421   -0.0024552
h     1.8245017   -1.3681742    0.4889245  0.00    0.0003252   -0.0006049    0.0018321
h     2.7519393   -0.9223040   -0.9722574  0.00    0.0024386    0.0000955   -0.0009245
c     1.8797734   -3.2899952   -1.6686292  0.00    0.0055064    0.0035132    0.0004083
o     3.2004881   -3.0721738   -2.0563578  0.00    0.0046217    0.0053359   -0.0008333
o     1.3906052   -4.5981053   -1.6286353  0.00   -0.0276745    0.0037184    0.0045909
h     2.1704825   -5.2426014   -1.7593084  0.00    0.0101761   -0.0088223    0.0031307
n    -0.2365508   -2.5121075   -0.5716241  0.00    0.0048448    0.0003304    0.0069605
h     0.6596181   -1.7099986   -2.3606281  0.00   -0.0006485    0.0001396   -0.0011485
h    -1.1112612   -2.1467397   -1.0230328  0.00   -0.0079908    0.0050255   -0.0028889
h    -0.3518116   -3.5613764   -0.5898378  0.00    0.0091845   -0.0129918   -0.0086763
    24
 Energy =       0.0601393530
c     1.4009762    2.6688337    0.0789028  0.00    0.0040924    0.0022360    0.0020966
c     0.1880687    2.9733790   -0.4607220  0.00   -0.0009056    0.0028533    0.0005467
c    -0.5532910    1.9974922   -1.0354041  0.00   -0.0051945    0.0008405   -0.0011311
c     1.8615073    1.3909172    0.0453924  0.00    0.0046289   -0.0002079    0.0013817
c     1.1217059    0.3979370   -0.5350508  0.00    0.0019728   -0.0028882   -0.0002403
c    -0.0944294    0.7180617   -1.0808695  0.00   -0.0041354   -0.0015305   -0.0018340
o    -0.3190909    4.2778223   -0.4409554  0.00   -0.0043809   -0.0001604   -0.0019150
h     0.3009192    4.9530401   -0.0023024  0.00    0.0025595    0.0018849    0.0012924
h    -0.7184955   -0.0219592   -1.5625150  0.00   -0.0024009   -0.0010821   -0.0012239
h     2.8325526    1.1682573    0.4905678  0.00    0.0034406   -0.0005185    0.0012800
h     2.0044988    3.4450344    0.5420032  0.00    0.0019804    0.0012092    0.0009953
h    -1.5198035    2.2556912   -1.4629372  0.00   -0.0035340    0.0005628   -0.0012520
c     1.6980694   -1.0163713   -0.5088475  0.00   -0.0005628   -0.0007239   -0.0001906
c     0.9673760   -2.1197339   -1.3206119  0.00    0.0014581    0.0024355   -0.0023922
h     1.7544619   -1.3508304    0.5540464  0.00    0.0004337   -0.0007530    0.0028139
h     2.7514583   -0.9378799   -0.8716526  0.00    0.0030596   -0.0001489   -0.0011956
c     1.9111813   -3.3060478   -1.5718965  0.00    0.0058847    0.0040271    0.0001694
o     3.2260573   -3.0820621   -1.9733641  0.00    0.0035938    0.0042898   -0.0006534
o     1.4510808   -4.6214018   -1.4702139  0.00   -0.0205368   -0.0005515    0.0030991
h     2.2375078   -5.2547667   -1.6012028  0.00    0.0076829   -0.0067277    0.0023374
n    -0.2563226   -2.5135235   -0.5759716  0.00    0.0031710    0.0006571    0.0067446
h     0.7148974   -1.7412921   -2.3394914  0.00   -0.0007296    0.0002931   -0.0019839
h    -1.1089233   -2.1225059   -1.0454254  0.00   -0.0070235    0.0040537   -0.0026620
h    -0.3968641   -3.5580639   -0.6138691  0.00    0.0054454   -0.0100504   -0.0060829
    24
 Energy =       0.0602300960
c     1.3870296    2.6724868    0.0662200  0.00    0.0038169    0.0020351    0.0019535
c     0.1850966    2.9757280   -0.4975631  0.00   -0.0009209    0.0025629    0.0004412
c    -0.5493786    1.9966445   -1.0748745  0.00   -0.0048661    0.0009541   -0.0010666
c     1.8431381    1.3926772    0.0545830  0.00    0.0043392   -0.0003594    0.0013008
c     1.1102671    0.3963260   -0.5283531  0.00    0.0017499   -0.0026006   -0.0002173
c    -0.0946625    0.7151884   -1.0986232  0.00   -0.0038606   -0.0014236   -0.0017199
o    -0.3177751    4.2820441   -0.4998624  0.00   -0.0042019    0.0001118   -0.0017979
h     0.2967697    4.9596925   -0.0576675  0.00    0.0023314    0.0017318    0.0011811
h    -0.7127890   -0.0271204   -1.5834477  0.00   -0.0022046   -0.0009862   -0.0011058
h     2.8049484    1.1712765    0.5197515  0.00    0.0033216   -0.0005624    0.0012455
h     1.9850037    3.4512682    0.5317483  0.00    0.0018227    0.0010847    0.0009134
h    -1.5072144    2.2539053   -1.5217783  0.00   -0.0033873    0.0005987   -0.0012077
c     1.6785986   -1.0206039   -0.4726704  0.00   -0.0007162   -0.0005653   -0.0002322
c     0.9737941   -2.1257280   -1.3057164  0.00    0.0013856    0.0024557   -0.0027116
h     1.6954968   -1.3490949    0.5939343  0.00    0.0004583   -0.0008283    0.0033012
h     2.7456840   -0.9489236   -0.7965949  0.00    0.0035442   -0.0001255   -0.0013179
c     1.9348907   -3.3010935   -1.5429478  0.00    0.0056765    0.0042778    0.0001414
o     3.2408612   -3.0607381   -1.9636002  0.00    0.0036461    0.0041003   -0.0007548
o     1.5021644   -4.6226965   -1.4076943  0.00   -0.0186999   -0.0017060    0.0027510
h     2.2972283   -5.2438456   -1.5409596  0.00    0.0070626   -0.0062014    0.0020898
n    -0.2611170   -2.5353670   -0.5885173  0.00    0.0034722    0.0019689    0.0072611
h     0.7385709   -1.7454171   -2.3279164  0.00   -0.0006870    0.0002347   -0.0019546
h    -1.1049666   -2.1108055   -1.0441038  0.00   -0.0070942    0.0042119   -0.0030723
h    -0.4165403   -3.5757755   -0.6757364  0.00    0.0040115   -0.0109696   -0.0054213
    24
 Energy =       0.0605142778
c     1.3677874    2.6827309    0.0258606  0.00    0.0036419    0.0020856    0.0019034
c     0.1829325    2.9811750   -0.5756559  0.00   -0.0010752    0.0022352    0.0002589
c    -0.5436073    1.9937262   -1.1480934  0.00   -0.0048731    0.0015881   -0.0010894
c     1.8141254    1.3993467    0.0575622  0.00    0.0043402   -0.0009384    0.0013382
c     1.0892665    0.3942388   -0.5201661  0.00    0.0013112   -0.0022548   -0.0003129
c    -0.0981788    0.7083706   -1.1288458  0.00   -0.0037064   -0.0016298   -0.0017019
o    -0.3105105    4.2908990   -0.6215177  0.00   -0.0045179    0.0011751   -0.0018254
h     0.2975148    4.9747650   -0.1801700  0.00    0.0021101    0.0016756    0.0010868
h    -0.7092216   -0.0402702   -1.6118026  0.00   -0.0020327   -0.0009390   -0.0009835
h     2.7612949    1.1822656    0.5543358  0.00    0.0035472   -0.0008108    0.0013804
h     1.9592881    3.4682068    0.4880862  0.00    0.0016970    0.0010068    0.0008562
h    -1.4878899    2.2473915   -1.6253921  0.00   -0.0035452    0.0008310   -0.0012983
c     1.6401323   -1.0273788   -0.4057569  0.00   -0.0013167   -0.0004771   -0.0005755
c     0.9829553   -2.1388934   -1.2715079  0.00    0.0013479    0.0032325   -0.0043079
h     1.5857226   -1.3404994    0.6664145  0.00    0.0004620   -0.0012230    0.0055426
h     2.7295390   -0.9700450   -0.6589250  0.00    0.0058372   -0.0002504   -0.0018356
c     1.9752792   -3.2936027   -1.4809622  0.00    0.0063738    0.0061708   -0.0001171
o     3.2660833   -3.0264903   -1.9324739  0.00    0.0043329    0.0044316   -0.0011915
o     1.5899374   -4.6234695   -1.2823403  0.00   -0.0172495   -0.0055102    0.0027533
h     2.4008818   -5.2243158   -1.4106080  0.00    0.0067772   -0.0060884    0.0018567
n    -0.2666629   -2.5806322   -0.5994004  0.00    0.0064538    0.0068002    0.0118075
h     0.7740706   -1.7586274   -2.2994658  0.00   -0.0007221    0.0000744   -0.0021709
h    -1.0980267   -2.0902454   -1.0140573  0.00   -0.0096786    0.0067070   -0.0053714
h    -0.4476147   -3.6086185   -0.7875083  0.00    0.0004853   -0.0178919   -0.0060029
    24
 Energy =       0.0598428415
c     1.4019454    2.6652018    0.0622259  0.00    0.0019260    0.0012031    0.0010420
c     0.2211992    2.9819672   -0.5336112  0.00   -0.0005438    0.0011753    0.0001492