    24
 Energy =      43.8733803113
c     1.6703672    2.6182922    0.2614132  0.00    0.0361873    0.0887949    0.0346804
c     0.3248649    2.9356558    0.1418766  0.00   -0.0041835    0.1040495    0.0333996
c    -0.5827484    1.9945952   -0.3219261  0.00   -0.0878667    0.0365595   -0.0016298
c     2.1038063    1.3347474   -0.0833024  0.00    0.0674300   -0.0120785    0.0081013
c     1.2047783    0.3610782   -0.5608861  0.00    0.0191025   -0.0953560   -0.0238832
c    -0.1441045    0.7159142   -0.6796715  0.00   -0.0313757   -0.0460862   -0.0209654
o    -0.1504797    4.1703171    0.4675790  0.00    0.0413726   -0.0052771    0.0045182
h     0.5965194    4.7277081    0.7407382  0.00   -0.0326799   -0.0690518   -0.0267406
h    -0.8895274    0.0262790   -1.0546636  0.00   -0.0075377    0.0032822   -0.0022196
h     3.1621727    1.0964802    0.0165124  0.00    0.0023079   -0.0000619   -0.0008157
h     2.3926004    3.3457758    0.6178375  0.00    0.0024727   -0.0014301   -0.0008333
h    -1.6336796    2.2563998   -0.4108671  0.00   -0.0034521   -0.0037327   -0.0011613
c     1.7669373   -1.0073413   -0.8964724  0.00    0.0243318   -0.0050826   -0.0229669
c     0.8861134   -2.0194266   -1.6556448  0.00   -0.0443277   -0.0072319    0.0149372
h     2.1212937   -1.4658931    0.0371405  0.00    0.0007060    0.0096379   -0.0132445
h     2.6645729   -0.8285312   -1.5058794  0.00   -0.0139012   -0.0020435    0.0078632
c     1.7481012   -3.2276699   -2.0845864  0.00    0.3076603   -0.0559032   -0.0816279
o     2.9166907   -3.1880566   -2.4354089  0.00   -0.2806221   -0.0143845    0.0890259
o     1.0176544   -4.3756256   -2.0624861  0.00   -0.2660538    0.2025000    0.1828192
h     0.1502015   -4.1242798   -1.6550103  0.00 -295.7970371  325.1977424  333.2139513
n    -0.2697763   -2.5678537   -0.8742070  0.00    0.1370924   -0.8149969   -0.3913240
h     0.4960411   -1.5757973   -2.5789902  0.00   -0.0109957   -0.0149397    0.0239134
h    -1.1308243   -2.1540904   -1.2498506  0.00    0.0332173   -0.0076055    0.0049417
h    -0.3593670   -3.5651556   -1.0813225  0.00  295.9081524 -324.4873042 -333.0307394
    24
 Energy =       3.6646111341
c     1.6703598    2.6182741    0.2614061  0.00    0.0361806    0.0887491    0.0346574
c     0.3248657    2.9356347    0.1418698  0.00   -0.0042001    0.1039477    0.0333841
c    -0.5827305    1.9945878   -0.3219257  0.00   -0.0877957    0.0365565   -0.0016249
c     2.1037926    1.3347499   -0.0833041  0.00    0.0674033   -0.0120576    0.0080875
c     1.2047744    0.3610976   -0.5608812  0.00    0.0190969   -0.0952961   -0.0238652
c    -0.1440981    0.7159236   -0.6796673  0.00   -0.0313352   -0.0460070   -0.0209723
o    -0.1504881    4.1703182    0.4675781  0.00    0.0413578   -0.0051992    0.0045095
h     0.5965260    4.7277222    0.7407436  0.00   -0.0326683   -0.0690501   -0.0267265
h    -0.8895258    0.0262783   -1.0546632  0.00   -0.0075702    0.0031468   -0.0021669
h     3.1621723    1.0964802    0.0165126  0.00    0.0023047   -0.0000640   -0.0008051
h     2.3925999    3.3457761    0.6178376  0.00    0.0024771   -0.0014190   -0.0008235
h    -1.6336789    2.2564006   -0.4108669  0.00   -0.0034740   -0.0037634   -0.0011540
c     1.7669324   -1.0073403   -0.8964677  0.00    0.0244242   -0.0051653   -0.0230427
c     0.8861225   -2.0194251   -1.6556479  0.00   -0.0383956    0.0203689    0.0184228
h     2.1212935   -1.4658950    0.0371432  0.00    0.0005837    0.0096832   -0.0131772
h     2.6645758   -0.8285307   -1.5058810  0.00   -0.0139165   -0.0019904    0.0078956
c     1.7480385   -3.2276585   -2.0845698  0.00    0.3279311   -0.0572479   -0.0911083
o     2.9167478   -3.1880537   -2.4354270  0.00   -0.2810050   -0.0145762    0.0886004
o     1.0177086   -4.3756668   -2.0625234  0.00   -0.3003268    0.1860316    0.1688710
h     0.2104225   -4.1904865   -1.7228489  0.00  -18.5667665   20.8304890   21.1160993
n    -0.2698042   -2.5676878   -0.8741273  0.00    0.0533259   -0.5753877   -0.2462647
h     0.4960433   -1.5757943   -2.5789951  0.00   -0.0111050   -0.0146274    0.0239907
h    -1.1308311   -2.1540889   -1.2498516  0.00    0.0303552   -0.0122145    0.0042780
h    -0.4196107   -3.4990936   -1.0135211  0.00   18.7731184  -20.3649070  -21.0570649
    24
 Energy =       2.2040625334
c     1.7180831    2.5623095    0.2560308  0.00    0.0138139    0.0387098    0.0141954
c     0.3980684    2.9080883    0.1436615  0.00   -0.0016220    0.0441238    0.0138768
c    -0.5048124    2.0043947   -0.3381627  0.00   -0.0374490    0.0148460   -0.0005805
c     2.1273794    1.3000969   -0.1028351  0.00    0.0287494   -0.0043192    0.0035350
c     1.2267239    0.3716046   -0.5943079  0.00    0.0082293   -0.0404894   -0.0096516
c    -0.0950911    0.7483243   -0.7155769  0.00   -0.0128242   -0.0201281   -0.0079656
o    -0.0548460    4.1618808    0.5110656  0.00    0.0151876   -0.0033036    0.0040292
h     0.7019821    4.7662415    0.7482394  0.00   -0.0113471   -0.0289518   -0.0123242
h    -0.8457952    0.0856100   -1.1132401  0.00   -0.0040899   -0.0007482   -0.0004625
h     3.1785042    1.0382668    0.0080497  0.00    0.0013801    0.0000722   -0.0002298
h     2.4447987    3.2707804    0.6411859  0.00    0.0013314   -0.0002962    0.0002062
h    -1.5484424    2.2917778   -0.4233333  0.00   -0.0018938   -0.0018083   -0.0001583
c     1.7539872   -1.0174460   -0.9340687  0.00    0.0103652   -0.0015490   -0.0097033
c     0.8371936   -2.0099971   -1.6922360  0.00   -0.0115334    0.0062480    0.0021428
h     2.0760261   -1.4976026    0.0103991  0.00    0.0004390    0.0035853   -0.0056943
h     2.6713233   -0.8702528   -1.5392687  0.00   -0.0054527   -0.0005637    0.0026143
c     1.6337790   -3.2390231   -2.1189780  0.00    0.1369739   -0.0194393   -0.0441674
o     2.9042016   -3.2115213   -2.4717517  0.00   -0.1187798   -0.0084536    0.0419619
o     0.9391974   -4.4227077   -2.0266113  0.00   -0.1521957    0.0896217    0.0891571
h     0.0875399   -4.2235593   -1.6553097  0.00  -10.6336000   11.9145658   12.0812414
n    -0.2940784   -2.4776234   -0.8358539  0.00    0.0646975   -0.2584490   -0.1293566
h     0.4469731   -1.5571473   -2.6233374  0.00   -0.0053902   -0.0073550    0.0099022
h    -1.1688838   -1.9953358   -1.1273490  0.00    0.0053472    0.0011719    0.0005245
h    -0.5716032   -3.5036371   -0.9144894  0.00   10.7096634  -11.7170900  -12.0430926
    24
 Energy =       1.2486471127
c     1.7272690    2.5170538    0.2759396  0.00    0.0069539    0.0120168    0.0045614
c     0.4341943    2.9181616    0.1266955  0.00    0.0011037    0.0142679    0.0047486
c    -0.4861571    2.0531198   -0.3764306  0.00   -0.0127923    0.0048059    0.0008437
c     2.0922183    1.2564938   -0.0768012  0.00    0.0112283   -0.0013669    0.0005463
c     1.1733692    0.3767617   -0.5885775  0.00    0.0034453   -0.0136975   -0.0044549
c    -0.1220124    0.7871897   -0.7401109  0.00   -0.0046825   -0.0077595   -0.0032628
o     0.0294654    4.2053051    0.4796552  0.00   -0.0184290   -0.0122452   -0.0120623
h     0.7890421    4.7550660    0.8989022  0.00    0.0210530    0.0038146    0.0087950
h    -0.8753070    0.1279920   -1.1513943  0.00   -0.0015715   -0.0023406   -0.0010622
h     3.1319207    0.9547708    0.0515975  0.00    0.0019423   -0.0009124   -0.0005254
h     2.4744670    3.1951019    0.6782334  0.00    0.0023913   -0.0005425    0.0007559
h    -1.5129792    2.3880681   -0.4869886  0.00   -0.0013787    0.0004158    0.0004804
c     1.6757004   -1.0051152   -0.9496542  0.00    0.0033685   -0.0006598   -0.0054190
c     0.7686632   -2.0145661   -1.7000124  0.00   -0.0075724    0.0047393    0.0028599
h     2.0580396   -1.4937288   -0.0263015  0.00    0.0030402    0.0005857   -0.0031750
h     2.5629889   -0.8193613   -1.6015113  0.00   -0.0011556   -0.0009853   -0.0045106
c     1.6518787   -3.1948077   -2.1155688  0.00    0.0211413   -0.0024946   -0.0216662
o     3.0110834   -3.0527681   -2.3256668  0.00   -0.0155323    0.0036225    0.0215763
o     1.0869926   -4.4540168   -2.0432035  0.00   -0.0453289    0.0247486    0.0372291
h     0.1558704   -4.3236713   -1.7048978  0.00   -5.5401159    6.1829024    6.2729952
n    -0.3558936   -2.5096879   -0.8412919  0.00    0.0220678   -0.1206519   -0.0606876
h     0.3784651   -1.5696761   -2.6420043  0.00   -0.0032722   -0.0035857    0.0029238
h    -1.2492866   -2.0468691   -1.1234118  0.00    0.0005595    0.0041780    0.0016049
h    -0.5377840   -3.5672939   -0.9252740  0.00    5.5535363   -6.0888554   -6.2430944
    24
 Energy =       1.1098653464
c     1.6727193    2.5303075    0.2986693  0.00    0.0064949    0.0104287    0.0041433
c     0.3807326    2.9165852    0.1049386  0.00    0.0006130    0.0123571    0.0041043
c    -0.5141466    2.0365756   -0.4147961  0.00   -0.0118149    0.0044139    0.0006533
c     2.0613756    1.2689940   -0.0258720  0.00    0.0102516   -0.0013462    0.0006239
c     1.1682268    0.3739851   -0.5551217  0.00    0.0023009   -0.0118548   -0.0041410
c    -0.1265576    0.7706808   -0.7500152  0.00   -0.0046762   -0.0069094   -0.0031260
o    -0.0496450    4.2041630    0.4293219  0.00   -0.0169519   -0.0100251   -0.0104046
h     0.6911638    4.7725377    0.8533212  0.00    0.0183507    0.0036200    0.0078928
h    -0.8629669    0.1010052   -1.1728231  0.00   -0.0016106   -0.0021639   -0.0011986
h     3.0990703    0.9787193    0.1423761  0.00    0.0024832   -0.0010103   -0.0002935
h     2.3993902    3.2214066    0.7163599  0.00    0.0023207   -0.0002761    0.0008980
h    -1.5410059    2.3593768   -0.5610644  0.00   -0.0019662    0.0005473    0.0002471
c     1.6892317   -1.0168721   -0.8666229  0.00    0.0009485    0.0004531   -0.0045418
c     0.8215788   -2.0086390   -1.6868507  0.00   -0.0064728    0.0040692    0.0007751
h     1.9847241   -1.5089739    0.0899623  0.00    0.0040054   -0.0007526    0.0007977
h     2.6342289   -0.8459521   -1.4427582  0.00    0.0026761    0.0001023   -0.0063146
c     1.7149872   -3.1760661   -2.1168655  0.00    0.0196562    0.0002371   -0.0188582
o     3.0753302   -3.0203919   -2.3179190  0.00   -0.0130488    0.0028945    0.0187004
o     1.1484640   -4.4414089   -2.1162333  0.00   -0.0384475    0.0187267    0.0318625
h     0.1962352   -4.3389507   -1.8082616  0.00   -4.8308890    5.3870194    5.4670154
n    -0.3277151   -2.5270501   -0.8788770  0.00    0.0189434   -0.1037806   -0.0508056
h     0.4639869   -1.5319868   -2.6277379  0.00   -0.0029147   -0.0028208    0.0015200
h    -1.2129433   -2.0609669   -1.1803670  0.00    0.0000939    0.0035252    0.0012788
h    -0.5042568   -3.5735561   -1.0208415  0.00    4.8396542   -5.3074549   -5.4408286
    24
 Energy =       0.9779029878
c     1.6344933    2.5404717    0.3124024  0.00    0.0058877    0.0088347    0.0036856
c     0.3475716    2.9197926    0.0759658  0.00    0.0001621    0.0104883    0.0034631
c    -0.5280776    2.0300602   -0.4564502  0.00   -0.0106404    0.0040685    0.0005221
c     2.0367272    1.2758700    0.0181573  0.00    0.0091029   -0.0013424    0.0006465
c     1.1628662    0.3706780   -0.5243947  0.00    0.0013379   -0.0098901   -0.0038174
c    -0.1271989    0.7615661   -0.7609516  0.00   -0.0044631   -0.0059574   -0.0028748
o    -0.0979226    4.2105754    0.3695880  0.00   -0.0152104   -0.0080233   -0.0088090
h     0.6280099    4.7928521    0.7964646  0.00    0.0156159    0.0032704    0.0068927
h    -0.8513520    0.0856118   -1.1920518  0.00   -0.0015187   -0.0018863   -0.0012462
h     3.0692340    0.9909474    0.2246007  0.00    0.0028031   -0.0010863   -0.0000724
h     2.3454642    3.2403023    0.7422234  0.00    0.0021082   -0.0001595    0.0009493
h    -1.5517246    2.3469692   -0.6368867  0.00   -0.0023110    0.0006496    0.0000522
c     1.6901710   -1.0317132   -0.7847898  0.00   -0.0007600    0.0013465   -0.0038975
c     0.8661777   -2.0072678   -1.6699388  0.00   -0.0046793    0.0035009   -0.0010759
h     1.8983261   -1.5244394    0.1973092  0.00    0.0044444   -0.0018863    0.0041900
h     2.6843772   -0.8819738   -1.2840051  0.00    0.0059546    0.0006317   -0.0073734
c     1.7689047   -3.1727523   -2.0887651  0.00    0.0183081    0.0028454   -0.0161739
o     3.1397046   -3.0216426   -2.2328102  0.00   -0.0088388    0.0032025    0.0159191
o     1.1878359   -4.4340954   -2.1707395  0.00   -0.0320868    0.0128202    0.0266374
h     0.2109308   -4.3426494   -1.9182941  0.00   -4.1555787    4.6277937    4.6981802
n    -0.3211834   -2.5330121   -0.9252836  0.00    0.0157942   -0.0883125   -0.0407811
h     0.5559427   -1.5075294   -2.6173981  0.00   -0.0027253   -0.0020177   -0.0000464
h    -1.1897795   -2.0576504   -1.2600245  0.00   -0.0010737    0.0031700    0.0006840
h    -0.4972903   -3.5674488   -1.1220056  0.00    4.1583671   -4.5620608   -4.6756541
    24
 Energy =       0.7909590687
c     1.6013344    2.5328463    0.3567629  0.00    0.0060085    0.0060650    0.0031446
c     0.3311471    2.9194453    0.0474731  0.00   -0.0007732    0.0079648    0.0023444
c    -0.5215785    2.0309679   -0.5193881  0.00   -0.0093274    0.0034068    0.0000507
c     2.0096572    1.2620598    0.0994912  0.00    0.0081460   -0.0012725    0.0008503
c     1.1590433    0.3583317   -0.4791714  0.00    0.0017320   -0.0079883   -0.0030132
c    -0.1149820    0.7577789   -0.7873506  0.00   -0.0048751   -0.0042762   -0.0027818
o    -0.1210711    4.2179023    0.2996088  0.00   -0.0127478   -0.0050967   -0.0067055
h     0.5877928    4.8106849    0.7348845  0.00    0.0116043    0.0027447    0.0051694
h    -0.8231384    0.0859017   -1.2502266  0.00   -0.0016932   -0.0014938   -0.0014790
h     3.0281806    0.9719855    0.3642668  0.00    0.0037655   -0.0012193    0.0004989
h     2.2933447    3.2334557    0.8156107  0.00    0.0021682   -0.0000206    0.0010656
h    -1.5323882    2.3538388   -0.7595405  0.00   -0.0035745    0.0010168   -0.0005932
c     1.6846611   -1.0543918   -0.7012085  0.00   -0.0023819    0.0019862   -0.0025867
c     0.8881924   -2.0006951   -1.6424944  0.00   -0.0044391    0.0034086   -0.0016120
h     1.8097647   -1.5537968    0.2929869  0.00    0.0037370   -0.0027245    0.0060119
h     2.7167133   -0.9269512   -1.1252520  0.00    0.0075369    0.0019877   -0.0061693
c     1.7936090   -3.1434426   -2.1206110  0.00    0.0112185    0.0054439   -0.0104412
o     3.1557429   -2.9613293   -2.3219783  0.00   -0.0034784    0.0001602    0.0112769
o     1.2253480   -4.4079136   -2.2803846  0.00   -0.0216601    0.0050979    0.0181585
h     0.2457652   -4.3620303   -2.0088282  0.00   -3.2100837    3.5702455    3.6260373
n    -0.2986048   -2.5553606   -0.9249546  0.00    0.0130874   -0.0642792   -0.0280456
h     0.5845962   -1.4594671   -2.5703123  0.00   -0.0017980   -0.0008192   -0.0009073
h    -1.1647679   -2.0560105   -1.2304725  0.00   -0.0015222    0.0031324   -0.0004483
h    -0.4761537   -3.5702881   -1.1969891  0.00    3.2093501   -3.5234705   -3.6098253
    24
 Energy =       0.7026880781
c     1.6056435    2.5400759    0.3326340  0.00    0.0050845    0.0052728    0.0026759
c     0.3364877    2.9239492    0.0191011  0.00   -0.0006217    0.0067650    0.0019712
c    -0.5179982    2.0283181   -0.5318721  0.00   -0.0079881    0.0029356   -0.0000036
c     2.0119451    1.2653305    0.0934289  0.00    0.0069816   -0.0011197    0.0007186
c     1.1599507    0.3548924   -0.4708196  0.00    0.0014119   -0.0069145   -0.0026391
c    -0.1144819    0.7510428   -0.7802923  0.00   -0.0041072   -0.0038665   -0.0024950
o    -0.1131633    4.2274395    0.2503964  0.00   -0.0109879   -0.0041352   -0.0057984
h     0.5953512    4.8278929    0.6732364  0.00    0.0099404    0.0024882    0.0044006
h    -0.8258460    0.0728850   -1.2300033  0.00   -0.0013809   -0.0013514   -0.0014636
h     3.0304098    0.9783079    0.3594072  0.00    0.0032001   -0.0010157    0.0004274
h     2.2989005    3.2473292    0.7788621  0.00    0.0018724    0.0001002    0.0009100
h    -1.5282166    2.3490168   -0.7753871  0.00   -0.0030527    0.0008749   -0.0005631
c     1.6825550   -1.0614671   -0.6809657  0.00   -0.0020077    0.0015192   -0.0017040
c     0.8727029   -2.0046948   -1.6134332  0.00   -0.0037519    0.0035220   -0.0014154
h     1.8020156   -1.5541989    0.3161444  0.00    0.0031310   -0.0023998    0.0051004
h     2.7158613   -0.9447698   -1.1010543  0.00    0.0063929    0.0021699   -0.0049540
c     1.7787144   -3.1178797   -2.1609814  0.00    0.0020801    0.0034980   -0.0068864
o     3.1158788   -2.8820506   -2.4807315  0.00    0.0075482    0.0006208    0.0065307
o     1.2407604   -4.3977277   -2.3101860  0.00   -0.0138569    0.0036375    0.0136091
h     0.2770698   -4.3979151   -1.9753353  0.00   -2.7716809    3.0767655    3.1269150
n    -0.2727835   -2.5909366   -0.8551008  0.00    0.0122723   -0.0567468   -0.0208434
h     0.5214833   -1.4511699   -2.5183189  0.00   -0.0019259    0.0001825   -0.0018617
h    -1.1579484   -2.0833167   -1.0924088  0.00   -0.0047109    0.0045523   -0.0011331
h    -0.4530838   -3.5968315   -1.1543978  0.00    2.7661574   -3.0373548   -3.1114980
    24
 Energy =       0.5496421102
c     1.5978856    2.5324978    0.3527173  0.00    0.0038059    0.0034821    0.0018549
c     0.3398949    2.9220621    0.0078409  0.00   -0.0005827    0.0046480    0.0012745
c    -0.5040259    2.0307650   -0.5624470  0.00   -0.0057141    0.0019555   -0.0001010
c     2.0035443    1.2560721    0.1254778  0.00    0.0050234   -0.0007263    0.0005479
c     1.1621524    0.3498161   -0.4580883  0.00    0.0012221   -0.0048125   -0.0017140
c    -0.1017945    0.7526061   -0.7990320  0.00   -0.0031356   -0.0026120   -0.0018202
o    -0.1095670    4.2280376    0.2260304  0.00   -0.0076851   -0.0027227   -0.0039858
h     0.5899235    4.8312925    0.6551195  0.00    0.0067300    0.0017470    0.0028991
h    -0.8068590    0.0803132   -1.2668585  0.00   -0.0009161   -0.0007030   -0.0013062
h     3.0136107    0.9649767    0.4150958  0.00    0.0024591   -0.0007155    0.0003617
h     2.2826720    3.2379504    0.8138047  0.00    0.0013964    0.0001277    0.0006451
h    -1.5055844    2.3562920   -0.8317226  0.00   -0.0024490    0.0006550   -0.0005225
c     1.6844842   -1.0686805   -0.6623569  0.00   -0.0013461    0.0008801   -0.0008734
c     0.8686947   -2.0103342   -1.5900385  0.00   -0.0024975    0.0028488   -0.0014600
h     1.7956145   -1.5576661    0.3356769  0.00    0.0020850   -0.0016726    0.0034178
h     2.7192043   -0.9603103   -1.0742679  0.00    0.0043369    0.0017135   -0.0032049
c     1.7691245   -3.0994292   -2.1956884  0.00   -0.0008615    0.0034749   -0.0033924
o     3.0852085   -2.8293874   -2.5721004  0.00    0.0080083   -0.0002711    0.0032206
o     1.2410600   -4.3789407   -2.3913916  0.00   -0.0073580    0.0006897    0.0078225
h     0.2860576   -4.4174426   -2.0314198  0.00   -2.0072914    2.2250927    2.2630973
n    -0.2412105   -2.6231748   -0.8052289  0.00    0.0169270   -0.0381079   -0.0067875
h     0.4817506   -1.4490611   -2.4752225  0.00   -0.0016023    0.0007630   -0.0018969
h    -1.1270141   -2.0690252   -0.9336557  0.00   -0.0121721    0.0090699   -0.0020872
h    -0.4626188   -3.5957075   -1.1903222  0.00    2.0016174   -2.2048041   -2.2559893
    24
 Energy =       0.3799392270
c     1.5776022    2.5409413    0.3452586  0.00    0.0020139    0.0015856    0.0010175
c     0.3108437    2.9143655    0.0216041  0.00   -0.0003042    0.0022549    0.0006250
c    -0.5322614    2.0109207   -0.5266278  0.00   -0.0027994    0.0008423   -0.0001979
c     1.9934376    1.2688671    0.1167473  0.00    0.0025413   -0.0002848    0.0004474
c     1.1528915    0.3512528   -0.4469950  0.00    0.0009874   -0.0022931   -0.0008380
c    -0.1223659    0.7364430   -0.7590500  0.00   -0.0018494   -0.0010628   -0.0009619
o    -0.1502622    4.2159835    0.2425498  0.00   -0.0038898   -0.0012567   -0.0020168
h     0.5431224    4.8310302    0.6595936  0.00    0.0032118    0.0008901    0.0015070
h    -0.8325281    0.0501717   -1.1968440  0.00   -0.0007943   -0.0000072   -0.0008742
h     3.0101897    0.9907014    0.3910280  0.00    0.0013243   -0.0003570    0.0002982
h     2.2609852    3.2570544    0.7906806  0.00    0.0007471    0.0001348    0.0004257
h    -1.5423446    2.3223181   -0.7764746  0.00   -0.0014736    0.0003297   -0.0004165
c     1.6774136   -1.0677193   -0.6471943  0.00   -0.0014148    0.0008052   -0.0001784
c     0.8781848   -1.9936907   -1.6050281  0.00   -0.0029013    0.0011998   -0.0022214
h     1.7493840   -1.5612877    0.3504969  0.00    0.0010758   -0.0010184    0.0021894
h     2.7257721   -0.9707289   -1.0206677  0.00    0.0027301    0.0013825   -0.0013976
c     1.7961003   -3.0546261   -2.2419428  0.00   -0.0072556    0.0017856    0.0026502
o     3.0596819   -2.6992341   -2.7308535  0.00    0.0161002    0.0039621   -0.0032476
o     1.3470913   -4.3745394   -2.3895435  0.00   -0.0014928   -0.0035860    0.0015662
h     0.4141348   -4.4924998   -1.9898949  0.00   -1.1888550    1.3081996    1.3353949
n    -0.2355711   -2.6092216   -0.8319829  0.00    0.0230220   -0.0116718    0.0053804
h     0.4962347   -1.4098435   -2.4770666  0.00   -0.0006651    0.0003322   -0.0013683
h    -1.1509001   -2.1364911   -1.0725040  0.00   -0.0188053    0.0124031   -0.0037221
h    -0.3646280   -3.6366459   -1.1133672  0.00    1.1787467   -1.3145699   -1.3340612
    24
 Energy =       0.3004374092
c     1.4827613    2.5335814    0.4264317  0.00    0.0026232    0.0024248    0.0015652
c     0.2238005    2.8893441    0.0552481  0.00    0.0003890    0.0023835    0.0008888
c    -0.5725303    1.9854768   -0.5626270  0.00   -0.0033137   -0.0004743   -0.0010776
c     1.9372820    1.2784605    0.1764886  0.00    0.0031839    0.0010962    0.0013983
c     1.1442184    0.3605747   -0.4556159  0.00    0.0000523   -0.0020051   -0.0014011
c    -0.1234453    0.7284224   -0.8185551  0.00   -0.0025526   -0.0021475   -0.0014720
o    -0.2765429    4.1736543    0.2964188  0.00   -0.0038257   -0.0008556   -0.0017646
h     0.3843692    4.7936894    0.7581260  0.00    0.0035063    0.0022702    0.0019766
h    -0.7970890    0.0433694   -1.3170838  0.00   -0.0021092   -0.0016110   -0.0017719
h     2.9476710    1.0142124    0.4867293  0.00    0.0016871    0.0000493    0.0006282
h     2.1291231    3.2509001    0.9260758  0.00    0.0018311    0.0015730    0.0012574
h    -1.5767366    2.2830941   -0.8511966  0.00   -0.0018786    0.0000122   -0.0006989
c     1.7200959   -1.0345935   -0.6903177  0.00   -0.0020994   -0.0006627   -0.0005984
c     0.9301383   -1.9878585   -1.6271485  0.00   -0.0019811    0.0008372   -0.0014891
h     1.8429843   -1.5358084    0.2990955  0.00    0.0007410   -0.0015012    0.0024087
h     2.7509007   -0.8886049   -1.0972212  0.00    0.0034584    0.0011080   -0.0015158
c     1.8619548   -3.0434570   -2.2530740  0.00   -0.0046138    0.0011453    0.0017552
o     3.1108662   -2.6692023   -2.7554453  0.00    0.0103145    0.0025390   -0.0020456
o     1.4416849   -4.3727253   -2.3889754  0.00   -0.0010802   -0.0026760    0.0009436
h     0.5142095   -4.5129619   -1.9924481  0.00   -0.8112305    0.8930938    0.9115158
n    -0.1728686   -2.6002389   -0.8380911  0.00    0.0145875   -0.0074326    0.0035196
h     0.5386842   -1.4237875   -2.5073746  0.00   -0.0005161    0.0004140   -0.0010193
h    -1.0912271   -2.1496674   -1.0879449  0.00   -0.0118315    0.0078673   -0.0022739
h    -0.2880961   -3.6323521   -1.0895725  0.00    0.8046578   -0.8974475   -0.9107293
    24
 Energy =       0.2527092360
c     1.3887838    2.5113676    0.5182351  0.00    0.0026240    0.0036434    0.0021538
c     0.1372284    2.8538473    0.1119246  0.00    0.0011104    0.0025861    0.0013230
c    -0.6116399    1.9592493   -0.5783040  0.00   -0.0036240   -0.0011199   -0.0015991
c     1.8828341    1.2783822    0.2323960  0.00    0.0036025    0.0018873    0.0020942
c     1.1373402    0.3696398   -0.4697562  0.00   -0.0012358   -0.0015295   -0.0020564
c    -0.1219286    0.7250785   -0.8729710  0.00   -0.0025522   -0.0036361   -0.0020380
o    -0.4029626    4.1157274    0.3884112  0.00   -0.0040198   -0.0002246   -0.0015744
h     0.2256161    4.7329124    0.8982846  0.00    0.0039041    0.0035096    0.0026774
h    -0.7570095    0.0495102   -1.4352670  0.00   -0.0030078   -0.0030151   -0.0027388
h     2.8877276    1.0249480    0.5682982  0.00    0.0016768    0.0003027    0.0007751
h     1.9981707    3.2222346    1.0732997  0.00    0.0024652    0.0027293    0.0020015
h    -1.6098545    2.2468604   -0.8960848  0.00   -0.0018755   -0.0002398   -0.0008101
c     1.7680174   -0.9931058   -0.7575654  0.00   -0.0034935   -0.0019921   -0.0015028
c     0.9788669   -1.9772795   -1.6612155  0.00   -0.0014307    0.0007527   -0.0013335
h     1.9661524   -1.5029088    0.2174076  0.00    0.0009494   -0.0027359    0.0039543
h     2.7685151   -0.7882158   -1.2169848  0.00    0.0054968    0.0014136   -0.0023821
c     1.9215680   -3.0276370   -2.2796770  0.00   -0.0033053    0.0007181    0.0013132
o     3.1576850   -2.6382108   -2.7971511  0.00    0.0073491    0.0018292   -0.0015095
o     1.5252354   -4.3645959   -2.4016973  0.00   -0.0009182   -0.0021687    0.0006460
h     0.6040376   -4.5219007   -2.0035163  0.00   -0.5898481    0.6498632    0.6630741
n    -0.1033022   -2.5879217   -0.8430539  0.00    0.0097144   -0.0056314    0.0027418
h     0.5672295   -1.4380175   -2.5475751  0.00   -0.0005034    0.0006436   -0.0011066
h    -1.0268969   -2.1456127   -1.0772782  0.00   -0.0082868    0.0052772   -0.0015920
h    -0.2192056   -3.6208296   -1.0782373  0.00    0.5852083   -0.6528629   -0.6625109
    24
 Energy =       0.1846060467
c     1.3405035    2.4705777    0.6064677  0.00    0.0006098    0.0020327    0.0008575
c     0.0911264    2.8135186    0.1987697  0.00    0.0007000    0.0008688    0.0005170
c    -0.6356345    1.9386073   -0.5333653  0.00   -0.0014000   -0.0003263   -0.0005411
c     1.8546085    1.2568493    0.2796638  0.00    0.0014012    0.0005768    0.0007120
c     1.1307941    0.3681586   -0.4641543  0.00   -0.0009015   -0.0007187   -0.0008529
c    -0.1260072    0.7241784   -0.8683058  0.00   -0.0005871   -0.0021119   -0.0008405
o    -0.4690816    4.0564361    0.5161008  0.00   -0.0017580    0.0006218   -0.0003506
h     0.1423095    4.6611649    1.0570377  0.00    0.0015932    0.0018421    0.0011792
h    -0.7437156    0.0632731   -1.4616194  0.00   -0.0011026   -0.0013643   -0.0009854
h     2.8581971    1.0033618    0.6160017  0.00    0.0004921    0.0001358    0.0002212
h     1.9325033    3.1664635    1.1944411  0.00    0.0009946    0.0014188    0.0008601
h    -1.6323902    2.2261818   -0.8516590  0.00   -0.0005141   -0.0000795   -0.0001872
c     1.7840216   -0.9704853   -0.8029060  0.00   -0.0012300   -0.0013996   -0.0009754
c     1.0006705   -1.9452861   -1.7194504  0.00   -0.0007853    0.0000041   -0.0010728
h     2.0061121   -1.5014073    0.1523034  0.00    0.0002125   -0.0010924    0.0016268
h     2.7690640   -0.7341814   -1.2718061  0.00    0.0019908    0.0002516   -0.0009850
c     1.9547349   -2.9818075   -2.3477620  0.00   -0.0016180    0.0012101    0.0013043
o     3.1591213   -2.5533379   -2.9027263  0.00    0.0039943    0.0013729   -0.0011103
o     1.6151036   -4.3363087   -2.4475328  0.00   -0.0000710   -0.0022466   -0.0003188
h     0.7081897   -4.5450307   -2.0502954  0.00   -0.2841825    0.3123805    0.3195675
n    -0.0928733   -2.5477887   -0.9124458  0.00    0.0089745   -0.0000246    0.0042940
h     0.5986225   -1.3926384   -2.6013405  0.00   -0.0001084    0.0001421   -0.0005160
h    -1.0203639   -2.1623849   -1.2209646  0.00   -0.0080349    0.0047042   -0.0020179
h    -0.1634080   -3.5945925   -1.0725298  0.00    0.2813305   -0.3181985   -0.3203856
    24
 Energy =       0.1643716532
c     1.2752190    2.4273170    0.7025689  0.00    0.0005197    0.0026907    0.0013012
c     0.0310959    2.7692506    0.2783463  0.00    0.0010004    0.0010011    0.0008205
c    -0.6639268    1.9156770   -0.5092824  0.00   -0.0016212   -0.0005902   -0.0008690
c     1.8158176    1.2358922    0.3367956  0.00    0.0016191    0.0008403    0.0010648
c     1.1235646    0.3686779   -0.4616299  0.00   -0.0013714   -0.0009501   -0.0011122
c    -0.1275315    0.7239980   -0.8834879  0.00   -0.0004828   -0.0028577   -0.0013173
o    -0.5554436    3.9899385    0.6341699  0.00   -0.0020929    0.0007820   -0.0004683
h     0.0331493    4.5802953    1.2157908  0.00    0.0019410    0.0025444    0.0018398
h    -0.7196269    0.0795276   -1.5211699  0.00   -0.0013591   -0.0019718   -0.0014705
h     2.8153181    0.9834347    0.6855903  0.00    0.0004681    0.0002693    0.0003102
h     1.8421428    3.1066382    1.3342105  0.00    0.0012479    0.0019680    0.0013640
h    -1.6566079    2.2022422   -0.8406665  0.00   -0.0004690   -0.0001795   -0.0002508
c     1.8082218   -0.9413174   -0.8487358  0.00   -0.0013679   -0.0020530   -0.0013878
c     1.0356245   -1.9122092   -1.7767700  0.00   -0.0004526   -0.0002181   -0.0011808
h     2.0598632   -1.4924872    0.0875383  0.00    0.0001908   -0.0012892    0.0016168
h     2.7773971   -0.6654222   -1.3293726  0.00    0.0020546    0.0002530   -0.0012270
c     2.0018063   -2.9417594   -2.3993687  0.00   -0.0009267    0.0015212    0.0010823
o     3.1924037   -2.4937497   -2.9667001  0.00    0.0028710    0.0011129   -0.0008123
o     1.6985824   -4.3064423   -2.4764171  0.00   -0.0000392   -0.0024260   -0.0004115
h     0.7986744   -4.5405127   -2.0821864  0.00   -0.1959479    0.2153639    0.2205576
n    -0.0727610   -2.5092734   -0.9862049  0.00    0.0103461    0.0028519    0.0063362
h     0.6473338   -1.3522822   -2.6603739  0.00   -0.0000188    0.0000990   -0.0005318
h    -0.9981742   -2.1781273   -1.3629272  0.00   -0.0102598    0.0054282   -0.0033017
h    -0.0999344   -3.5657841   -1.0777951  0.00    0.1941506   -0.2241902   -0.2219523
    24
 Energy =       0.1479253286
c     1.1774643    2.3924959    0.7778969  0.00    0.0009136    0.0028740    0.0017984
c    -0.0567175    2.7259624    0.3181340  0.00    0.0010538    0.0012463    0.0010975