    27
 Energy =       1.4257344657
c    -1.4235396    2.6054793   -0.0667700  0.00   -0.0462093    0.0382562    0.0029176
c    -1.3072796    1.2134697   -0.1072300  0.00   -0.0851743   -0.0327102    0.0021737
c    -0.0178900    0.6711998   -0.1697000  0.00   -0.0883145   -0.1873888   -0.0018087
c    -0.2940599    3.4190890   -0.0891300  0.00   -0.0231200    0.0690869    0.0030617
c     0.9872197    2.8590292   -0.1560400  0.00    0.0103542    0.0645781    0.0011332
c     1.1340797    1.4562096   -0.1970299  0.00    0.0760130    0.0411041    0.0193878
n     0.3879399   -0.6395298   -0.2140799  0.00    0.1438213    0.1077263    0.0001718
c     2.2666594    0.5727398   -0.2659299  0.00    2.7370764    0.1136597    6.0543844
c     1.7555995   -0.7123598   -0.2706899  0.00   -0.0502574   -0.0584063    0.0648416
h    -0.2400399   -1.4313496   -0.2047299  0.00    0.0355260    0.0474984   -0.0018451
c     3.7030089    1.0223397   -0.3320099  0.00   -0.7239814   -0.3843582    1.3771043
c     4.7465686   -0.0024900    0.1378100  0.00   -0.1514124    0.0778826   -0.0667414
h     3.7978489    1.9290294    0.2803699  0.00   -0.0506457   -0.0844310    0.0394264
h     3.9233889    1.3348996   -1.3618196  0.00   -0.0056132    0.0001587    0.0157876
c     4.2682788   -0.6309508    1.4598596  0.00    0.1581750   -0.2388812    0.2199009
n     6.1061283    0.5956748    0.3870399  0.00    0.0832469    0.0151860    0.0663315
h     4.8578986   -0.8184518   -0.5859768  0.00    0.0061238    0.0153458    0.0123235
h     6.0567283    1.5811395    0.1086060  0.00   -0.0216924   -0.0345384    0.0118505
h     6.2469182    0.6340138    1.4027096  0.00   -0.0376960   -0.0148801   -0.0353932
h    -2.4108593    3.0588691   -0.0157800  0.00   -0.0007761    0.0002455   -0.0000999
h    -2.1896094    0.5822398   -0.0890100  0.00   -0.0036799    0.0038077   -0.0001528
h    -0.4052699    4.5000487   -0.0535400  0.00    0.0008523    0.0002538    0.0001519
h     1.8590495    3.5066790   -0.1715100  0.00   -0.0007103    0.0030152    0.0006004
h     2.2327294   -1.6813195   -0.3062999  0.00   -0.0391998   -0.0094543    0.0018529
o     4.8294286   -1.5313296    2.0617994  0.00   -0.1327423    0.2167880   -0.1417262
o     3.1170891   -0.0494250    1.8924795  0.00   -0.0178647    0.0779953   -0.2213494
h     2.8920692    0.6217388    1.1971297  0.00   -1.7720992    0.1524601   -7.4242851
    27
 Energy =       1.3877505130
c    -1.4088621    2.6232921   -0.0288901  0.00   -0.0451765    0.0374025    0.0028523
c    -1.2955573    1.2321208   -0.0723074  0.00   -0.0832778   -0.0320033    0.0021215
c    -0.0085009    0.6872352   -0.1321557  0.00   -0.0862598   -0.1829332   -0.0017416
c    -0.2779235    3.4337409   -0.0487761  0.00   -0.0226039    0.0675467    0.0029915
c     1.0012977    2.8708581   -0.1152917  0.00    0.0101603    0.0631048    0.0011239
c     1.1444525    1.4685228   -0.1566798  0.00    0.0744184    0.0401879    0.0188892
n     0.3903119   -0.6252809   -0.1945828  0.00    0.1405312    0.1050876    0.0000874
c     2.2755624    0.5835190   -0.2276661  0.00    2.6761507    0.1112861    5.9144345
c     1.7596251   -0.7002237   -0.2367439  0.00   -0.0484605   -0.0567845    0.0635113
h    -0.2416576   -1.4151450   -0.1983943  0.00    0.0346337    0.0463128   -0.0018247
c     3.6555408    1.0135368   -0.3185785  0.00   -0.7083507   -0.3747805    1.3381914
c     4.6993099   -0.0262162    0.0887468  0.00   -0.1504530    0.0750507   -0.0669649
h     3.7874339    1.9155189    0.2945965  0.00   -0.0497175   -0.0818268    0.0389197
h     3.8435824    1.3362268   -1.3530434  0.00   -0.0053337    0.0001825    0.0148999
c     4.2874421   -0.6316278    1.4421777  0.00    0.1538341   -0.2329076    0.2153911
n     6.0848713    0.5451773    0.2481972  0.00    0.0853283    0.0155901    0.0606794
h     4.7468771   -0.8506280   -0.6355674  0.00    0.0058643    0.0137918    0.0104348
h     6.0479981    1.5261192   -0.0501471  0.00   -0.0202571   -0.0331233    0.0117955
h     6.3031101    0.5864798    1.2521353  0.00   -0.0350289   -0.0136033   -0.0299521
h    -2.3952529    3.0788924    0.0204246  0.00   -0.0007638    0.0002402   -0.0000974
h    -2.1793633    0.6027412   -0.0606471  0.00   -0.0036176    0.0037061   -0.0001509
h    -0.3865578    4.5149524   -0.0122963  0.00    0.0008326    0.0002522    0.0001485
h     1.8746437    3.5164823   -0.1298696  0.00   -0.0006933    0.0029476    0.0005852
h     2.2345246   -1.6700308   -0.2876156  0.00   -0.0381774   -0.0093042    0.0018233
o     4.8900497   -1.5367052    2.0064826  0.00   -0.1290035    0.2100817   -0.1380939
o     3.1605777   -0.0412069    1.9319131  0.00   -0.0194513    0.0753922   -0.2133473
h     2.8865485    0.6283316    1.2451068  0.00   -1.7351274    0.1491032   -7.2467077
    27
 Energy =       1.2533506708
c    -1.3922788    2.6343220   -0.0010176  0.00   -0.0399260    0.0330360    0.0025251
c    -1.2832267    1.2471387   -0.0469835  0.00   -0.0736389   -0.0283328    0.0018889
c    -0.0038735    0.6992787   -0.1033683  0.00   -0.0760674   -0.1615626   -0.0013232
c    -0.2603834    3.4383188   -0.0175506  0.00   -0.0200186    0.0597061    0.0026409
c     1.0125860    2.8711964   -0.0817516  0.00    0.0090279    0.0557810    0.0009883
c     1.1454289    1.4739493   -0.1230595  0.00    0.0657953    0.0355784    0.0166583
n     0.3802999   -0.6214015   -0.1806853  0.00    0.1241147    0.0926679   -0.0002346
c     2.2707786    0.5952979   -0.1903435  0.00    2.3889516    0.1009977    5.2672928
c     1.7569821   -0.6867801   -0.2088881  0.00   -0.0420459   -0.0496767    0.0569091
h    -0.2556363   -1.4130987   -0.1975860  0.00    0.0305360    0.0408501   -0.0017041
c     3.6158349    1.0115304   -0.3008174  0.00   -0.6365515   -0.3353405    1.1895104
c     4.6583690   -0.0423337    0.0557917  0.00   -0.1369804    0.0654916   -0.0606402
h     3.7810843    1.9103628    0.3116249  0.00   -0.0442231   -0.0722404    0.0347987
h     3.7783036    1.3394295   -1.3404507  0.00   -0.0046816    0.0001495    0.0128299
c     4.3095262   -0.6165386    1.4362666  0.00    0.1348269   -0.2053953    0.1915215
n     6.0595316    0.5059212    0.1152809  0.00    0.0787594    0.0144735    0.0478941
h     4.6433110   -0.8803198   -0.6596627  0.00    0.0047309    0.0108991    0.0076799
h     6.0367618    1.4820348   -0.2089003  0.00   -0.0169283   -0.0284649    0.0104421
h     6.3673188    0.5469724    1.1009522  0.00   -0.0281655   -0.0110509   -0.0205598
h    -2.3771526    3.0933648    0.0459822  0.00   -0.0006869    0.0002116   -0.0000847
h    -2.1684242    0.6196315   -0.0417475  0.00   -0.0032156    0.0032578   -0.0001379
h    -0.3646222    4.5199786    0.0196092  0.00    0.0007316    0.0002333    0.0001316
h     1.8896691    3.5117102   -0.0939636  0.00   -0.0005897    0.0026061    0.0005149
h     2.2455300   -1.6495338   -0.2737802  0.00   -0.0334569   -0.0082665    0.0016065
o     4.9517394   -1.5410878    1.9688946  0.00   -0.1129340    0.1840926   -0.1224729
o     3.2083145   -0.0194351    1.9854473  0.00   -0.0187007    0.0656091   -0.1855913
h     2.8743117    0.6367742    1.3012345  0.00   -1.5486635    0.1346892   -6.4530843
    27
 Energy =       0.8250729965
c    -1.3734861    2.6183604   -0.0104082  0.00   -0.0183173    0.0151196    0.0012780
c    -1.2714833    1.2469248   -0.0643099  0.00   -0.0347884   -0.0135278    0.0012945
c    -0.0185110    0.6968197   -0.1108132  0.00   -0.0349748   -0.0768008    0.0009221
c    -0.2433680    3.4053128   -0.0116319  0.00   -0.0098313    0.0279135    0.0012002
c     1.0086429    2.8305776   -0.0634055  0.00    0.0044808    0.0266268    0.0002612
c     1.1085803    1.4560251   -0.1085620  0.00    0.0304597    0.0175368    0.0081835
n     0.3270406   -0.6550840   -0.2071999  0.00    0.0572448    0.0428235   -0.0017134
c     2.2123830    0.6157997   -0.1524943  0.00    1.4096537    0.0674503    3.1601604
c     1.7333950   -0.6632050   -0.2155079  0.00   -0.0173289   -0.0186764    0.0335162
h    -0.3103561   -1.4650987   -0.2492045  0.00    0.0143960    0.0189848   -0.0013692
c     3.6032813    1.0435545   -0.2710294  0.00   -0.3742686   -0.1962765    0.7139583
c     4.6429051   -0.0322813    0.0826549  0.00   -0.0746950    0.0305262   -0.0284694
h     3.7847898    1.9474331    0.3407026  0.00   -0.0258511   -0.0417227    0.0212856
h     3.7658973    1.3550597   -1.3223569  0.00   -0.0021575   -0.0000454    0.0059681
c     4.3358696   -0.5429036    1.4868324  0.00    0.0622131   -0.0958277    0.0943983
n     6.0405767    0.4942208    0.0046974  0.00    0.0384798    0.0069764    0.0115822
h     4.5593525   -0.9047756   -0.5997920  0.00    0.0007259    0.0024862    0.0017105
h     6.0502800    1.4649776   -0.3676534  0.00   -0.0065883   -0.0112597    0.0040268
h     6.4796976    0.5310694    0.9570454  0.00   -0.0067531   -0.0043636    0.0019900
h    -2.3554541    3.0839553    0.0291566  0.00   -0.0003934    0.0000802   -0.0000242
h    -2.1570828    0.6201537   -0.0747326  0.00   -0.0015914    0.0014399   -0.0000706
h    -0.3379325    4.4878326    0.0298012  0.00    0.0003220    0.0001672    0.0000617
h     1.8965809    3.4559780   -0.0616472  0.00    0.0000340    0.0012035    0.0002309
h     2.2974125   -1.5871128   -0.3002011  0.00   -0.0132969   -0.0055991    0.0007214
o     5.0129840   -1.5382707    2.0284623  0.00   -0.0535275    0.0861657   -0.0610201
o     3.2518724    0.0444662    2.1014907  0.00   -0.0102110    0.0317848   -0.0935475
h     2.8362163    0.6568938    1.4006339  0.00   -0.9334354    0.0868143   -3.8765353
    27
 Energy =       0.4214016833
c    -1.3332820    2.6234936   -0.0134483  0.00    0.0023510   -0.0025256    0.0000050
c    -1.2529153    1.2653973   -0.0555892  0.00    0.0041775    0.0012712   -0.0000743
c    -0.0317994    0.6980735   -0.0952531  0.00    0.0055199    0.0095616   -0.0024344
c    -0.1955371    3.3797430   -0.0176199  0.00    0.0003834   -0.0034948    0.0001193
c     1.0282563    2.7815235   -0.0614279  0.00   -0.0002219   -0.0027629    0.0000234
c     1.0826099    1.4264403   -0.0947333  0.00   -0.0024849   -0.0023813   -0.0004050
n     0.2614815   -0.6904134   -0.1609018  0.00   -0.0102204   -0.0058688    0.0051661
c     2.1548433    0.6117866   -0.1364821  0.00    0.4624283    0.0398089    1.1006581
c     1.6958548   -0.6570316   -0.2491186  0.00    0.0105826    0.0089154    0.0011069
h    -0.3895402   -1.5112790   -0.1665020  0.00   -0.0022431   -0.0028253    0.0010635
c     3.5724067    1.0455329   -0.3015060  0.00   -0.1318944   -0.0638402    0.2427877
c     4.6472465   -0.0067972    0.1004859  0.00    0.0003539   -0.0041835    0.0054787
h     3.7480352    1.9840399    0.2704573  0.00   -0.0099730   -0.0096013    0.0072812
h     3.7232658    1.3002616   -1.3780299  0.00    0.0001492    0.0001549   -0.0024330
c     4.3691625   -0.5124717    1.5057615  0.00   -0.0027890    0.0234148   -0.0091549
n     6.0058494    0.5633229   -0.0577881  0.00   -0.0025319    0.0002954   -0.0058288
h     4.5711148   -0.9005050   -0.5603699  0.00   -0.0003980   -0.0006826   -0.0002988
h     5.9979180    1.5456469   -0.4235869  0.00    0.0003420    0.0015534   -0.0009136
h     6.5235868    0.5875244    0.8589589  0.00    0.0024540   -0.0000218    0.0052377
h    -2.3064951    3.1074178    0.0213089  0.00   -0.0001874    0.0000332    0.0000180
h    -2.1456248    0.6489562   -0.0579195  0.00    0.0001428   -0.0003429    0.0000367
h    -0.2670483    4.4647012    0.0138357  0.00   -0.0001482    0.0003136    0.0000185
h     1.9304310    3.3855825   -0.0674197  0.00    0.0009422   -0.0005417    0.0000197
h     2.3148520   -1.5430545   -0.3915258  0.00    0.0036545   -0.0014109   -0.0007447
o     5.0370183   -1.6415044    1.9967598  0.00    0.0068437   -0.0232264    0.0009451
o     3.3290249    0.0613370    2.2327948  0.00   -0.0019143   -0.0008028    0.0024792
h     2.8093683    0.6489588    1.5593870  0.00   -0.3353185    0.0391903   -1.3501573
    27
 Energy =       0.3182792004
c    -1.3587104    2.5875027    0.1037940  0.00    0.0002070   -0.0001532    0.0001555
c    -1.2682014    1.2300392    0.0234870  0.00    0.0007498    0.0005374    0.0000809
c    -0.0417640    0.6737805   -0.0675058  0.00    0.0020838    0.0036876   -0.0008934
c    -0.2271236    3.3540678    0.0847391  0.00   -0.0007733   -0.0005459    0.0001851
c     1.0013721    2.7675211   -0.0116247  0.00    0.0005889   -0.0010031    0.0000017
c     1.0680263    1.4123859   -0.0814445  0.00   -0.0005756   -0.0012566   -0.0000704
n     0.2646136   -0.7079251   -0.1833084  0.00   -0.0029505   -0.0031721    0.0016880
c     2.1453273    0.6053962   -0.1764592  0.00    0.2434057    0.0172711    0.5817473
c     1.6945505   -0.6646069   -0.2909471  0.00    0.0046036    0.0038060    0.0013410
h    -0.3795332   -1.5323955   -0.2008028  0.00   -0.0008767   -0.0011108    0.0003887
c     3.5691783    1.0571981   -0.3675935  0.00   -0.0654643   -0.0311727    0.1237079
c     4.6495656    0.0196230    0.0515531  0.00   -0.0013959   -0.0010740    0.0017701
h     3.7461623    2.0007973    0.1948292  0.00   -0.0046432   -0.0050910    0.0038343
h     3.7078336    1.2966013   -1.4476675  0.00   -0.0000097    0.0001285   -0.0010217
c     4.4190595   -0.4714287    1.4795089  0.00   -0.0047185    0.0147511   -0.0074956
n     6.0043060    0.5861953   -0.1521437  0.00   -0.0010574   -0.0015621   -0.0035432
h     4.5649155   -0.8886815   -0.5873187  0.00   -0.0002523   -0.0005488   -0.0003194
h     5.9889250    1.5476863   -0.5717812  0.00    0.0003788    0.0030856   -0.0013279
h     6.5306102    0.6636195    0.7558198  0.00    0.0020196   -0.0000078    0.0039286
h    -2.3348475    3.0623189    0.1800621  0.00   -0.0008721    0.0005222    0.0000765
h    -2.1560613    0.6066443    0.0306261  0.00   -0.0000930   -0.0000930    0.0000286
h    -0.3069706    4.4374261    0.1462151  0.00   -0.0003203    0.0006095    0.0000470
h     1.8966769    3.3810750   -0.0292874  0.00    0.0004543   -0.0001397    0.0000016
h     2.3141876   -1.5435858   -0.4587229  0.00    0.0016024   -0.0007103   -0.0002087
o     5.1860572   -1.5195329    1.9967831  0.00    0.0067052   -0.0162939    0.0045151
o     3.3817617    0.0620570    2.2389935  0.00   -0.0009273   -0.0004387    0.0021898
h     2.8201664    0.6429037    1.6107244  0.00   -0.1778690    0.0199746   -0.7108072
    27
 Energy =       0.2522775503
c    -1.3893514    2.5276032    0.1957828  0.00   -0.0006599    0.0000242    0.0000906
c    -1.2809751    1.1720013    0.1030834  0.00   -0.0006358    0.0002245    0.0000964
c    -0.0485824    0.6355751   -0.0273995  0.00    0.0001333    0.0005883   -0.0000940
c    -0.2701087    3.3120162    0.1493357  0.00   -0.0004751    0.0004064    0.0000682
c     0.9642306    2.7456639    0.0126067  0.00    0.0007248   -0.0002743   -0.0000409
c     1.0499299    1.3919020   -0.0693485  0.00    0.0005239   -0.0004165    0.0003704
n     0.2764101   -0.7385650   -0.1677718  0.00   -0.0008786   -0.0007657    0.0002718
c     2.1341482    0.6023425   -0.2095184  0.00    0.1052190    0.0056746    0.2569315
c     1.7016057   -0.6737993   -0.3097322  0.00    0.0018893    0.0010758    0.0010510
h    -0.3553032   -1.5720663   -0.1764221  0.00   -0.0003465   -0.0003482    0.0000536
c     3.5566730    1.0799789   -0.4282355  0.00   -0.0239516   -0.0110813    0.0483034
c     4.6543669    0.0684458    0.0054408  0.00   -0.0020795    0.0002148   -0.0001194
h     3.7252185    2.0317103    0.1227067  0.00   -0.0016695   -0.0020783    0.0017660
h     3.6800784    1.3036274   -1.5127627  0.00   -0.0000824    0.0001201   -0.0003903
c     4.4855977   -0.4156741    1.4519717  0.00   -0.0029147    0.0063152   -0.0052582
n     5.9974237    0.6434446   -0.2502877  0.00    0.0004472   -0.0003425   -0.0019098
h     4.5673979   -0.8533270   -0.6127726  0.00   -0.0001824   -0.0003516   -0.0001971
h     5.9611616    1.5910970   -0.6966713  0.00    0.0002634    0.0015098   -0.0005961
h     6.5452731    0.7549552    0.6397473  0.00    0.0012083    0.0001142    0.0019337
h    -2.3699282    2.9865877    0.3030828  0.00   -0.0007456    0.0003080    0.0000524
h    -2.1591635    0.5352183    0.1301499  0.00   -0.0003797   -0.0001219    0.0000241
h    -0.3644159    4.3933261    0.2201347  0.00   -0.0001270    0.0002637    0.0000144
h     1.8484868    3.3741549   -0.0291963  0.00    0.0005306    0.0001608   -0.0000275
h     2.3291351   -1.5422753   -0.4955612  0.00    0.0005265   -0.0002483   -0.0000314
o     5.3448104   -1.3900692    1.9587449  0.00    0.0051816   -0.0091147    0.0042686
o     3.4579669    0.0629622    2.2626689  0.00   -0.0000462   -0.0011205    0.0042003
h     2.8379977    0.6398467    1.7007513  0.00   -0.0814735    0.0092635   -0.3108318
    27
 Energy =       0.2168680935
c    -1.4427476    2.4050771    0.3099230  0.00   -0.0015371    0.0006090    0.0002038
c    -1.2915948    1.0550846    0.1877226  0.00   -0.0016556   -0.0002452    0.0001460
c    -0.0464457    0.5637879    0.0014010  0.00    0.0001705   -0.0005631    0.0000009
c    -0.3527643    3.2288616    0.2378022  0.00   -0.0008257    0.0014466    0.0001834
c     0.8950438    2.7078525    0.0452650  0.00    0.0014538    0.0003092   -0.0001268
c     1.0239435    1.3588226   -0.0666175  0.00    0.0016019   -0.0003934    0.0006214
n     0.3210297   -0.7963700   -0.1715455  0.00   -0.0010179   -0.0006759    0.0000513
c     2.1267007    0.6095593   -0.2627399  0.00    0.0305089    0.0002954    0.0781408
c     1.7385596   -0.6800106   -0.3569210  0.00    0.0021470    0.0000138    0.0007407
h    -0.2815921   -1.6515610   -0.1724912  0.00   -0.0006293   -0.0008167   -0.0000188
c     3.5362524    1.1385927   -0.4856906  0.00   -0.0027002   -0.0005473    0.0071960
c     4.6680885    0.1660288   -0.0499620  0.00   -0.0008457    0.0000617   -0.0010345
h     3.6747822    2.0944186    0.0667525  0.00   -0.0001717    0.0000638    0.0004925
h     3.6493851    1.3654959   -1.5701572  0.00    0.0000186    0.0000385    0.0000310
c     4.5670819   -0.3455192    1.4005156  0.00    0.0007845    0.0003696   -0.0040525
n     5.9878570    0.7775295   -0.3413604  0.00    0.0013333   -0.0001231   -0.0002974
h     4.5994919   -0.7577058   -0.6668589  0.00    0.0000917   -0.0001647    0.0000959
h     5.9149258    1.7244158   -0.7837080  0.00    0.0000218    0.0006702   -0.0004240
h     6.5564399    0.9029738    0.5322448  0.00    0.0002674    0.0000637    0.0001877
h    -2.4343092    2.8281536    0.4618359  0.00   -0.0014828    0.0006406    0.0001998
h    -2.1464068    0.3876348    0.2358325  0.00   -0.0008902   -0.0004037    0.0000587
h    -0.4813731    4.3053487    0.3324374  0.00   -0.0002799    0.0008718    0.0000923
h     1.7550933    3.3679022   -0.0179680  0.00    0.0008563    0.0004767   -0.0000703
h     2.3915910   -1.5251249   -0.5622153  0.00    0.0004457   -0.0005564   -0.0001349
o     5.5024117   -1.2733153    1.8469968  0.00    0.0030299   -0.0031941    0.0018523
o     3.5673129    0.0610679    2.2892543  0.00    0.0010538   -0.0029856    0.0081279
h     2.8813263    0.6476819    1.8307796  0.00   -0.0317492    0.0047384   -0.0922631
    27
 Energy =       0.2092288511
c    -1.4571302    2.3740553    0.2981121  0.00   -0.0008030    0.0004089    0.0001283
c    -1.2928087    1.0299600    0.1348210  0.00   -0.0005643   -0.0008158   -0.0000072
c    -0.0424623    0.5563882   -0.0536036  0.00   -0.0001752   -0.0005230    0.0000210
c    -0.3745910    3.2098094    0.2645295  0.00    0.0001563    0.0010539    0.0000543
c     0.8788993    2.7066105    0.0702173  0.00    0.0005412    0.0008779    0.0000177
c     1.0206591    1.3630619   -0.0833748  0.00    0.0010759   -0.0002028    0.0005016
n     0.3394533   -0.7946587   -0.2618694  0.00   -0.0003294   -0.0006369   -0.0000015
c     2.1310064    0.6307688   -0.2884926  0.00    0.0128240    0.0004255    0.0357522
c     1.7576240   -0.6593305   -0.4227522  0.00    0.0006664   -0.0003278    0.0005079
h    -0.2546963   -1.6551884   -0.2973851  0.00   -0.0007316   -0.0010678   -0.0000191
c     3.5417498    1.1783366   -0.4519398  0.00   -0.0003101   -0.0002315    0.0027090
c     4.6715923    0.1937786   -0.0387548  0.00   -0.0035349    0.0018134   -0.0009677
h     3.6603876    2.1088339    0.1486606  0.00    0.0002692    0.0014052    0.0009587
h     3.6786067    1.4588573   -1.5227330  0.00    0.0002550    0.0004680   -0.0016665
c     4.5450615   -0.4161506    1.3754893  0.00   -0.0030578    0.0025217   -0.0009648
n     5.9919848    0.8365115   -0.2584629  0.00    0.0013876   -0.0010573   -0.0028469
h     4.6289009   -0.6914969   -0.7166317  0.00   -0.0003619   -0.0022611   -0.0017018
h     5.9211275    1.8114270   -0.6403576  0.00    0.0005560    0.0035744   -0.0013427
h     6.5384038    0.9099876    0.6368191  0.00    0.0017436    0.0004260    0.0025717
h    -2.4532062    2.7829123    0.4523959  0.00   -0.0004631    0.0002389    0.0000651
h    -2.1412981    0.3532797    0.1529941  0.00   -0.0005586   -0.0005268    0.0000195
h    -0.5136889    4.2815971    0.3915516  0.00   -0.0000199    0.0008444    0.0000640
h     1.7332641    3.3759822    0.0374622  0.00    0.0005594    0.0005667   -0.0000327
h     2.4231062   -1.4930956   -0.6329077  0.00    0.0001862   -0.0002816   -0.0000503
o     5.4273197   -1.4320684    1.7432672  0.00    0.0072642   -0.0082310    0.0039812
o     3.5933690   -0.0030831    2.3125571  0.00    0.0024971   -0.0030440    0.0055496
h     2.9274496    0.6495970    1.9209161  0.00   -0.0190722    0.0045824   -0.0433008
    27
 Energy =       0.2064891528
c    -1.4625293    2.3869002    0.2743894  0.00   -0.0011830    0.0001652    0.0001353
c    -1.2983921    1.0494641    0.0602751  0.00   -0.0005750   -0.0016834   -0.0001456
c    -0.0453144    0.5799534   -0.1179092  0.00   -0.0005402   -0.0008137   -0.0000052
c    -0.3769049    3.2203455    0.3007422  0.00    0.0010609    0.0015940    0.0000784
c     0.8794536    2.7212721    0.1162557  0.00    0.0005739    0.0017097    0.0001483
c     1.0206214    1.3841796   -0.0889062  0.00    0.0012851    0.0001266    0.0003891
n     0.3377118   -0.7634241   -0.3709550  0.00   -0.0005106   -0.0009466   -0.0000509
c     2.1332669    0.6574303   -0.2967921  0.00    0.0065407    0.0012132    0.0193130
c     1.7600064   -0.6259883   -0.4907131  0.00    0.0001096   -0.0011101    0.0000850
h    -0.2577852   -1.6204258   -0.4561382  0.00   -0.0014406   -0.0021131   -0.0001388
c     3.5498350    1.2074797   -0.3912493  0.00    0.0002988   -0.0000257    0.0013385
c     4.6702412    0.1924187   -0.0239333  0.00   -0.0028952    0.0019984   -0.0010100
h     3.6582078    2.0972860    0.2727579  0.00    0.0006688    0.0029164    0.0019174
h     3.7093655    1.5592908   -1.4395429  0.00    0.0003301    0.0011969   -0.0034816
c     4.5260234   -0.5129135    1.3455606  0.00   -0.0031698    0.0024039   -0.0000796
n     5.9953165    0.8428592   -0.1844895  0.00   -0.0001792   -0.0042388   -0.0045512
h     4.6336814   -0.6467347   -0.7601788  0.00   -0.0005418   -0.0030941   -0.0023833
h     5.9321953    1.8486629   -0.4855085  0.00    0.0003511    0.0073266   -0.0024717
h     6.5389861    0.8385854    0.7176402  0.00    0.0032155    0.0002630    0.0054083
h    -2.4608262    2.7923503    0.4215385  0.00   -0.0002882    0.0000445    0.0000276
h    -2.1490639    0.3748606    0.0309420  0.00   -0.0010407   -0.0011303   -0.0000407
h    -0.5157985    4.2869746    0.4678425  0.00    0.0001943    0.0012562    0.0001189
h     1.7368652    3.3885621    0.1310070  0.00    0.0010490    0.0011593    0.0000191
h     2.4286263   -1.4541897   -0.7121598  0.00    0.0000245   -0.0002982   -0.0000459
o     5.3737312   -1.5824427    1.6335197  0.00    0.0068804   -0.0084017    0.0042151
o     3.6030293   -0.1308936    2.3233796  0.00    0.0032352   -0.0043474    0.0060229
h     2.9595338    0.5748199    1.9931534  0.00   -0.0134535    0.0048291   -0.0248122
    27
 Energy =       0.2062985553
c    -1.4434149    2.4707814    0.2165541  0.00   -0.0017850   -0.0001480    0.0001302
c    -1.3011762    1.1337416   -0.0155443  0.00   -0.0011429   -0.0017398   -0.0001233
c    -0.0532454    0.6414373   -0.1693280  0.00   -0.0007780   -0.0011152   -0.0000492
c    -0.3414169    3.2811476    0.2850734  0.00    0.0012242    0.0019478    0.0001478
c     0.9094370    2.7590075    0.1256067  0.00    0.0010985    0.0017494    0.0001364
c     1.0282091    1.4228388   -0.0983855  0.00    0.0014818    0.0002773    0.0003078
n     0.3092978   -0.7056675   -0.4325084  0.00   -0.0014487   -0.0007496    0.0000422
c     2.1315621    0.6768986   -0.2867884  0.00    0.0050717    0.0008507    0.0150438
c     1.7376367   -0.5958909   -0.5106111  0.00    0.0006133   -0.0011241   -0.0000987
h    -0.3011464   -1.5489942   -0.5473747  0.00   -0.0018210   -0.0025257   -0.0001978
c     3.5614439    1.2011087   -0.3210347  0.00    0.0005914    0.0000996    0.0006084
c     4.6588369    0.1448075    0.0035013  0.00   -0.0022175    0.0015333   -0.0008914
h     3.6737850    2.0497822    0.3967720  0.00    0.0012455    0.0040864    0.0028584
h     3.7452055    1.6106435   -1.3456416  0.00    0.0002208    0.0018964   -0.0048217
c     4.5030055   -0.6182782    1.3416501  0.00   -0.0018541    0.0016455   -0.0005108
n     5.9977656    0.7730031   -0.1310161  0.00   -0.0013223   -0.0067276   -0.0060509
h     4.6045669   -0.6608308   -0.7689318  0.00   -0.0007251   -0.0035496   -0.0027683
h     5.9549513    1.7991677   -0.3652554  0.00    0.0001111    0.0100533   -0.0030669
h     6.5528362    0.6978602    0.7631241  0.00    0.0048254   -0.0000245    0.0079153
h    -2.4371087    2.8943616    0.3446696  0.00   -0.0006464    0.0000458    0.0000624
h    -2.1647561    0.4772519   -0.0775558  0.00   -0.0015135   -0.0013847   -0.0000544
h    -0.4627168    4.3476449    0.4663294  0.00    0.0002562    0.0013122    0.0001430
h     1.7809409    3.4072663    0.1743951  0.00    0.0015730    0.0014840    0.0000334
h     2.3952151   -1.4358998   -0.7208307  0.00    0.0002233   -0.0003514   -0.0000813
o     5.3537001   -1.6940137    1.5916975  0.00    0.0060199   -0.0075306    0.0038554
o     3.5653805   -0.2896467    2.3260010  0.00    0.0020196   -0.0040854    0.0071031
h     2.9212892    0.4271542    2.0259601  0.00   -0.0113212    0.0040745   -0.0196731
    27
 Energy =       0.2068912004
c    -1.4248925    2.5491135    0.0971664  0.00   -0.0028463   -0.0004511    0.0000959
c    -1.2985900    1.2100452   -0.1330417  0.00   -0.0022737   -0.0015309   -0.0000714
c    -0.0539829    0.6951213   -0.2409309  0.00   -0.0011073   -0.0014260   -0.0001018
c    -0.3104755    3.3388386    0.2099159  0.00    0.0010108    0.0025419    0.0002531
c     0.9367912    2.7936587    0.0976225  0.00    0.0021550    0.0015436    0.0000802
c     1.0390545    1.4561052   -0.1256425  0.00    0.0017419    0.0004361    0.0002714
n     0.2941466   -0.6583979   -0.4909310  0.00   -0.0030772   -0.0004614    0.0001320
c     2.1360816    0.6902771   -0.2702928  0.00    0.0046008   -0.0000577    0.0135616
c     1.7276313   -0.5752354   -0.5114119  0.00    0.0019704   -0.0009191   -0.0001062
h    -0.3271980   -1.4903618   -0.6309071  0.00   -0.0022642   -0.0029492   -0.0002669
c     3.5762588    1.1896495   -0.2318642  0.00    0.0018914   -0.0000546    0.0003042
c     4.6501034    0.1021536    0.0725286  0.00   -0.0019346    0.0010702   -0.0008463
h     3.6788536    2.0022096    0.5303064  0.00    0.0019440    0.0050632    0.0038786
h     3.7961753    1.6447583   -1.2316556  0.00    0.0004020    0.0027156   -0.0063676
c     4.4763121   -0.6935869    1.3908120  0.00    0.0004886    0.0008346   -0.0026451
n     6.0015783    0.7087301   -0.0408140  0.00   -0.0017557   -0.0080708   -0.0070543
h     4.5856661   -0.6823254   -0.7207784  0.00   -0.0008686   -0.0038157   -0.0029576
h     5.9784878    1.7462483   -0.2279081  0.00    0.0001162    0.0118714   -0.0033681
h     6.5603185    0.5831759    0.8466348  0.00    0.0057869   -0.0002719    0.0093800
h    -2.4155783    2.9907593    0.1887292  0.00   -0.0015092    0.0002192    0.0001057
h    -2.1718525    0.5695965   -0.2288966  0.00   -0.0022195   -0.0016361   -0.0000884
h    -0.4188777    4.4070618    0.3894214  0.00    0.0002230    0.0013752    0.0001564
h     1.8193160    3.4245657    0.1823416  0.00    0.0023454    0.0018272    0.0000473
h     2.3775867   -1.4290862   -0.6897595  0.00    0.0008614   -0.0006875   -0.0001680
o     5.3575317   -1.7438505    1.6458770  0.00    0.0067226   -0.0078347    0.0033266
o     3.4860200   -0.4309424    2.3471640  0.00   -0.0011498   -0.0032387    0.0101859
h     2.8236176    0.2684011    2.0468423  0.00   -0.0112543    0.0039072   -0.0177373
    27
 Energy =       0.2058700568
c    -1.4515140    2.4722894    0.1349726  0.00   -0.0030096   -0.0004527    0.0000903
c    -1.3030805    1.1334208   -0.0834353  0.00   -0.0024193   -0.0015933   -0.0000914
c    -0.0504244    0.6410343   -0.2049117  0.00   -0.0012102   -0.0015062   -0.0001220
c    -0.3507448    3.2842579    0.2223032  0.00    0.0010213    0.0026684    0.0002893
c     0.9049401    2.7619566    0.0952457  0.00    0.0022953    0.0016000    0.0000989
c     1.0295502    1.4241478   -0.1156695  0.00    0.0017087    0.0004627    0.0002161
n     0.3198033   -0.7078104   -0.4488611  0.00   -0.0032791   -0.0004879    0.0001139
c     2.1387987    0.6784740   -0.2734299  0.00    0.0037766   -0.0004499    0.0116695
c     1.7511437   -0.5969656   -0.4949184  0.00    0.0020988   -0.0009873    0.0000003
h    -0.2876262   -1.5528331   -0.5710379  0.00   -0.0023737   -0.0030729   -0.0003031
c     3.5698377    1.2076445   -0.2793251  0.00    0.0021372    0.0001967   -0.0000347
c     4.6652050    0.1483546    0.0438690  0.00   -0.0022190    0.0011191   -0.0004491
h     3.6712810    2.0462030    0.4541629  0.00    0.0021049    0.0050554    0.0039900
h     3.7661271    1.6347913   -1.2962175  0.00    0.0003761    0.0028323   -0.0064156
c     4.4868962   -0.6446421    1.3609067  0.00    0.0017214    0.0006170   -0.0049652