    24
 Energy =       0.1338964240
c     1.6703672    2.6182922    0.2614132  0.00    0.0469700    0.0713412    0.0240907
c     0.3248649    2.9356558    0.1418766  0.00   -0.0069883    0.1043367    0.0284666
c    -0.5827484    1.9945952   -0.3219261  0.00   -0.0888966    0.0432574    0.0042720
c     2.1038063    1.3347474   -0.0833024  0.00    0.0672137   -0.0107688    0.0085932
c     1.2047783    0.3610782   -0.5608861  0.00    0.0189977   -0.0959066   -0.0237984
c    -0.1441045    0.7159142   -0.6796715  0.00   -0.0317144   -0.0460681   -0.0211328
o    -0.1504797    4.1703171    0.4675790  0.00   -0.0524116   -0.0244444   -0.0596824
h    -0.5871159    4.5498648   -0.3125495  0.00    0.0450175   -0.0385240    0.0476095
h    -0.8895274    0.0262790   -1.0546636  0.00   -0.0057555    0.0130795   -0.0005966
h     3.1621727    1.0964802    0.0165124  0.00    0.0025408   -0.0000372   -0.0008342
h     2.3926004    3.3457758    0.6178375  0.00    0.0100054   -0.0069891   -0.0018388
h    -1.6336796    2.2563998   -0.4108671  0.00   -0.0017057    0.0002471   -0.0010215
c     1.7669373   -1.0073413   -0.8964724  0.00    0.0142444   -0.0089824   -0.0190390
c     0.8861134   -2.0194266   -1.6556448  0.00    0.0300635    0.1253008   -0.0568594
h     2.1212937   -1.4658931    0.0371405  0.00   -0.0033425    0.0085912   -0.0120843
h     2.6645729   -0.8285312   -1.5058794  0.00   -0.0137768    0.0016162    0.0102713
c     1.7481012   -3.2276699   -2.0845864  0.00    0.0627798   -0.3655969    0.2036189
o     2.0121944   -4.2017215   -1.3977638  0.00   -0.0650334    0.2376240   -0.1612265
o     2.2274762   -3.0566202   -3.3466422  0.00   -0.0281901    0.0316049    0.0194865
h     1.9686788   -3.8778597   -3.8368213  0.00   -0.0143976    0.0323165    0.0246129
n    -0.2697763   -2.5678537   -0.8742070  0.00   -0.0274594   -0.0949048    0.0257563
h     0.4960411   -1.5757973   -2.5789902  0.00    0.0013545   -0.0146555    0.0168640
h    -0.2733198   -3.5880456   -0.9878198  0.00    0.0427166    0.0407675   -0.0129342
h    -0.0861426   -2.4268019    0.1217436  0.00   -0.0022320   -0.0032052   -0.0425938
    24
 Energy =       0.1189554622
c     1.6144766    2.6062554    0.2572379  0.00    0.0382451    0.0578492    0.0194460
c     0.2750952    2.9113566    0.1226589  0.00   -0.0056302    0.0846902    0.0231679
c    -0.6143678    1.9648280   -0.3459844  0.00   -0.0721336    0.0353112    0.0036146
c     2.0630118    1.3359710   -0.0822958  0.00    0.0545874   -0.0088314    0.0068782
c     1.1829509    0.3607582   -0.5660214  0.00    0.0151681   -0.0776892   -0.0194013
c    -0.1629383    0.6960447   -0.6958026  0.00   -0.0258796   -0.0372659   -0.0170965
o    -0.2062683    4.1521063    0.4392021  0.00   -0.0425376   -0.0201767   -0.0475223
h    -0.6188789    4.5447830   -0.3583215  0.00    0.0365314   -0.0309428    0.0377184
h    -0.8936741   -0.0076511   -1.0751433  0.00   -0.0048039    0.0105091   -0.0005452
h     3.1229141    1.1093298    0.0267089  0.00    0.0021681   -0.0000893   -0.0006825
h     2.3210575    3.3450564    0.6213047  0.00    0.0082539   -0.0055589   -0.0014475
h    -1.6663684    2.2175809   -0.4447152  0.00   -0.0014674    0.0002580   -0.0008216
c     1.7699849   -0.9948306   -0.9102854  0.00    0.0113869   -0.0070624   -0.0154468
c     0.8965874   -2.0360807   -1.6430823  0.00    0.0242636    0.1016400   -0.0455110
h     2.1649191   -1.4425372    0.0168621  0.00   -0.0022821    0.0065614   -0.0091674
h     2.6485570   -0.7946212   -1.5477560  0.00   -0.0105980    0.0015822    0.0078371
c     1.7857020   -3.2184751   -2.0673289  0.00    0.0421280   -0.2987969    0.1737055
o     2.0615936   -4.2035248   -1.3465004  0.00   -0.0516814    0.1923857   -0.1323324
o     2.3862293   -3.0142505   -3.2821392  0.00   -0.0058740    0.0468681    0.0179668
h     2.0248085   -3.7505810   -3.8689507  0.00   -0.0212568    0.0076969    0.0105874
n    -0.2370437   -2.5770367   -0.8318934  0.00   -0.0231055   -0.0774249    0.0205082
h     0.4905016   -1.6137986   -2.5736220  0.00    0.0009278   -0.0119363    0.0132306
h    -0.2441442   -3.6030894   -0.9324708  0.00    0.0352289    0.0329194   -0.0105686
h    -0.0316010   -2.4257555    0.1637481  0.00   -0.0016391   -0.0024966   -0.0341177
    24
 Energy =       0.1180493747
c     1.6286904    2.5830856    0.3014753  0.00    0.0377044    0.0571894    0.0192216
c     0.2897073    2.8934546    0.1801876  0.00   -0.0047029    0.0816593    0.0221708
c    -0.6009557    1.9644629   -0.3199794  0.00   -0.0714071    0.0343171    0.0032885
c     2.0737057    1.3199775   -0.0667915  0.00    0.0541680   -0.0089861    0.0067526
c     1.1904198    0.3575172   -0.5687154  0.00    0.0149848   -0.0770439   -0.0192763
c    -0.1533643    0.7018601   -0.6970325  0.00   -0.0255991   -0.0372270   -0.0170332
o    -0.1925897    4.1150237    0.5698070  0.00   -0.0415116   -0.0180103   -0.0432897
h    -0.6064275    4.5630921   -0.1995684  0.00    0.0346906   -0.0291443    0.0347981
h    -0.8860977    0.0092063   -1.0932502  0.00   -0.0048622    0.0102165   -0.0006258
h     3.1322830    1.0866324    0.0409158  0.00    0.0021797   -0.0000774   -0.0006654
h     2.3355089    3.3083014    0.6927320  0.00    0.0083607   -0.0050697   -0.0012347
h    -1.6528760    2.2214204   -0.4081032  0.00   -0.0015250    0.0003276   -0.0007993
c     1.7702935   -0.9973239   -0.9290596  0.00    0.0113405   -0.0068115   -0.0153600
c     0.8958016   -2.0187628   -1.6880648  0.00    0.0241492    0.1003795   -0.0451134
h     2.1488095   -1.4643135   -0.0040852  0.00   -0.0021478    0.0063673   -0.0087967
h     2.6588511   -0.7953440   -1.5523927  0.00   -0.0103613    0.0016585    0.0076748
c     1.7781507   -3.2046000   -2.1161169  0.00    0.0415040   -0.2955698    0.1720059
o     2.0526385   -4.1905699   -1.3934063  0.00   -0.0510889    0.1902634   -0.1308776
o     2.3644919   -3.0124164   -3.3398446  0.00   -0.0055661    0.0465501    0.0177123
h     1.9868179   -3.7470826   -3.9191983  0.00   -0.0211171    0.0074159    0.0103019
n    -0.2533164   -2.5597200   -0.8981475  0.00   -0.0232277   -0.0768256    0.0200170
h     0.5062030   -1.5777852   -2.6174000  0.00    0.0008003   -0.0116771    0.0128323
h    -0.2622387   -3.5857701   -1.0010663  0.00    0.0348280    0.0325437   -0.0104367
h    -0.0714021   -2.4085078    0.1025145  0.00   -0.0015933   -0.0024456   -0.0332669
    24
 Energy =       0.1192745516
c     1.5683144    2.5761242    0.3251030  0.00    0.0373277    0.0568077    0.0190819
c     0.2257129    2.8695075    0.2050924  0.00   -0.0043638    0.0803109    0.0216827
c    -0.6493432    1.9384969   -0.3187258  0.00   -0.0708378    0.0338916    0.0031982
c     2.0313401    1.3258147   -0.0614469  0.00    0.0538171   -0.0089287    0.0067052
c     1.1634433    0.3593963   -0.5812383  0.00    0.0143044   -0.0757214   -0.0193412
c    -0.1833122    0.6876236   -0.7145164  0.00   -0.0253623   -0.0371754   -0.0169588
o    -0.2783014    4.0711862    0.6313884  0.00   -0.0411978   -0.0167822   -0.0418516
h    -0.6905062    4.5423710   -0.1255811  0.00    0.0340814   -0.0286150    0.0339875
h    -0.9019351   -0.0088072   -1.1304132  0.00   -0.0049760    0.0098465   -0.0007583
h     3.0930509    1.1058565    0.0454036  0.00    0.0022683   -0.0001219   -0.0006509
h     2.2627567    3.3028989    0.7354800  0.00    0.0083977   -0.0047863   -0.0011115
h    -1.7044149    2.1825401   -0.4062855  0.00   -0.0016059    0.0003672   -0.0007913
c     1.7741582   -0.9717803   -0.9763239  0.00    0.0103195   -0.0067250   -0.0153401
c     0.9151177   -2.0295770   -1.7045972  0.00    0.0233574    0.0996368   -0.0440294
h     2.2141239   -1.4290268   -0.0709133  0.00   -0.0013452    0.0051542   -0.0071955
h     2.6269906   -0.7286219   -1.6379787  0.00   -0.0085216    0.0022625    0.0063954
c     1.8328468   -3.1961681   -2.1125109  0.00    0.0370375   -0.2933379    0.1758103
o     2.1079589   -4.1784294   -1.3828955  0.00   -0.0500875    0.1881434   -0.1300950
o     2.5004772   -2.9576345   -3.2909325  0.00    0.0000126    0.0494502    0.0143996
h     2.1455710   -3.6584070   -3.9269787  0.00   -0.0223222    0.0043389    0.0078433
n    -0.2129063   -2.5834226   -0.8941278  0.00   -0.0235212   -0.0763130    0.0195483
h     0.5063326   -1.6203078   -2.6409444  0.00    0.0002896   -0.0111921    0.0122194
h    -0.2052646   -3.6104052   -0.9928619  0.00    0.0344681    0.0319658   -0.0102614
h    -0.0091066   -2.4273900    0.1022139  0.00   -0.0015400   -0.0024766   -0.0324868
    24
 Energy =       0.1161130421
c     1.6104228    2.5877687    0.2890751  0.00    0.0357876    0.0546861    0.0183981
c     0.2722643    2.8927640    0.1595302  0.00   -0.0035555    0.0756724    0.0204799
c    -0.6121993    1.9559339   -0.3351885  0.00   -0.0681617    0.0322599    0.0030103
c     2.0619078    1.3256625   -0.0707421  0.00    0.0519054   -0.0087257    0.0064160
c     1.1854967    0.3580272   -0.5707806  0.00    0.0133576   -0.0723066   -0.0188002
c    -0.1585973    0.6938739   -0.7035396  0.00   -0.0242754   -0.0361802   -0.0164711
o    -0.2139072    4.1232294    0.5279495  0.00   -0.0396608   -0.0141443   -0.0381282
h    -0.6167927    4.5612627   -0.2567724  0.00    0.0320589   -0.0267879    0.0313371
h    -0.8863006   -0.0062411   -1.0974566  0.00   -0.0049058    0.0091575   -0.0008594
h     3.1213627    1.0977217    0.0407134  0.00    0.0022386   -0.0001535   -0.0006246
h     2.3122245    3.3206284    0.6762612  0.00    0.0081824   -0.0042780   -0.0009391
h    -1.6646685    2.2087614   -0.4294723  0.00   -0.0016163    0.0004227   -0.0007447
c     1.7752292   -0.9951727   -0.9274974  0.00    0.0092742   -0.0067672   -0.0149219
c     0.9006192   -2.0298923   -1.6709668  0.00    0.0221673    0.0960765   -0.0420108
h     2.1689310   -1.4558174   -0.0014155  0.00   -0.0009308    0.0041984   -0.0059837
h     2.6584574   -0.7880149   -1.5635410  0.00   -0.0070357    0.0024337    0.0053836
c     1.7908911   -3.2116293   -2.0945119  0.00    0.0341452   -0.2821890    0.1715191
o     2.0630762   -4.2000256   -1.3634045  0.00   -0.0479546    0.1807734   -0.1252760
o     2.4115905   -3.0115648   -3.3067897  0.00    0.0034573    0.0505217    0.0142091
h     1.9868179   -3.6932064   -3.9264656  0.00   -0.0233042    0.0010916    0.0045705
n    -0.2395094   -2.5671044   -0.8666360  0.00   -0.0227900   -0.0732584    0.0187835
h     0.5014466   -1.5993798   -2.6028524  0.00    0.0000135   -0.0105727    0.0116028
h    -0.2494635   -3.5949474   -0.9625584  0.00    0.0330851    0.0304888   -0.0098287
h    -0.0461947   -2.4108000    0.1324713  0.00   -0.0014822   -0.0024192   -0.0311217
    24
 Energy =       0.1135256188
c     1.6365021    2.5828805    0.2804325  0.00    0.0333764    0.0510048    0.0171734
c     0.3025065    2.8950602    0.1455246  0.00   -0.0032701    0.0703804    0.0191188
c    -0.5855161    1.9600878   -0.3408429  0.00   -0.0635892    0.0300691    0.0028384
c     2.0817040    1.3179506   -0.0697365  0.00    0.0484344   -0.0081399    0.0059731
c     1.2018421    0.3538663   -0.5641238  0.00    0.0123633   -0.0672810   -0.0176266
c    -0.1391888    0.6949603   -0.6984677  0.00   -0.0226109   -0.0338087   -0.0153947
o    -0.1729807    4.1364002    0.4958517  0.00   -0.0370485   -0.0129803   -0.0353404
h    -0.5644491    4.5715110   -0.2990405  0.00    0.0298534   -0.0248649    0.0290426
h    -0.8710786   -0.0050644   -1.0847866  0.00   -0.0045830    0.0084651   -0.0008199
h     3.1393969    1.0845984    0.0460656  0.00    0.0021153   -0.0001550   -0.0005820
h     2.3406519    3.3162820    0.6621625  0.00    0.0076321   -0.0039631   -0.0008696
h    -1.6362711    2.2184330   -0.4384966  0.00   -0.0015308    0.0004078   -0.0006921
c     1.7793685   -1.0098372   -0.9038415  0.00    0.0084818   -0.0062759   -0.0139861
c     0.8966805   -2.0283100   -1.6609253  0.00    0.0207600    0.0897665   -0.0390975
h     2.1451578   -1.4752954    0.0321061  0.00   -0.0007481    0.0036752   -0.0052397
h     2.6798786   -0.8216983   -1.5228503  0.00   -0.0061650    0.0023721    0.0048042
c     1.7704836   -3.2180318   -2.0937168  0.00    0.0311761   -0.2634660    0.1608424
o     2.0345580   -4.2156762   -1.3576818  0.00   -0.0447615    0.1684587   -0.1170497
o     2.3640391   -3.0459789   -3.3246318  0.00    0.0122468    0.0569117    0.0218735
h     1.8280648   -3.6474871   -3.9578701  0.00   -0.0300673   -0.0085785   -0.0051099
n    -0.2541828   -2.5511065   -0.8637583  0.00   -0.0213582   -0.0682559    0.0174356
h     0.5077679   -1.5812923   -2.5904668  0.00   -0.0001387   -0.0097599    0.0106978
h    -0.2774858   -3.5803722   -0.9539506  0.00    0.0308403    0.0282935   -0.0091468
h    -0.0743446   -2.3900420    0.1384542  0.00   -0.0014083   -0.0022757   -0.0288449
    24
 Energy =       0.1074629404
c     1.6585397    2.5852198    0.2746182  0.00    0.0312921    0.0478757    0.0161405
c     0.3290913    2.9069457    0.1337593  0.00   -0.0029921    0.0657416    0.0179449
c    -0.5649661    1.9739349   -0.3404534  0.00   -0.0596777    0.0281888    0.0026985
c     2.0945973    1.3150275   -0.0618192  0.00    0.0454797   -0.0076524    0.0056079
c     1.2088866    0.3546705   -0.5477122  0.00    0.0112481   -0.0627176   -0.0168450
c    -0.1287443    0.7034520   -0.6831906  0.00   -0.0211673   -0.0318416   -0.0144821
o    -0.1328931    4.1610421    0.4609195  0.00   -0.0348306   -0.0117847   -0.0328373
h    -0.5131534    4.5893528   -0.3455359  0.00    0.0279248   -0.0231754    0.0270094
h    -0.8668427    0.0037690   -1.0583935  0.00   -0.0043380    0.0078372   -0.0008119
h     3.1498249    1.0741358    0.0597631  0.00    0.0020353   -0.0001849   -0.0005471
h     2.3670115    3.3187555    0.6479747  0.00    0.0071682   -0.0036608   -0.0007990
h    -1.6134963    2.2395811   -0.4418955  0.00   -0.0014733    0.0004059   -0.0006462
c     1.7681410   -1.0244943   -0.8598103  0.00    0.0072158   -0.0053092   -0.0132173
c     0.8864109   -2.0105242   -1.6619151  0.00    0.0196449    0.0841768   -0.0366662
h     2.0739235   -1.5029964    0.0930893  0.00   -0.0001718    0.0025432   -0.0032795
h     2.7047326   -0.8633335   -1.4351519  0.00   -0.0041082    0.0026872    0.0036348
c     1.7435049   -3.2016477   -2.1149836  0.00    0.0277013   -0.2482239    0.1513382
o     2.0320596   -4.1978873   -1.3726034  0.00   -0.0420784    0.1577782   -0.1096444
o     2.2958375   -3.0517935   -3.3685889  0.00    0.0262081    0.0773670    0.0350943
h     1.8617292   -3.8062402   -3.9398818  0.00   -0.0416904   -0.0309721   -0.0201603
n    -0.2861429   -2.5343173   -0.8964460  0.00   -0.0207129   -0.0646677    0.0156552
h     0.5219779   -1.5307914   -2.5870824  0.00   -0.0003591   -0.0087736    0.0093030
h    -0.3145576   -3.5640505   -0.9928075  0.00    0.0289845    0.0264480   -0.0085666
h    -0.1423671   -2.3759723    0.1135565  0.00   -0.0013030   -0.0020857   -0.0259238
    24
 Energy =       0.0938161524
c     1.6782581    2.5701871    0.2746082  0.00    0.0229632    0.0349876    0.0118883
c     0.3618049    2.9067476    0.1118918  0.00   -0.0022186    0.0472274    0.0135086
c    -0.5346669    1.9795030   -0.3494528  0.00   -0.0438476    0.0207792    0.0023604
c     2.1028561    1.2971683   -0.0353110  0.00    0.0334294   -0.0056644    0.0039830
c     1.2150956    0.3466596   -0.5139332  0.00    0.0074093   -0.0449395   -0.0134811
c    -0.1129316    0.7045586   -0.6622181  0.00   -0.0153056   -0.0236340   -0.0107487
o    -0.0768587    4.1838661    0.3999589  0.00   -0.0255285   -0.0088185   -0.0213256
h    -0.4045716    4.6201460   -0.4358778  0.00    0.0199905   -0.0153361    0.0169556
h    -0.8558624    0.0030218   -1.0245488  0.00   -0.0031869    0.0054125   -0.0006486
h     3.1528981    1.0453883    0.1055145  0.00    0.0017518   -0.0002837   -0.0004035
h     2.3869966    3.3057588    0.6424982  0.00    0.0052227   -0.0026115   -0.0006027
h    -1.5784362    2.2569409   -0.4655899  0.00   -0.0012622    0.0004300   -0.0004488
c     1.7484144   -1.0544943   -0.7812582  0.00    0.0033606   -0.0017283   -0.0100770
c     0.8807756   -1.9879115   -1.6654333  0.00    0.0150643    0.0612868   -0.0279548
h     1.9504324   -1.5533738    0.1954284  0.00    0.0008987   -0.0006672    0.0025007
h     2.7431087   -0.9362194   -1.2763987  0.00    0.0021909    0.0031024    0.0006216
c     1.7225958   -3.1702321   -2.1508835  0.00    0.0173197   -0.1833510    0.1117264
o     2.0437837   -4.1785261   -1.3855191  0.00   -0.0303132    0.1158659   -0.0794726
o     2.2312516   -3.0585410   -3.4296607  0.00    0.0262256    0.0664894    0.0300958
h     1.8803215   -3.8893876   -3.9468294  0.00   -0.0361878   -0.0320650   -0.0208663
n    -0.3313366   -2.5050579   -0.9598164  0.00   -0.0173023   -0.0495999    0.0079892
h     0.5643708   -1.4506987   -2.5831167  0.00   -0.0009597   -0.0049979    0.0046631
h    -0.3697792   -3.5391849   -1.0519827  0.00    0.0217155    0.0192038   -0.0064143
h    -0.2654160   -2.3344807    0.0633397  0.00   -0.0014297   -0.0010880   -0.0138485
    24
 Energy =       0.0906386738
c     1.6434926    2.5677953    0.2825890  0.00    0.0201014    0.0306470    0.0104639
c     0.3305258    2.8999170    0.1023899  0.00   -0.0019238    0.0411238    0.0118680
c    -0.5591439    1.9651301   -0.3502805  0.00   -0.0384148    0.0183127    0.0021624
c     2.0727284    1.2937243   -0.0043514  0.00    0.0293039   -0.0050836    0.0035148
c     1.1923753    0.3373220   -0.4775932  0.00    0.0058647   -0.0390372   -0.0123340
c    -0.1336183    0.6883125   -0.6391260  0.00   -0.0133932   -0.0207732   -0.0093593
o    -0.1096083    4.1843546    0.3618480  0.00   -0.0222100   -0.0077666   -0.0173428
h    -0.4022423    4.6159943   -0.4929533  0.00    0.0171834   -0.0128428    0.0135755
h    -0.8712161   -0.0227771   -0.9939544  0.00   -0.0028738    0.0046752   -0.0005851
h     3.1214275    1.0460759    0.1523513  0.00    0.0016678   -0.0003668   -0.0003487
h     2.3461994    3.3113400    0.6457250  0.00    0.0045940   -0.0022254   -0.0005107
h    -1.6021797    2.2394629   -0.4792148  0.00   -0.0011871    0.0004448   -0.0003846
c     1.7235911   -1.0714189   -0.7087142  0.00    0.0019317    0.0011005   -0.0079089
c     0.9134086   -1.9753167   -1.6806456  0.00    0.0150398    0.0535984   -0.0276332
h     1.8348756   -1.5831269    0.2795604  0.00    0.0014743   -0.0019162    0.0060958
h     2.7631802   -0.9691940   -1.1176456  0.00    0.0063268    0.0034655   -0.0010356
c     1.7923749   -3.1279830   -2.1672392  0.00    0.0152144   -0.1608824    0.0969413
o     2.1345618   -4.1385117   -1.3959682  0.00   -0.0260914    0.1011894   -0.0693725
o     2.3150742   -3.0043772   -3.4401911  0.00    0.0242636    0.0600328    0.0274453
h     2.0174337   -3.8546300   -3.9537853  0.00   -0.0326661   -0.0299902   -0.0195225
n    -0.3347329   -2.5261089   -1.0617986  0.00   -0.0203555   -0.0459830    0.0035109
h     0.6458477   -1.4011197   -2.5943917  0.00   -0.0008980   -0.0037564    0.0022567
h    -0.3420215   -3.5629095   -1.1584549  0.00    0.0189346    0.0158152   -0.0059935
h    -0.3592290   -2.3501172   -0.0327459  0.00   -0.0018869    0.0002185   -0.0055032
    24
 Energy =       0.0873622661
c     1.6985571    2.5573489    0.2830278  0.00    0.0185128    0.0282654    0.0096365
c     0.3911419    2.9080762    0.1069691  0.00   -0.0017139    0.0375627    0.0108314
c    -0.5084750    1.9919401   -0.3601063  0.00   -0.0354089    0.0167258    0.0019074
c     2.1124521    1.2832204   -0.0201047  0.00    0.0270263   -0.0046365    0.0033465
c     1.2214079    0.3450442   -0.5049521  0.00    0.0050697   -0.0357877   -0.0114028
c    -0.0990686    0.7151784   -0.6647757  0.00   -0.0123957   -0.0191988   -0.0085075
o    -0.0323334    4.1938231    0.3912824  0.00   -0.0201586   -0.0071845   -0.0147921
h    -0.3031927    4.6551677   -0.4572630  0.00    0.0154568   -0.0111579    0.0114795
h    -0.8462913    0.0200820   -1.0312296  0.00   -0.0028302    0.0041323   -0.0005986
h     3.1580052    1.0200705    0.1326251  0.00    0.0016707   -0.0003916   -0.0002885
h     2.4089124    3.2876402    0.6583999  0.00    0.0043306   -0.0018846   -0.0003947
h    -1.5479081    2.2810811   -0.4859299  0.00   -0.0012181    0.0004298   -0.0003731
c     1.7400508   -1.0643604   -0.7645773  0.00    0.0015405    0.0028789   -0.0060046
c     0.8629949   -1.9796129   -1.6697518  0.00    0.0152623    0.0498900   -0.0275151
h     1.9164319   -1.5689908    0.2197564  0.00    0.0018656   -0.0021775    0.0076818
h     2.7505364   -0.9633449   -1.2454186  0.00    0.0084605    0.0035059   -0.0021577
c     1.6869166   -3.1682567   -2.1698318  0.00    0.0136876   -0.1485022    0.0898179
o     2.0346189   -4.1722501   -1.3819078  0.00   -0.0238108    0.0926623   -0.0632224
o     2.1563211   -3.0958067   -3.4694102  0.00    0.0250299    0.0578560    0.0230371
h     1.8812766   -3.9813007   -3.9329343  0.00   -0.0310203   -0.0304979   -0.0192521
n    -0.3682586   -2.4758828   -0.9728961  0.00   -0.0235659   -0.0427158    0.0022359
h     0.5654776   -1.4256705   -2.5878362  0.00   -0.0008518   -0.0033493    0.0012815
h    -0.4231303   -3.5139933   -1.0537482  0.00    0.0168526    0.0124684   -0.0056902
h    -0.3233386   -2.2873649    0.0560224  0.00   -0.0017915    0.0011067   -0.0010563
    24
 Energy =       0.0821934211
c     1.7466297    2.5442133    0.2736981  0.00    0.0149524    0.0226835    0.0077161
c     0.4494757    2.9172623    0.0893921  0.00   -0.0014826    0.0299053    0.0086011
c    -0.4585367    2.0216037   -0.3922697  0.00   -0.0285490    0.0132481    0.0014609
c     2.1426084    1.2689334   -0.0340675  0.00    0.0218003   -0.0036059    0.0027405
c     1.2422955    0.3511864   -0.5307044  0.00    0.0040892   -0.0286295   -0.0090657
c    -0.0683530    0.7436255   -0.7013758  0.00   -0.0101157   -0.0154105   -0.0067138
o     0.0470110    4.2087724    0.3856536  0.00   -0.0153773   -0.0075376   -0.0082066
h    -0.1635230    4.7052733   -0.4660167  0.00    0.0116241   -0.0067660    0.0056689
h    -0.8240282    0.0645428   -1.0805248  0.00   -0.0025032    0.0032345   -0.0005390
h     3.1824352    0.9876987    0.1249624  0.00    0.0015434   -0.0003560   -0.0001943
h     2.4631626    3.2614532    0.6622750  0.00    0.0036056   -0.0013685   -0.0002470
h    -1.4918262    2.3290752   -0.5249124  0.00   -0.0011955    0.0003734   -0.0003350
c     1.7429338   -1.0626942   -0.8049579  0.00    0.0013466    0.0036326   -0.0038399
c     0.8141406   -1.9842776   -1.6516531  0.00    0.0137167    0.0406869   -0.0233801
h     1.9639310   -1.5594840    0.1739785  0.00    0.0017653   -0.0018535    0.0071932
h     2.7276379   -0.9716761   -1.3372949  0.00    0.0082470    0.0030243   -0.0024105
c     1.5877857   -3.2048125   -2.1545360  0.00    0.0095033   -0.1198714    0.0730377
o     1.9544564   -4.1938320   -1.3330287  0.00   -0.0187421    0.0737587   -0.0490268
o     1.9975680   -3.1994268   -3.4791559  0.00    0.0247905    0.0561226    0.0171182
h     1.7942192   -4.1385109   -3.8694357  0.00   -0.0275574   -0.0340094   -0.0189680
n    -0.4027306   -2.4205457   -0.8939039  0.00   -0.0220143   -0.0335470    0.0015663
h     0.4977708   -1.4477675   -2.5747909  0.00   -0.0006561   -0.0025914    0.0005764
h    -0.4963830   -3.4608854   -0.9330778  0.00    0.0127697    0.0074638   -0.0043480
h    -0.3155762   -2.1978897    0.1271561  0.00   -0.0015605    0.0014131    0.0015956
    24
 Energy =       0.0788074218
c     1.7721741    2.5429311    0.2395160  0.00    0.0118500    0.0177045    0.0060667
c     0.4855656    2.9329624    0.0348144  0.00   -0.0013751    0.0233212    0.0066641
c    -0.4255258    2.0499881   -0.4566378  0.00   -0.0225035    0.0103872    0.0011805
c     2.1548965    1.2638188   -0.0561831  0.00    0.0172065   -0.0028781    0.0020982
c     1.2507911    0.3587255   -0.5603326  0.00    0.0035789   -0.0224105   -0.0070610
c    -0.0493586    0.7684024   -0.7549191  0.00   -0.0081928   -0.0119062   -0.0051810
o     0.0983419    4.2325363    0.3221997  0.00   -0.0114098   -0.0086495   -0.0013056
h    -0.0327076    4.7513939   -0.5381483  0.00    0.0084141   -0.0023470   -0.0006005
h    -0.8083120    0.0989507   -1.1444620  0.00   -0.0021536    0.0026933   -0.0004237
h     3.1881584    0.9687360    0.1196258  0.00    0.0014571   -0.0003736   -0.0001261
h     2.4909079    3.2528680    0.6369168  0.00    0.0028976   -0.0010393   -0.0001761
h    -1.4520554    2.3720619   -0.6063686  0.00   -0.0012085    0.0003808   -0.0002939
c     1.7375805   -1.0622676   -0.8240709  0.00    0.0012126    0.0037865   -0.0024510
c     0.7802407   -1.9984757   -1.6207546  0.00    0.0118210    0.0324018   -0.0191555
h     1.9837293   -1.5423879    0.1562540  0.00    0.0014666   -0.0015280    0.0060845
h     2.7049313   -0.9861405   -1.3868160  0.00    0.0070702    0.0025991   -0.0021644
c     1.5240577   -3.2489958   -2.0933062  0.00    0.0057660   -0.0940821    0.0572246
o     1.9083589   -4.2050793   -1.2207511  0.00   -0.0139141    0.0565716   -0.0356253
o     1.8979338   -3.3200100   -3.4284858  0.00    0.0225301    0.0526571    0.0121641
h     1.7661252   -4.2972641   -3.7467224  0.00   -0.0233229   -0.0352091   -0.0177611
n    -0.4308259   -2.3764358   -0.8260042  0.00   -0.0187324   -0.0237416   -0.0013643
h     0.4599003   -1.4895996   -2.5590063  0.00   -0.0003665   -0.0017532   -0.0000939
h    -0.5348643   -3.4194894   -0.7904405  0.00    0.0091707    0.0013813   -0.0029013
h    -0.3369390   -2.0853915    0.1794923  0.00   -0.0012621    0.0020338    0.0052020
    24
 Energy =       0.0756772567
c     1.7998271    2.5383666    0.2148593  0.00    0.0088492    0.0133528    0.0046262
c     0.5174944    2.9369525    0.0142500  0.00   -0.0010709    0.0174541    0.0048848
c    -0.4022114    2.0583353   -0.4618044  0.00   -0.0169171    0.0078025    0.0007446
c     2.1704405    1.2563422   -0.0720174  0.00    0.0129510   -0.0021413    0.0015888
c     1.2575628    0.3569164   -0.5627097  0.00    0.0025660   -0.0168211   -0.0053242
c    -0.0393143    0.7736141   -0.7503090  0.00   -0.0061267   -0.0090047   -0.0039944
o     0.1437101    4.2438239    0.2917390  0.00   -0.0081408   -0.0092228    0.0041132
h     0.0934901    4.7806068   -0.5708241  0.00    0.0059627    0.0011342   -0.0055803
h    -0.8063086    0.1054450   -1.1265515  0.00   -0.0016510    0.0018312   -0.0004513
h     3.2026029    0.9549769    0.0977938  0.00    0.0011250   -0.0002701   -0.0000836
h     2.5250580    3.2469727    0.6022685  0.00    0.0021989   -0.0006888   -0.0001424
h    -1.4266930    2.3879208   -0.6076558  0.00   -0.0009399    0.0003171   -0.0003071
c     1.7336488   -1.0662740   -0.8343857  0.00    0.0011443    0.0032874   -0.0013995
c     0.7433475   -2.0016572   -1.5890725  0.00    0.0098245    0.0241508   -0.0145510
h     2.0146153   -1.5419356    0.1376926  0.00    0.0012584   -0.0012384    0.0052013
h     2.6785205   -0.9955999   -1.4327075  0.00    0.0060435    0.0019952   -0.0019894
c     1.4621059   -3.2466034   -2.1062906  0.00    0.0023050   -0.0705381    0.0451739
o     1.9220112   -4.2009661   -1.2498610  0.00   -0.0091115    0.0402968   -0.0236168
o     1.7391807   -3.3317464   -3.4672990  0.00    0.0196215    0.0489049    0.0032348
h     1.6966721   -4.3273731   -3.7429252  0.00   -0.0188406   -0.0343623   -0.0136163
n    -0.4320879   -2.3698957   -0.7414686  0.00   -0.0164654   -0.0180183   -0.0017242
h     0.3826716   -1.4891805   -2.5118980  0.00   -0.0007131   -0.0010010   -0.0008239
h    -0.5572427   -3.4114952   -0.7185967  0.00    0.0070441    0.0004702   -0.0021996
h    -0.2859966   -2.0957082    0.2631828  0.00   -0.0009171    0.0023096    0.0062364
    24
 Energy =       0.0739777674
c     1.8188865    2.5113057    0.2588634  0.00    0.0072655    0.0107210    0.0037761
c     0.5333532    2.9130697    0.0937553  0.00   -0.0010474    0.0137544    0.0037009
c    -0.3951454    2.0440141   -0.3784468  0.00   -0.0137576    0.0066464    0.0005337
c     2.1839405    1.2366868   -0.0607969  0.00    0.0105505   -0.0020448    0.0012891
c     1.2620780    0.3482253   -0.5499500  0.00    0.0020461   -0.0131514   -0.0040270
c    -0.0385332    0.7665353   -0.6988802  0.00   -0.0051917   -0.0071538   -0.0032408
o     0.1645245    4.2144080    0.4075491  0.00   -0.0067501   -0.0077940    0.0054681
h     0.1500846    4.7847585   -0.4355197  0.00    0.0046242    0.0021069   -0.0064298
h    -0.8134705    0.1042929   -1.0694899  0.00   -0.0014221    0.0014619   -0.0003979
h     3.2200949    0.9329105    0.0792939  0.00    0.0013315   -0.0004335   -0.0000223
h     2.5508875    3.2128888    0.6460268  0.00    0.0017866   -0.0005053   -0.0000821
h    -1.4229666    2.3758586   -0.4944899  0.00   -0.0011723    0.0004785   -0.0002764
c     1.7353294   -1.0656388   -0.8750591  0.00    0.0009511    0.0022940   -0.0012462
c     0.7206485   -1.9838456   -1.6169639  0.00    0.0086143    0.0198248   -0.0112702
h     2.0546419   -1.5651716    0.0730065  0.00    0.0014110   -0.0014410    0.0052361
h     2.6565957   -0.9756654   -1.5059631  0.00    0.0055660    0.0013853   -0.0021953
c     1.4239231   -3.2019318   -2.2132292  0.00   -0.0006185   -0.0543075    0.0375463
o     1.9854461   -4.1618308   -1.4086141  0.00   -0.0038747    0.0267910   -0.0132716
o     1.5885686   -3.2649837   -3.5977921  0.00    0.0168568    0.0447714   -0.0067956
h     1.6182657   -4.2586715   -3.8720141  0.00   -0.0154480   -0.0316209   -0.0102631
n    -0.4135963   -2.3832053   -0.7295741  0.00   -0.0155213   -0.0131117   -0.0025666
h     0.3158520   -1.4423199   -2.5063894  0.00   -0.0013700    0.0001267   -0.0021043
h    -0.5474611   -3.4248163   -0.7495991  0.00    0.0056647   -0.0013003   -0.0018821
h    -0.2188428   -2.1550356    0.2796861  0.00   -0.0004948    0.0025019    0.0085208
    24
 Energy =       0.0729668332
c     1.8614832    2.4907892    0.2612232  0.00    0.0067232    0.0098512    0.0034955
c     0.5820870    2.9123852    0.1008392  0.00   -0.0009825    0.0125003    0.0034036