    24
 Energy =       0.1197119099
c    -0.7768788    1.7943103   -0.4781535  0.00   -0.0846641    0.0244879   -0.0070946
c     0.0064882    2.8453086   -0.0230448  0.00   -0.0637612    0.0848129    0.0132541
c     1.3700353    2.6765253    0.1685838  0.00    0.0214051    0.1117084    0.0361216
c    -0.1766024    0.5615624   -0.7505246  0.00   -0.0413816   -0.0597867   -0.0295254
c     1.2047783    0.3610782   -0.5608861  0.00    0.1237356   -0.0617634    0.0131670
c     1.9654211    1.4381490   -0.0909449  0.00    0.0533946   -0.0112048    0.0042588
o    -0.5275926    4.0678125    0.2538392  0.00    0.0827566    0.0109594    0.0178780
h     0.1888266    4.6643703    0.5261819  0.00   -0.0143592   -0.0863626   -0.0268573
h     3.0286659    1.3541351    0.0943202  0.00   -0.0044766    0.0149168    0.0065277
h    -0.8013460   -0.2557043   -1.1091948  0.00    0.0112117   -0.0247335   -0.0055145
h    -1.8455634    1.9101661   -0.6277603  0.00   -0.0023361   -0.0119408   -0.0036687
h     1.9718664    3.5079297    0.5256195  0.00   -0.0106836    0.0095828   -0.0001757
c     1.7669373   -1.0073413   -0.8964724  0.00   -0.0198858   -0.0347483   -0.0539407
c     0.8861134   -2.0194266   -1.6556448  0.00    0.0649260    0.1562140    0.0050927
h     2.1212937   -1.4658931    0.0371405  0.00   -0.0009359    0.0076007   -0.0109201
h     2.6645729   -0.8285312   -1.5058794  0.00   -0.0100842   -0.0243113   -0.0024405
c     1.7481012   -3.2276699   -2.0845864  0.00   -0.0844769   -0.4112164   -0.0153952
o     1.3811872   -4.3909871   -2.1326929  0.00    0.0919892    0.2837436    0.0162646
o     3.0187337   -2.8368894   -2.3754934  0.00   -0.0461265    0.0722709    0.0361303
h     3.5228656   -3.6775189   -2.5199890  0.00   -0.0371717    0.0215646    0.0140099
n    -0.2697763   -2.5678537   -0.8742070  0.00   -0.0402322   -0.1041687   -0.0081782
h     0.4960411   -1.5757973   -2.5789902  0.00   -0.0077587   -0.0132745    0.0202169
h    -0.8901700   -3.0584194   -1.5285531  0.00    0.0264817    0.0182202    0.0215932
h     0.0755830   -3.3048635   -0.2552740  0.00   -0.0075659    0.0274289   -0.0408039
    24
 Energy =       0.0987424563
c    -0.8120206    1.7802113   -0.5706085  0.00   -0.0715086    0.0208270   -0.0056705
c    -0.0562926    2.8418664   -0.1120054  0.00   -0.0524190    0.0695813    0.0114409
c     1.2961794    2.6871700    0.1319261  0.00    0.0191874    0.0937201    0.0307696
c    -0.1983143    0.5543596   -0.8093542  0.00   -0.0355663   -0.0499768   -0.0248948
c     1.1731738    0.3736442   -0.5776293  0.00    0.1039572   -0.0511924    0.0106236
c     1.9072012    1.4572143   -0.0964201  0.00    0.0456275   -0.0097425    0.0034595
o    -0.6218869    4.0702100    0.0950861  0.00    0.0646447    0.0101714    0.0136149
h     0.0635437    4.6905726    0.4170288  0.00   -0.0095260   -0.0710670   -0.0215696
h     2.9662015    1.3778250    0.1214348  0.00   -0.0031762    0.0123615    0.0056105
h    -0.8050187   -0.2715955   -1.1803435  0.00    0.0087438   -0.0205557   -0.0049696
h    -1.8753710    1.8933220   -0.7605911  0.00   -0.0028207   -0.0097819   -0.0032074
h     1.8782071    3.5292343    0.4970681  0.00   -0.0088366    0.0083310    0.0000452
c     1.7872217   -0.9822385   -0.8650185  0.00   -0.0156819   -0.0288913   -0.0452151
c     0.9406456   -2.0505669   -1.5850327  0.00    0.0546360    0.1298866    0.0042142
h     2.1621143   -1.3973269    0.0848249  0.00   -0.0002242    0.0059268   -0.0081353
h     2.6749073   -0.7900282   -1.4896147  0.00   -0.0084004   -0.0198847   -0.0021737
c     1.8365156   -3.2367803   -1.9882528  0.00   -0.0716731   -0.3461089   -0.0130423
o     1.4815407   -4.4318887   -2.0359967  0.00    0.0772973    0.2381474    0.0139385
o     3.1097375   -2.8419177   -2.2854806  0.00   -0.0423162    0.0673074    0.0328856
h     3.6030427   -3.6757293   -2.5286070  0.00   -0.0272679    0.0115642    0.0091749
n    -0.1976755   -2.5826575   -0.7744480  0.00   -0.0327012   -0.0854882   -0.0050563
h     0.5409900   -1.6465650   -2.5273227  0.00   -0.0067967   -0.0107552    0.0160204
h    -0.8682270   -3.0304650   -1.4179061  0.00    0.0202442    0.0138682    0.0156326
h     0.1431661   -3.3534182   -0.1853434  0.00   -0.0054233    0.0217517   -0.0334959
    24
 Energy =       0.0722381775
c    -0.8595778    1.7393712   -0.5963167  0.00   -0.0476545    0.0139935   -0.0038537
c    -0.1338098    2.8081625   -0.1380547  0.00   -0.0336330    0.0456299    0.0073670
c     1.2134528    2.6813649    0.0985135  0.00    0.0128302    0.0634241    0.0206585
c    -0.2318835    0.5342700   -0.8356395  0.00   -0.0242925   -0.0330226   -0.0166106
c     1.1309897    0.3842757   -0.6048165  0.00    0.0682675   -0.0333396    0.0070760
c     1.8415251    1.4731629   -0.1298037  0.00    0.0306056   -0.0067867    0.0023739
o    -0.7522249    4.0186445    0.0811921  0.00    0.0400624    0.0052501    0.0085963
h    -0.0952094    4.6956021    0.3866048  0.00   -0.0037747   -0.0460014   -0.0137556
h     2.9048168    1.4044702    0.0771899  0.00   -0.0020022    0.0080291    0.0036716
h    -0.8261404   -0.2985607   -1.2060300  0.00    0.0056526   -0.0139346   -0.0035464
h    -1.9250390    1.8412794   -0.7789117  0.00   -0.0019832   -0.0064066   -0.0021060
h     1.7795896    3.5332182    0.4646151  0.00   -0.0061966    0.0060161    0.0000663
c     1.8160790   -0.9409816   -0.8814028  0.00   -0.0096450   -0.0192490   -0.0300103
c     1.0030519   -2.0644458   -1.5577387  0.00    0.0379746    0.0856442    0.0022060
h     2.2341732   -1.3233346    0.0697869  0.00    0.0006648    0.0032507   -0.0043720
h     2.6797360   -0.7158886   -1.5377311  0.00   -0.0047240   -0.0129531   -0.0025391
c     1.9375486   -3.2120915   -1.9624605  0.00   -0.0490378   -0.2304169   -0.0098852
o     1.5865612   -4.4579611   -2.0039254  0.00    0.0521553    0.1584597    0.0100645
o     3.2225419   -2.8289236   -2.2599176  0.00   -0.0284092    0.0460094    0.0228307
h     3.7282191   -3.6678988   -2.4789902  0.00   -0.0180234    0.0071348    0.0062596
n    -0.0897276   -2.5841553   -0.6857535  0.00   -0.0175579   -0.0489700    0.0041151
h     0.5695946   -1.6919803   -2.5053646  0.00   -0.0049727   -0.0065000    0.0096317
h    -0.8555738   -2.9479396   -1.2961884  0.00    0.0036621    0.0055325    0.0016112
h     0.2508884   -3.4152080   -0.1614629  0.00    0.0000316    0.0092064   -0.0198497
    24
 Energy =       0.0707989015
c    -0.8860639    1.7109919   -0.6077789  0.00   -0.0430623    0.0126843   -0.0035071
c    -0.1782844    2.7886956   -0.1481043  0.00   -0.0301232    0.0410217    0.0066283
c     1.1696349    2.6824264    0.0859644  0.00    0.0116903    0.0572281    0.0186516
c    -0.2414921    0.5182856   -0.8525517  0.00   -0.0220266   -0.0297655   -0.0149803
c     1.1210869    0.3897012   -0.6223607  0.00    0.0606702   -0.0296448    0.0060013
c     1.8147500    1.4867594   -0.1468386  0.00    0.0277353   -0.0061571    0.0021614
o    -0.8213566    3.9879721    0.0734478  0.00    0.0350903    0.0043301    0.0075447
h    -0.1762795    4.6896493    0.3559506  0.00   -0.0027164   -0.0407011   -0.0121662
h     2.8807913    1.4333793    0.0528985  0.00   -0.0016348    0.0071748    0.0033126
h    -0.8220850   -0.3210080   -1.2283036  0.00    0.0048829   -0.0131045   -0.0032051
h    -1.9530927    1.7990841   -0.7886728  0.00   -0.0018940   -0.0057460   -0.0019042
h     1.7233794    3.5419406    0.4531814  0.00   -0.0055258    0.0055215    0.0001045
c     1.8418457   -0.9114809   -0.9220535  0.00   -0.0099051   -0.0161942   -0.0266509
c     1.0340030   -2.0845441   -1.5224323  0.00    0.0355962    0.0747121    0.0006595
h     2.3411288   -1.2605691    0.0080228  0.00    0.0024585    0.0015217   -0.0007513
h     2.6504049   -0.6617786   -1.6442282  0.00   -0.0015898   -0.0097339   -0.0045052
c     1.9888449   -3.2158950   -1.9280888  0.00   -0.0449397   -0.2079396   -0.0091124
o     1.6585342   -4.4777192   -1.9653404  0.00    0.0466118    0.1424487    0.0094366
o     3.2685941   -2.8177051   -2.2395279  0.00   -0.0252282    0.0413594    0.0204905
h     3.7866407   -3.6499613   -2.4594395  0.00   -0.0161100    0.0063030    0.0055747
n    -0.0152763   -2.5895376   -0.5861586  0.00   -0.0023329   -0.0185185    0.0170306
h     0.5601002   -1.7580742   -2.4713243  0.00   -0.0050005   -0.0047404    0.0068535
h    -0.8973162   -2.7926544   -1.1463482  0.00   -0.0234760   -0.0000121   -0.0178591
h     0.2810891   -3.5235061   -0.1925196  0.00    0.0108298   -0.0120476   -0.0098080
    24
 Energy =       0.0631703624
c    -0.8955592    1.7120198   -0.6671862  0.00   -0.0346274    0.0103956   -0.0025535
c    -0.1996574    2.7920706   -0.2063017  0.00   -0.0238436    0.0324651    0.0054426
c     1.1392444    2.6847712    0.0607567  0.00    0.0094745    0.0456887    0.0149858
c    -0.2511789    0.5176762   -0.8804748  0.00   -0.0177119   -0.0237716   -0.0120313
c     1.1019298    0.3908626   -0.6199011  0.00    0.0466423   -0.0226381    0.0045316
c     1.7851156    1.4887606   -0.1419440  0.00    0.0223661   -0.0051267    0.0016719
o    -0.8533503    3.9963402   -0.0201848  0.00    0.0261698    0.0031411    0.0052857
h    -0.2275029    4.7062214    0.2991838  0.00   -0.0010647   -0.0316491   -0.0091440
h     2.8457921    1.4305982    0.0876332  0.00   -0.0007996    0.0055354    0.0027314
h    -0.8279061   -0.3236289   -1.2546921  0.00    0.0038711   -0.0105301   -0.0026135
h    -1.9578485    1.8033534   -0.8733501  0.00   -0.0018538   -0.0044550   -0.0015575
h     1.6872172    3.5459841    0.4317712  0.00   -0.0043963    0.0044320    0.0001130
c     1.8351007   -0.9213698   -0.8468302  0.00   -0.0106780   -0.0128230   -0.0217250
c     1.0640483   -2.0804387   -1.5223025  0.00    0.0284123    0.0587930   -0.0013146
h     2.2336458   -1.2785381    0.1338661  0.00    0.0042644   -0.0002971    0.0048088
h     2.7214833   -0.6830591   -1.4854751  0.00    0.0036822   -0.0066244   -0.0070453
c     2.0388387   -3.2056712   -1.8932068  0.00   -0.0356393   -0.1652840   -0.0078087
o     1.7043401   -4.4848560   -1.9168340  0.00    0.0373030    0.1131294    0.0076580
o     3.3319670   -2.8222756   -2.1787064  0.00   -0.0201967    0.0337615    0.0166077
h     3.8571468   -3.6618338   -2.3619813  0.00   -0.0120375    0.0040738    0.0043390
n    -0.0318276   -2.5876107   -0.6438534  0.00   -0.0026315   -0.0131344    0.0171782
h     0.6434451   -1.7307502   -2.4903811  0.00   -0.0045882   -0.0034398    0.0038175
h    -0.8740475   -2.8223625   -1.2487204  0.00   -0.0218368   -0.0003935   -0.0162210
h     0.2591449   -3.5018117   -0.2034912  0.00    0.0097194   -0.0112488   -0.0071568
    24
 Energy =       0.0568192216
c    -0.9455308    1.6781064   -0.7420170  0.00   -0.0252202    0.0075428   -0.0017110
c    -0.2839339    2.7732693   -0.2775540  0.00   -0.0165042    0.0228157    0.0040268
c     1.0470104    2.6920268    0.0219031  0.00    0.0072751    0.0328126    0.0109063
c    -0.2791333    0.4956176   -0.9242956  0.00   -0.0132264   -0.0170340   -0.0087400
c     1.0648620    0.3975448   -0.6306101  0.00    0.0323172   -0.0156972    0.0031879
c     1.7157695    1.5093900   -0.1508235  0.00    0.0165151   -0.0038097    0.0012502
o    -0.9747177    3.9666494   -0.1217672  0.00    0.0163567    0.0016615    0.0028730
h    -0.3862560    4.7031899    0.2240936  0.00    0.0004667   -0.0208771   -0.0056692
h     2.7721205    1.4685423    0.1053897  0.00    0.0000133    0.0037898    0.0020640
h    -0.8341230   -0.3586808   -1.3003365  0.00    0.0024251   -0.0077270   -0.0020604
h    -2.0041466    1.7519561   -0.9735955  0.00   -0.0018414   -0.0030463   -0.0011919
h     1.5722258    3.5655636    0.3971053  0.00   -0.0029215    0.0034678    0.0002318
c     1.8394718   -0.9013735   -0.7990758  0.00   -0.0077584   -0.0090761   -0.0149357
c     1.1334386   -2.0827976   -1.5076675  0.00    0.0193447    0.0408853   -0.0019213
h     2.1836473   -1.2412269    0.2082483  0.00    0.0038235   -0.0002936    0.0052152
h     2.7597624   -0.6520807   -1.3842143  0.00    0.0042402   -0.0047868   -0.0061367
c     2.1532829   -3.1841111   -1.8257729  0.00   -0.0255159   -0.1168445   -0.0065973
o     1.8400192   -4.4896261   -1.8350081  0.00    0.0271205    0.0790576    0.0057386
o     3.4562737   -2.7925260   -2.0727337  0.00   -0.0140288    0.0250676    0.0121293
h     4.0047519   -3.6283401   -2.2154739  0.00   -0.0072480    0.0015472    0.0029549
n     0.0142817   -2.5967564   -0.6693917  0.00   -0.0013379   -0.0050195    0.0144932
h     0.7493283   -1.7442015   -2.4962509  0.00   -0.0036642   -0.0024791    0.0018452
h    -0.7851453   -2.8891124   -1.3031588  0.00   -0.0192668   -0.0008758   -0.0142787
h     0.3163221   -3.4765710   -0.1695992  0.00    0.0086354   -0.0110813   -0.0036743
    24
 Energy =       0.0560733711
c    -0.9896591    1.6398934   -0.7753449  0.00   -0.0234453    0.0064905   -0.0017777
c    -0.3619319    2.7421383   -0.2820269  0.00   -0.0147416    0.0205303    0.0035622
c     0.9678197    2.6896353    0.0271855  0.00    0.0070873    0.0301371    0.0100168
c    -0.2941239    0.4761470   -0.9656443  0.00   -0.0123710   -0.0160118   -0.0081583
c     1.0464051    0.4054205   -0.6530789  0.00    0.0294771   -0.0145395    0.0027663
c     1.6657568    1.5262712   -0.1540974  0.00    0.0155685   -0.0034721    0.0012691
o    -1.0902408    3.9113180   -0.1007831  0.00    0.0102101   -0.0028436   -0.0004772
h    -0.5450091    4.6414717    0.3341564  0.00    0.0041936   -0.0128103   -0.0015791
h     2.7203830    1.5065115    0.1131366  0.00    0.0003230    0.0034807    0.0019692
h    -0.8240257   -0.3858355   -1.3609258  0.00    0.0018890   -0.0074382   -0.0020945
h    -2.0476776    1.6921381   -1.0162561  0.00   -0.0019855   -0.0027754   -0.0011546
h     1.4682724    3.5701376    0.4207014  0.00   -0.0023397    0.0035740    0.0003931
c     1.8571029   -0.8714251   -0.8190759  0.00   -0.0068638   -0.0082491   -0.0132098
c     1.1880701   -2.0786875   -1.5201492  0.00    0.0170134    0.0371910   -0.0016779
h     2.2113876   -1.1976310    0.1890835  0.00    0.0035803   -0.0003880    0.0048500
h     2.7695070   -0.5982090   -1.4057093  0.00    0.0041068   -0.0040754   -0.0056686
c     2.2394992   -3.1605873   -1.8031779  0.00   -0.0236659   -0.1064424   -0.0061741
o     1.9549895   -4.4774885   -1.8017063  0.00    0.0248830    0.0712660    0.0052646
o     3.5429488   -2.7472217   -2.0198357  0.00   -0.0124165    0.0234536    0.0110098
h     4.1133235   -3.5737115   -2.1347450  0.00   -0.0058242    0.0005971    0.0025661
n     0.0676636   -2.6010710   -0.6902800  0.00   -0.0011788   -0.0042080    0.0133711
h     0.8123203   -1.7625693   -2.5197659  0.00   -0.0035511   -0.0022187    0.0013914
h    -0.7191469   -2.9127160   -1.3288286  0.00   -0.0179093   -0.0008856   -0.0132619
h     0.3759472   -3.4694773   -0.1754388  0.00    0.0079607   -0.0103621   -0.0031962
    24
 Energy =       0.0559139023
c    -1.0402808    1.5962249   -0.8391760  0.00   -0.0226552    0.0061939   -0.0017983
c    -0.4455947    2.7198891   -0.3532261  0.00   -0.0137896    0.0190696    0.0033306
c     0.8780017    2.6994559   -0.0141479  0.00    0.0071234    0.0286166    0.0096541
c    -0.3174027    0.4440061   -0.9964276  0.00   -0.0119725   -0.0154947   -0.0078991
c     1.0174782    0.4073875   -0.6565633  0.00    0.0275708   -0.0138244    0.0026383
c     1.6028026    1.5483203   -0.1621376  0.00    0.0153306   -0.0033521    0.0013603
o    -1.2024737    3.8782834   -0.2136442  0.00    0.0079859   -0.0023068   -0.0008370
h    -0.6787139    4.6363395    0.2014541  0.00    0.0043903   -0.0107866   -0.0009526
h     2.6522505    1.5541818    0.1280077  0.00    0.0009406    0.0032306    0.0020142
h    -0.8205294   -0.4357831   -1.3885190  0.00    0.0014454   -0.0073724   -0.0021864
h    -2.0941920    1.6235637   -1.1033972  0.00   -0.0024769   -0.0025342   -0.0012219
h     1.3524954    3.5963396    0.3756707  0.00   -0.0019084    0.0037453    0.0005658
c     1.8618099   -0.8524681   -0.7799910  0.00   -0.0060096   -0.0074822   -0.0117523
c     1.2512479   -2.0842684   -1.4938597  0.00    0.0150942    0.0348076   -0.0020603
h     2.1880562   -1.1600947    0.2437131  0.00    0.0036667   -0.0002949    0.0052162
h     2.7880883   -0.5616066   -1.3360466  0.00    0.0044769   -0.0037164   -0.0056154
c     2.3462847   -3.1376234   -1.7265202  0.00   -0.0226257   -0.0993094   -0.0062793
o     2.1061307   -4.4671517   -1.7127010  0.00    0.0235295    0.0650151    0.0049080
o     3.6470214   -2.6887036   -1.8990604  0.00   -0.0107848    0.0233854    0.0101473
h     4.2483585   -3.4992463   -1.9759919  0.00   -0.0038396   -0.0010039    0.0022119
n     0.1160732   -2.6269361   -0.6972904  0.00   -0.0017316   -0.0036631    0.0134523
h     0.9026206   -1.7869917   -2.5096121  0.00   -0.0036908   -0.0021524    0.0006749
h    -0.6502546   -2.9455931   -1.3560999  0.00   -0.0173136   -0.0010461   -0.0127977
h     0.4203036   -3.4930732   -0.1770398  0.00    0.0072441   -0.0097244   -0.0027737
    24
 Energy =       0.0527473847
c    -1.0208445    1.6098927   -0.9015261  0.00   -0.0177894    0.0050273   -0.0013009
c    -0.4283417    2.7377222   -0.4298070  0.00   -0.0107723    0.0142834    0.0026031
c     0.8868062    2.7128083   -0.0654470  0.00    0.0055429    0.0221453    0.0075972
c    -0.3049837    0.4519880   -1.0237247  0.00   -0.0091815   -0.0122878   -0.0062229
c     1.0221196    0.4125010   -0.6622352  0.00    0.0214339   -0.0106795    0.0019182
c     1.6055308    1.5563213   -0.1791636  0.00    0.0121241   -0.0028916    0.0009823
o    -1.1810825    3.9063247   -0.3347342  0.00    0.0048342   -0.0019119   -0.0011599
h    -0.6557003    4.6847443    0.0427009  0.00    0.0037533   -0.0069339   -0.0003784
h     2.6499184    1.5588889    0.1283481  0.00    0.0008670    0.0024411    0.0015989
h    -0.8107721   -0.4293345   -1.4067783  0.00    0.0011082   -0.0058032   -0.0017774
h    -2.0692792    1.6410258   -1.1855112  0.00   -0.0021821   -0.0018949   -0.0010220
h     1.3613774    3.6125897    0.3161366  0.00   -0.0015410    0.0029475    0.0004584
c     1.8634139   -0.8549868   -0.7453207  0.00   -0.0045880   -0.0060782   -0.0091904
c     1.2456905   -2.0909410   -1.4433103  0.00    0.0117602    0.0270962   -0.0021050
h     2.1665467   -1.1468536    0.2890211  0.00    0.0029195   -0.0004197    0.0044282
h     2.8023441   -0.5864112   -1.2901703  0.00    0.0038482   -0.0029190   -0.0045683
c     2.3204052   -3.1636237   -1.6651232  0.00   -0.0177001   -0.0764814   -0.0051644
o     2.0373525   -4.4938608   -1.6373953  0.00    0.0176833    0.0492584    0.0040139
o     3.6311314   -2.7538917   -1.8625975  0.00   -0.0076429    0.0192477    0.0079301
h     4.2088553   -3.5815540   -1.9461529  0.00   -0.0023789   -0.0012998    0.0017165
n     0.1050296   -2.6034005   -0.6395979  0.00   -0.0004268    0.0038395    0.0108756
h     0.9022080   -1.8024274   -2.4633927  0.00   -0.0027906   -0.0016218    0.0004559
h    -0.6287453   -2.9962829   -1.2957978  0.00   -0.0167020   -0.0021057   -0.0137162
h     0.4206013   -3.4167870   -0.0410269  0.00    0.0078208   -0.0129582    0.0020274
    24
 Energy =       0.0515657840
c    -0.9667670    1.6618346   -0.8801031  0.00   -0.0168652    0.0046201   -0.0013387
c    -0.3435185    2.7717465   -0.4064027  0.00   -0.0099772    0.0132000    0.0023946
c     0.9730676    2.7117082   -0.0518306  0.00    0.0053615    0.0207121    0.0071576
c    -0.2810286    0.4876868   -1.0132190  0.00   -0.0087084   -0.0116272   -0.0058870
c     1.0471541    0.4125553   -0.6614522  0.00    0.0198014   -0.0100323    0.0017986
c     1.6623928    1.5386638   -0.1769492  0.00    0.0116492   -0.0026087    0.0010646
o    -1.0669501    3.9588004   -0.2986661  0.00    0.0036923   -0.0014253   -0.0011987
h    -0.5200081    4.7234204    0.0779445  0.00    0.0036933   -0.0058824   -0.0001398
h     2.7091631    1.5131917    0.1220739  0.00    0.0012373    0.0022532    0.0016009
h    -0.8132149   -0.3777396   -1.3970569  0.00    0.0007423   -0.0057020   -0.0018211
h    -2.0162770    1.7207308   -1.1563391  0.00   -0.0024289   -0.0017306   -0.0010545
h     1.4729445    3.5972625    0.3312389  0.00   -0.0011946    0.0030593    0.0005801
c     1.8559907   -0.8766524   -0.7602157  0.00   -0.0038047   -0.0053088   -0.0078052
c     1.1864865   -2.0934948   -1.4461517  0.00    0.0101610    0.0252204   -0.0025449
h     2.1687045   -1.1773864    0.2683461  0.00    0.0027652   -0.0003221    0.0041931
h     2.7927533   -0.6354665   -1.3219107  0.00    0.0040310   -0.0025406   -0.0043645
c     2.2177263   -3.2019418   -1.6967348  0.00   -0.0169587   -0.0696288   -0.0049379
o     1.8785994   -4.5225349   -1.6712090  0.00    0.0157408    0.0431567    0.0036868
o     3.5377383   -2.8428945   -1.9330205  0.00   -0.0056430    0.0194129    0.0069869
h     4.0799615   -3.6927977   -2.0420645  0.00   -0.0008713   -0.0027382    0.0013095
n     0.0483396   -2.5707487   -0.6184673  0.00   -0.0011155    0.0041785    0.0105068
h     0.8293389   -1.7931275   -2.4582846  0.00   -0.0027582   -0.0015714    0.0002333
h    -0.6880567   -2.9844433   -1.2577710  0.00   -0.0156421   -0.0021550   -0.0130296
h     0.3650413   -3.3639212    0.0056393  0.00    0.0070922   -0.0125399    0.0026089
    24
 Energy =       0.0502574593
c    -0.9104319    1.7127754   -0.8975138  0.00   -0.0145606    0.0039152   -0.0012038
c    -0.2624630    2.8062143   -0.4216264  0.00   -0.0084917    0.0111165    0.0020106
c     1.0508174    2.7133903   -0.0646265  0.00    0.0046756    0.0176396    0.0061349
c    -0.2537801    0.5234927   -1.0296446  0.00   -0.0075126   -0.0099624   -0.0050447
c     1.0702825    0.4152217   -0.6743149  0.00    0.0168209   -0.0085964    0.0015829
c     1.7116302    1.5250496   -0.1890013  0.00    0.0101717   -0.0021959    0.0009967
o    -0.9585647    4.0108430   -0.3141397  0.00    0.0025632   -0.0008569   -0.0010816
h    -0.3950289    4.7652230    0.0599785  0.00    0.0032444   -0.0046216   -0.0000007
h     2.7572464    1.4732679    0.1108871  0.00    0.0013870    0.0018751    0.0014428
h    -0.8077271   -0.3270238   -1.4153572  0.00    0.0003830   -0.0049899   -0.0016789
h    -1.9575014    1.7979262   -1.1759955  0.00   -0.0023890   -0.0014277   -0.0009768
h     1.5718075    3.5858329    0.3201815  0.00   -0.0008419    0.0028185    0.0006040
c     1.8496046   -0.8932653   -0.7738355  0.00   -0.0029980   -0.0039845   -0.0059009
c     1.1330422   -2.1012719   -1.4286262  0.00    0.0084268    0.0217013   -0.0034146
h     2.1739876   -1.1891625    0.2518581  0.00    0.0023322   -0.0001715    0.0036577
h     2.7810176   -0.6834782   -1.3568751  0.00    0.0040387   -0.0019707   -0.0040138
c     2.1195869   -3.2486988   -1.6805598  0.00   -0.0147421   -0.0576744   -0.0044555
o     1.7198463   -4.5576469   -1.6407513  0.00    0.0121894    0.0337674    0.0032080
o     3.4498899   -2.9489911   -1.9458704  0.00   -0.0030460    0.0181444    0.0055382
h     3.9532866   -3.8225889   -2.0618798  0.00    0.0003207   -0.0037417    0.0008533
n    -0.0058693   -2.5265699   -0.5752172  0.00   -0.0020079    0.0052623    0.0096498
h     0.7693933   -1.8062967   -2.4400019  0.00   -0.0022810   -0.0013934    0.0000903
h    -0.7399289   -2.9752536   -1.1915335  0.00   -0.0138691   -0.0023262   -0.0119848
h     0.3094378   -3.2845376    0.0918591  0.00    0.0061862   -0.0123271    0.0039866
    24
 Energy =       0.0496771726
c    -0.8571069    1.7580209   -0.9879914  0.00   -0.0127237    0.0035149   -0.0010354
c    -0.1984927    2.8403978   -0.5041998  0.00   -0.0073839    0.0093529    0.0016682
c     1.1051268    2.7236707   -0.1214035  0.00    0.0042300    0.0150265    0.0053088
c    -0.2212795    0.5567439   -1.1021718  0.00   -0.0068522   -0.0082112   -0.0043553
c     1.0914875    0.4238033   -0.7167988  0.00    0.0149674   -0.0073224    0.0015563
c     1.7449733    1.5231064   -0.2268666  0.00    0.0090074   -0.0021230    0.0008766
o    -0.8745282    4.0590213   -0.4165839  0.00    0.0016480   -0.0002845   -0.0009790
h    -0.3044647    4.8074818   -0.0399011  0.00    0.0027626   -0.0038018    0.0000136
h     2.7839131    1.4520657    0.0922333  0.00    0.0015686    0.0014650    0.0013140
h    -0.7839890   -0.2834468   -1.4970028  0.00   -0.0000648   -0.0038724   -0.0015778
h    -1.8964803    1.8627498   -1.2881238  0.00   -0.0024763   -0.0011196   -0.0009373
h     1.6358536    3.5873809    0.2691492  0.00   -0.0006142    0.0024407    0.0005607
c     1.8504414   -0.8983518   -0.7966377  0.00   -0.0030346   -0.0013516   -0.0039861
c     1.0925310   -2.1216386   -1.3762882  0.00    0.0080540    0.0190693   -0.0057226
h     2.2049269   -1.1614783    0.2286159  0.00    0.0021501   -0.0000330    0.0041487
h     2.7645518   -0.7254711   -1.4195160  0.00    0.0046307   -0.0008910   -0.0043629
c     2.0385958   -3.3145778   -1.5727411  0.00   -0.0127885   -0.0485577   -0.0044628
o     1.5792438   -4.6072872   -1.4913114  0.00    0.0091553    0.0251476    0.0029143
o     3.3853113   -3.0825358   -1.8294708  0.00   -0.0006859    0.0174630    0.0043236
h     3.8522982   -3.9813420   -1.9112800  0.00    0.0016563   -0.0054099    0.0004610
n    -0.0517659   -2.4620174   -0.4903109  0.00   -0.0043083    0.0065669    0.0106036
h     0.7302948   -1.8727026   -2.4015048  0.00   -0.0015162   -0.0009421   -0.0012908
h    -0.7932125   -2.9424475   -1.0718867  0.00   -0.0127876   -0.0029449   -0.0113506
h     0.2513517   -3.1766936    0.2293863  0.00    0.0054059   -0.0131819    0.0063113
    24
 Energy =       0.0487419610
c    -0.8564486    1.7620568   -0.9279837  0.00   -0.0107671    0.0029640   -0.0009120
c    -0.1868820    2.8385164   -0.4485485  0.00   -0.0062277    0.0078533    0.0013803
c     1.1197792    2.7129997   -0.0820507  0.00    0.0036235    0.0126484    0.0044915
c    -0.2296428    0.5583146   -1.0527990  0.00   -0.0058892   -0.0068239   -0.0037029
c     1.0868735    0.4176264   -0.6868401  0.00    0.0127368   -0.0061553    0.0013220
c     1.7513695    1.5104483   -0.1996547  0.00    0.0076612   -0.0018198    0.0007680
o    -0.8567142    4.0599929   -0.3467419  0.00    0.0012326   -0.0001493   -0.0008446
h    -0.2802373    4.8055288    0.0264074  0.00    0.0023491   -0.0031459    0.0000389
h     2.7936507    1.4323122    0.1061879  0.00    0.0014331    0.0012045    0.0011331
h    -0.8033391   -0.2770307   -1.4410690  0.00   -0.0002027   -0.0031833   -0.0013779
h    -1.8987834    1.8737508   -1.2142352  0.00   -0.0022010   -0.0009311   -0.0008256
h     1.6601362    3.5717730    0.3055871  0.00   -0.0004733    0.0020923    0.0004945
c     1.8395837   -0.9073258   -0.7806074  0.00   -0.0027523   -0.0004060   -0.0030765
c     1.0853528   -2.1095253   -1.4079324  0.00    0.0066872    0.0158983   -0.0049443
h     2.1709900   -1.1966882    0.2449498  0.00    0.0019613   -0.0001347    0.0040352
h     2.7667876   -0.7242489   -1.3799708  0.00    0.0041491   -0.0003054   -0.0038515
c     2.0313681   -3.2922493   -1.6536277  0.00   -0.0116712   -0.0408492   -0.0034573
o     1.5766814   -4.5907014   -1.5960090  0.00    0.0078454    0.0206240    0.0023086
o     3.3684298   -3.0515698   -1.9510745  0.00   -0.0000010    0.0149532    0.0033620
h     3.8347055   -3.9467532   -2.0700331  0.00    0.0021200   -0.0054616    0.0002350
n    -0.0552840   -2.4845504   -0.5336301  0.00   -0.0035411    0.0059698    0.0097629
h     0.7203996   -1.8207348   -2.4222478  0.00   -0.0013026   -0.0005270   -0.0019179
h    -0.7738276   -2.9910601   -1.1202114  0.00   -0.0114870   -0.0029808   -0.0099333
h     0.2646332   -3.1864301    0.1895284  0.00    0.0047169   -0.0113344    0.0055118
    24
 Energy =       0.0477623733
c    -0.8532768    1.7667555   -0.8652392  0.00   -0.0082039    0.0022182   -0.0007498
c    -0.1700798    2.8368262   -0.3939645  0.00   -0.0047175    0.0059262    0.0010208
c     1.1395702    2.7007787   -0.0462254  0.00    0.0028265    0.0095485    0.0034309
c    -0.2384212    0.5593944   -0.9991447  0.00   -0.0046063   -0.0050639   -0.0028478
c     1.0816796    0.4095305   -0.6554878  0.00    0.0097682   -0.0046494    0.0009837
c     1.7600118    1.4952469   -0.1746663  0.00    0.0058917   -0.0013905    0.0006315
o    -0.8313611    4.0624409   -0.2791064  0.00    0.0007292   -0.0000507   -0.0006766
h    -0.2467253    4.8055159    0.0867776  0.00    0.0018320   -0.0022818    0.0000773
h     2.8057711    1.4085867    0.1160075  0.00    0.0012304    0.0008789    0.0008921
h    -0.8252913   -0.2708514   -1.3773760  0.00   -0.0003520   -0.0023409   -0.0011090
h    -1.8986179    1.8868872   -1.1355202  0.00   -0.0018175   -0.0006976   -0.0006743
h     1.6919775    3.5541202    0.3356532  0.00   -0.0002879    0.0016437    0.0004111
c     1.8252278   -0.9196886   -0.7606100  0.00   -0.0023257    0.0005333   -0.0020045
c     1.0755219   -2.0965092   -1.4397430  0.00    0.0049842    0.0117574   -0.0039045
h     2.1274174   -1.2367585    0.2652708  0.00    0.0016753   -0.0002766    0.0037551
h     2.7685532   -0.7295702   -1.3307526  0.00    0.0035096    0.0003337   -0.0031191
c     2.0208863   -3.2665660   -1.7355047  0.00   -0.0096082   -0.0306940   -0.0022280
o     1.5692204   -4.5706920   -1.7068801  0.00    0.0060249    0.0148604    0.0015424
o     3.3473266   -3.0161664   -2.0700561  0.00    0.0003425    0.0116457    0.0022726
h     3.8110820   -3.9063921   -2.2287862  0.00    0.0023916   -0.0051768   -0.0000277
n    -0.0632138   -2.5071057   -0.5823480  0.00   -0.0023464    0.0053813    0.0085179
h     0.7098777   -1.7653757   -2.4412176  0.00   -0.0010251   -0.0000614   -0.0023775
h    -0.7504437   -3.0475320   -1.1743628  0.00   -0.0098483   -0.0031082   -0.0082843
h     0.2728892   -3.1884234    0.1506760  0.00    0.0039327   -0.0089355    0.0044676
    24
 Energy =       0.0468421695
c    -0.8491840    1.7711468   -0.7902428  0.00   -0.0051407    0.0012154   -0.0005942
c    -0.1465990    2.8356083   -0.3386475  0.00   -0.0028685    0.0036626    0.0006193