    13
 Energy =       0.1563233872
c    -3.7133889    1.6950595    0.3173519  0.00   -0.1072783    0.1360135    0.0923652
c    -2.4962693    2.6345192    0.2419999  0.00    0.3480890   -0.0383855   -0.1422762
c    -4.9565486    2.3924193   -0.2155699  0.00    0.0439316    0.0282206    0.0249982
h    -5.2099685    3.2528291    0.4143399  0.00    0.1343080    0.0295202    0.0545636
h    -5.8205883    1.7190695   -0.2147749  0.00    0.0126864    0.0113134   -0.0011829
h    -4.8083986    2.7651692   -1.2348596  0.00   -0.0068800   -0.0017678    0.0202160
n    -3.4097890    0.4519539   -0.4549189  0.00    0.0318542   -0.0686353   -0.0123440
h    -3.8575589    1.4177196    1.3669296  0.00    0.0056785   -0.0070648   -0.0266002
h    -3.2072391   -0.2948399    0.2179739  0.00   -0.0177658    0.0304701   -0.0185798
h    -4.2689788    0.1396900   -0.9176007  0.00    0.0232500    0.0223729    0.0252753
o    -1.4178396    2.3555893   -0.2533479  0.00   -0.2655203    0.0604123    0.1161392
o    -2.7764392    3.8468189    0.7908148  0.00   -0.0798246   -0.0541496   -0.0041745
h    -3.6817390    3.7529189    1.1803597  0.00   -0.1225287   -0.1483199   -0.1283999
    13
 Energy =       0.1182597137
c    -3.7029315    1.6960914    0.3027865  0.00   -0.0639979    0.0908466    0.0591719
c    -2.5134756    2.6577278    0.2490911  0.00    0.2100547   -0.0261465   -0.0887661
c    -4.9914227    2.3666410   -0.1722741  0.00    0.0321003    0.0225981    0.0214809
h    -5.2158397    3.2638484    0.4214892  0.00    0.0901514    0.0206196    0.0380471
h    -5.8495375    1.6753512   -0.0560218  0.00    0.0026618    0.0029548    0.0006585
h    -4.9205014    2.6631016   -1.2380422  0.00   -0.0037551   -0.0002338    0.0058893
n    -3.4081219    0.4873626   -0.5141410  0.00    0.0213647   -0.0394242   -0.0080198
h    -3.8145888    1.3911241    1.3580110  0.00    0.0034646   -0.0043964   -0.0153182
h    -3.1800238   -0.3009473    0.1176402  0.00   -0.0105112    0.0157432   -0.0099701
h    -4.2505469    0.1844739   -1.0340360  0.00    0.0125132    0.0121707    0.0132861
o    -1.3761801    2.3623083   -0.2739744  0.00   -0.1613462    0.0365298    0.0710812
o    -2.7365112    3.8644891    0.8583230  0.00   -0.0455872   -0.0298915   -0.0013505
h    -3.6650645    3.8173445    1.2198462  0.00   -0.0871132   -0.1013705   -0.0861903
    13
 Energy =       0.1112915352
c    -3.7227781    1.6892733    0.3152130  0.00   -0.0551959    0.0792618    0.0521739
c    -2.5104492    2.6244300    0.3115619  0.00    0.1847971   -0.0222465   -0.0771610
c    -4.9703515    2.3908915   -0.2257965  0.00    0.0292252    0.0206410    0.0208665
h    -5.2289969    3.2506678    0.4120539  0.00    0.0797945    0.0193025    0.0355649
h    -5.8443760    1.7010641   -0.2147749  0.00   -0.0019844   -0.0006704    0.0004056
h    -4.8122600    2.7478943   -1.2696479  0.00   -0.0024241    0.0014373   -0.0001029
n    -3.4214280    0.4735672   -0.4864301  0.00    0.0196475   -0.0341069   -0.0073033
h    -3.8962940    1.3919355    1.3674114  0.00    0.0026557   -0.0043760   -0.0117019
h    -3.2164662   -0.3142246    0.1568719  0.00   -0.0091013    0.0134041   -0.0083285
h    -4.2502774    0.1750231   -1.0335905  0.00    0.0103234    0.0105317    0.0111386
o    -1.3746381    2.3170757   -0.2399177  0.00   -0.1414285    0.0314944    0.0615462
o    -2.7040893    3.8306863    0.9372455  0.00   -0.0282648   -0.0251048   -0.0036112
h    -3.6723411    3.8506324    1.2084975  0.00   -0.0880445   -0.0895680   -0.0734869
    13
 Energy =       0.0856065339
c    -3.7201709    1.6717861    0.3110370  0.00    0.0041863    0.0088260    0.0015718
c    -2.5368803    2.6364954    0.3258007  0.00   -0.0173919   -0.0003386    0.0093771
c    -5.0009312    2.3548883   -0.1990526  0.00    0.0043228    0.0057713    0.0065753
h    -5.2290384    3.2538942    0.4091247  0.00    0.0279584    0.0092346    0.0134538
h    -5.8672746    1.6593259   -0.1290545  0.00   -0.0011978   -0.0010642    0.0001050
h    -4.8745904    2.6656802   -1.2630551  0.00    0.0006056    0.0000554   -0.0016370
n    -3.4343167    0.4743472   -0.5033349  0.00    0.0151684    0.0130852    0.0105459
h    -3.8776681    1.3808108    1.3775065  0.00   -0.0001149    0.0010746    0.0011383
h    -3.3093273   -0.3652280    0.1197139  0.00   -0.0000900   -0.0078446    0.0052966
h    -4.2058548    0.2371003   -1.1923437  0.00   -0.0156842   -0.0045377   -0.0164014
o    -1.3284422    2.2988631   -0.2927486  0.00    0.0112923   -0.0042058   -0.0089158
o    -2.6442716    3.8683282    0.9705879  0.00    0.0135859    0.0031981   -0.0024323
h    -3.5959794    3.9926248    1.3045163  0.00   -0.0426409   -0.0232542   -0.0186772
    13
 Energy =       0.0834159621
c    -3.7291294    1.6712414    0.3001568  0.00    0.0014592    0.0059171    0.0013989
c    -2.5414253    2.6376301    0.3347937  0.00   -0.0124547    0.0002852    0.0065817
c    -5.0156068    2.3546574   -0.1988239  0.00    0.0038668    0.0026901    0.0040326
h    -5.2831130    3.2123738    0.4555022  0.00    0.0177789    0.0076709    0.0106983
h    -5.8691923    1.6390736   -0.1792410  0.00   -0.0016416   -0.0019634    0.0002052
h    -4.8772768    2.7192707   -1.2450062  0.00    0.0007883    0.0003956   -0.0025619
n    -3.4377240    0.4953067   -0.5438359  0.00    0.0183162    0.0255699    0.0023808
h    -3.8892228    1.3524624    1.3581528  0.00   -0.0003362    0.0008778    0.0012789
h    -3.1505742   -0.3255475    0.0684106  0.00    0.0058707   -0.0206743    0.0163613
h    -4.2728438    0.1827182   -1.1274295  0.00   -0.0235159   -0.0049901   -0.0198100
o    -1.3158983    2.2763241   -0.2302765  0.00    0.0089823   -0.0030930   -0.0066471
o    -2.6482066    3.8806122    0.9600887  0.00    0.0088034    0.0022145   -0.0015163
h    -3.5945324    4.0327935    1.2862060  0.00   -0.0279173   -0.0149003   -0.0124024
    13
 Energy =       0.0810204927
c    -3.7226982    1.6855383    0.3160539  0.00    0.0026777    0.0008276    0.0024716
c    -2.5694711    2.7044633    0.3127520  0.00   -0.0040507   -0.0015294    0.0014559
c    -5.0416915    2.2803764   -0.2269730  0.00    0.0001640    0.0011462   -0.0018698
h    -5.3939674    3.1215133    0.4100660  0.00    0.0049534    0.0042565    0.0057607
h    -5.8501535    1.5134948   -0.2237340  0.00   -0.0023314   -0.0019021   -0.0000736
h    -4.9004347    2.6416525   -1.2717011  0.00    0.0001244    0.0000582   -0.0006475
n    -3.3737704    0.4842899   -0.4728915  0.00    0.0122384    0.0138521    0.0003178
h    -3.8756092    1.4047015    1.3857169  0.00    0.0002990   -0.0000347    0.0012829
h    -2.9918211   -0.2691498    0.1633955  0.00    0.0034432   -0.0138358    0.0094468
h    -4.2044141    0.0667944   -0.9794836  0.00   -0.0148137   -0.0045478   -0.0124208
o    -1.3151929    2.3315230   -0.1696853  0.00    0.0052198   -0.0037347   -0.0040012
o    -2.7217669    3.9943538    0.8407265  0.00    0.0007122    0.0082765    0.0030511
h    -3.6637549    4.1693652    1.1544553  0.00   -0.0086365   -0.0028327   -0.0047742
    13
 Energy =       0.0811047536
c    -3.7155047    1.6867621    0.3179686  0.00    0.0025905    0.0003788    0.0021709
c    -2.5652740    2.7096503    0.2808246  0.00   -0.0033605   -0.0015970    0.0011202
c    -5.0527903    2.2706307   -0.1928351  0.00   -0.0002167    0.0009106   -0.0016877
h    -5.4046227    3.0991055    0.4607818  0.00    0.0041038    0.0038275    0.0052198
h    -5.8518424    1.4942795   -0.1809358  0.00   -0.0022076   -0.0017804   -0.0000269
h    -4.9374973    2.6438952   -1.2368274  0.00    0.0001531    0.0001975   -0.0009515
n    -3.3800501    0.4840657   -0.4743489  0.00    0.0112644    0.0127418    0.0001078
h    -3.8393317    1.4096051    1.3926748  0.00    0.0002277   -0.0001099    0.0015750
h    -2.9795426   -0.2639221    0.1555991  0.00    0.0032115   -0.0126500    0.0087530
h    -4.2185098    0.0602163   -0.9603114  0.00   -0.0136639   -0.0042145   -0.0114178
o    -1.3127422    2.3257205   -0.1965344  0.00    0.0047604   -0.0034456   -0.0036445
o    -2.7140390    4.0119461    0.7784764  0.00    0.0007611    0.0081016    0.0029727
h    -3.6529990    4.1969616    1.0941655  0.00   -0.0076238   -0.0023605   -0.0041912
    13
 Energy =       0.0812276019
c    -3.7099856    1.6857712    0.3194691  0.00    0.0026056    0.0000128    0.0020362
c    -2.5583488    2.7071775    0.2570865  0.00   -0.0032362   -0.0019148    0.0007763
c    -5.0627151    2.2667822   -0.1545967  0.00   -0.0005566    0.0004877   -0.0015614
h    -5.4134135    3.0748786    0.5251679  0.00    0.0030842    0.0035587    0.0048723
h    -5.8540188    1.4828366   -0.1444996  0.00   -0.0020149   -0.0016690    0.0000274
h    -4.9710570    2.6632063   -1.1927686  0.00    0.0001801    0.0003819   -0.0013609
n    -3.3925329    0.4864276   -0.4850620  0.00    0.0106784    0.0120500   -0.0003269
h    -3.8062217    1.4044489    1.3961608  0.00    0.0001850   -0.0001273    0.0018039
h    -2.9629058   -0.2565920    0.1307894  0.00    0.0032493   -0.0118895    0.0084842
h    -4.2428452    0.0541914   -0.9406854  0.00   -0.0130722   -0.0040196   -0.0107235
o    -1.3009630    2.3006617   -0.1883174  0.00    0.0050223   -0.0037149   -0.0036366
o    -2.7047652    4.0269836    0.7088291  0.00    0.0008432    0.0084603    0.0030460
h    -3.6449733    4.2321430    1.0071245  0.00   -0.0069682   -0.0016163   -0.0034369
    13
 Energy =       0.0812818682
c    -3.7144330    1.6758574    0.3181390  0.00    0.0017485    0.0007679    0.0033828
c    -2.5404438    2.6752141    0.2741889  0.00   -0.0091952   -0.0009923    0.0011484
c    -5.0686252    2.2881508   -0.1139962  0.00   -0.0002863   -0.0003926   -0.0017177
h    -5.4159346    3.0522951    0.6198360  0.00    0.0013389    0.0042021    0.0056579
h    -5.8632444    1.5075030   -0.1449197  0.00   -0.0021452   -0.0023674    0.0000019
h    -4.9832475    2.7442904   -1.1296797  0.00    0.0001475    0.0012125   -0.0030046
n    -3.4282043    0.5002804   -0.5328648  0.00    0.0111258    0.0131887   -0.0033546
h    -3.7987272    1.3573762    1.3860259  0.00    0.0002861   -0.0001880    0.0024432
h    -2.9303397   -0.2385631    0.0391714  0.00    0.0057213   -0.0138957    0.0108080
h    -4.3031690    0.0498677   -0.9222696  0.00   -0.0157713   -0.0045677   -0.0111736
o    -1.2599883    2.2107765   -0.0519624  0.00    0.0145092   -0.0079950   -0.0058544
o    -2.6817920    4.0243568    0.6417887  0.00    0.0055171    0.0092023    0.0025645
h    -3.6365968    4.2815112    0.8552402  0.00   -0.0129964    0.0018253   -0.0009017
    13
 Energy =       0.0807816875
c    -3.7359965    1.6775733    0.3151930  0.00    0.0036410   -0.0006257    0.0037017
c    -2.5454866    2.6594568    0.3302957  0.00   -0.0087817   -0.0030816   -0.0000467
c    -5.0504856    2.3140271   -0.2080266  0.00   -0.0028483   -0.0005094   -0.0018870
h    -5.4231224    3.1030864    0.4876787  0.00   -0.0005062    0.0046057    0.0067406
h    -5.8617652    1.5512008   -0.2700727  0.00   -0.0032993   -0.0027814    0.0001499
h    -4.8949662    2.7481798   -1.2280853  0.00    0.0005181    0.0023481   -0.0057296
n    -3.4224838    0.4889827   -0.5088231  0.00    0.0129469    0.0146319   -0.0049051
h    -3.8904257    1.3702961    1.3809740  0.00   -0.0000294   -0.0007544    0.0050655
h    -2.9419590   -0.2424198    0.0899871  0.00    0.0067663   -0.0158926    0.0124800
h    -4.2888308    0.0339540   -0.9155487  0.00   -0.0175431   -0.0053982   -0.0125975
o    -1.2697036    2.1976598   -0.0226834  0.00    0.0162333   -0.0094658   -0.0066187
o    -2.6735374    3.9896986    0.7738155  0.00    0.0065085    0.0135814    0.0039430
h    -3.6259830    4.2372210    1.0139934  0.00   -0.0136061    0.0033421   -0.0002962
    13
 Energy =       0.0795363775
c    -3.7639237    1.6781415    0.3064700  0.00    0.0050241   -0.0031353    0.0030298
c    -2.5521170    2.6316863    0.3962822  0.00   -0.0062388   -0.0045408   -0.0012084
c    -5.0251516    2.3522012   -0.3018770  0.00   -0.0052796   -0.0001208   -0.0018667
h    -5.4076657    3.1709632    0.3533959  0.00   -0.0024281    0.0045025    0.0064248
h    -5.8595410    1.6169814   -0.3953479  0.00   -0.0043264   -0.0029525    0.0003473
h    -4.7971932    2.7603181   -1.3216191  0.00    0.0010459    0.0033511   -0.0079795
n    -3.4344898    0.4841994   -0.5017714  0.00    0.0130860    0.0147735   -0.0051790
h    -3.9933030    1.3716145    1.3611561  0.00   -0.0006049   -0.0015522    0.0073491
h    -2.9325973   -0.2266759    0.1037219  0.00    0.0067942   -0.0154458    0.0121292
h    -4.3008958    0.0056738   -0.8799119  0.00   -0.0171372   -0.0060737   -0.0122442
o    -1.2805420    2.1672261    0.0340713  0.00    0.0152770   -0.0091095   -0.0061898
o    -2.6641014    3.9385570    0.9113810  0.00    0.0067743    0.0161308    0.0048572
h    -3.6132244    4.1780299    1.1727465  0.00   -0.0119865    0.0041727    0.0005303
    13
 Energy =       0.0777091336
c    -3.7940762    1.6814354    0.2938083  0.00    0.0053325   -0.0051733    0.0018504
c    -2.5649298    2.6024671    0.4562188  0.00   -0.0025444   -0.0051948   -0.0021440
c    -4.9924822    2.3924937   -0.3934128  0.00   -0.0062780    0.0002713   -0.0015785
h    -5.3699445    3.2477016    0.2155821  0.00   -0.0036834    0.0040511    0.0047726
h    -5.8507491    1.6896653   -0.5123977  0.00   -0.0043568   -0.0025193    0.0005053
h    -4.6958720    2.7632582   -1.4103842  0.00    0.0014530    0.0036533   -0.0084742
n    -3.4566632    0.4804736   -0.4962520  0.00    0.0123271    0.0146554   -0.0045909
h    -4.0958200    1.3797011    1.3320437  0.00   -0.0010951   -0.0020687    0.0078019
h    -2.9075526   -0.1947854    0.1063576  0.00    0.0063626   -0.0129958    0.0106035
h    -4.3267853   -0.0348963   -0.8095215  0.00   -0.0159278   -0.0069403   -0.0103794
o    -1.2991521    2.1411827    0.0805443  0.00    0.0111975   -0.0070747   -0.0044970
o    -2.6631705    3.8777386    1.0446114  0.00    0.0057155    0.0153617    0.0047887
h    -3.6075484    4.1024809    1.3314996  0.00   -0.0085028    0.0039741    0.0013413
    13
 Energy =       0.0757361854
c    -3.8249339    1.6886777    0.2793301  0.00    0.0047435   -0.0055411    0.0008079
c    -2.5848729    2.5770598    0.5057828  0.00    0.0001723   -0.0050016   -0.0027776
c    -4.9517013    2.4300089   -0.4833996  0.00   -0.0054393    0.0001333   -0.0009182
h    -5.3082852    3.3277022    0.0731743  0.00   -0.0036851    0.0035931    0.0027016
h    -5.8336554    1.7629824   -0.6215183  0.00   -0.0032467   -0.0017081    0.0005370
h    -4.5903209    2.7490382   -1.4955790  0.00    0.0016099    0.0031499   -0.0071237
n    -3.4861594    0.4737960   -0.4829269  0.00    0.0105885    0.0137058   -0.0038433
h    -4.1957021    1.4032465    1.2981007  0.00   -0.0011961   -0.0020231    0.0061951
h    -2.8774128   -0.1530978    0.1104764  0.00    0.0055874   -0.0090769    0.0083430
h    -4.3571999   -0.0822348   -0.7067301  0.00   -0.0140132   -0.0074936   -0.0072370
o    -1.3271928    2.1351922    0.0938647  0.00    0.0061356   -0.0048997   -0.0025818
o    -2.6735722    3.8078047    1.1778699  0.00    0.0033044    0.0123666    0.0042502
h    -3.6137370    4.0087405    1.4902527  0.00   -0.0045611    0.0027954    0.0016470
    13
 Energy =       0.0741947341
c    -3.8550735    1.7003994    0.2657982  0.00    0.0037602   -0.0036932    0.0002562
c    -2.6111069    2.5615427    0.5436017  0.00   -0.0014361   -0.0035918   -0.0022007
c    -4.9037312    2.4587045   -0.5739949  0.00   -0.0035380   -0.0004972   -0.0000276
h    -5.2247266    3.4029573   -0.0767028  0.00   -0.0024543    0.0033740    0.0013745
h    -5.8095331    1.8297609   -0.7230274  0.00   -0.0015913   -0.0009750    0.0004507
h    -4.4821820    2.7083888   -1.5801547  0.00    0.0016020    0.0021135   -0.0049491
n    -3.5181046    0.4604435   -0.4518746  0.00    0.0069193    0.0090055   -0.0030868
h    -4.2922615    1.4486677    1.2645376  0.00   -0.0009612   -0.0013576    0.0038198
h    -2.8529884   -0.1112264    0.1309405  0.00    0.0037544   -0.0044123    0.0050327
h    -4.3824372   -0.1294578   -0.5793177  0.00   -0.0094563   -0.0060109   -0.0034354
o    -1.3652304    2.1717815    0.0525445  0.00    0.0052615   -0.0048278   -0.0030253
o    -2.6943692    3.7287307    1.3173412  0.00   -0.0000537    0.0096880    0.0046684
h    -3.6330011    3.8982238    1.6490058  0.00   -0.0018063    0.0011848    0.0011225
    13
 Energy =       0.0734536139
c    -3.8854936    1.7162323    0.2561862  0.00    0.0021457   -0.0001275    0.0002375
c    -2.6403808    2.5550434    0.5783334  0.00   -0.0024154   -0.0009788    0.0002788
c    -4.8501367    2.4736286   -0.6699892  0.00   -0.0021410    0.0002492    0.0003114
h    -5.1392390    3.4567027   -0.2354559  0.00   -0.0006380    0.0017212    0.0007101
h    -5.7749068    1.8796773   -0.8357813  0.00   -0.0004147   -0.0002019    0.0001630
h    -4.3672134    2.6474151   -1.6619778  0.00    0.0011443    0.0007774   -0.0026655
n    -3.5488291    0.4408484   -0.3964741  0.00    0.0024017    0.0009621   -0.0018514
h    -4.3913449    1.5150958    1.2322788  0.00   -0.0008717   -0.0004063    0.0023556
h    -2.8406339   -0.0752193    0.1813698  0.00    0.0010473   -0.0006419    0.0012816
h    -4.4004670   -0.1711484   -0.4348119  0.00   -0.0025756   -0.0023547   -0.0004927
o    -1.4098384    2.2368975    0.0073869  0.00    0.0037992   -0.0026668   -0.0026960
o    -2.7178592    3.6519161    1.4424442  0.00   -0.0013870    0.0039770    0.0027123
h    -3.6584031    3.8018269    1.7751885  0.00   -0.0000948   -0.0003092   -0.0003448
    13
 Energy =       0.0733517174
c    -3.8974896    1.7275112    0.2524348  0.00   -0.0004927    0.0003324    0.0000545
c    -2.6532176    2.5630507    0.5841780  0.00   -0.0003101   -0.0000603    0.0000505
c    -4.8269999    2.4681200   -0.7157578  0.00    0.0003446   -0.0000276   -0.0001224
h    -5.1105529    3.4649093   -0.3147588  0.00    0.0001410   -0.0002747    0.0000369
h    -5.7547517    1.8820525   -0.8893697  0.00    0.0001092    0.0001016   -0.0000523
h    -4.3184915    2.6067170   -1.6968436  0.00   -0.0002794   -0.0001255    0.0004522
n    -3.5584656    0.4336018   -0.3583805  0.00   -0.0008474   -0.0010430    0.0002576
h    -4.4311325    1.5557644    1.2162060  0.00    0.0001913    0.0000727   -0.0003232
h    -2.8512992   -0.0652278    0.2332847  0.00   -0.0002731    0.0000529   -0.0004335
h    -4.4086848   -0.1763237   -0.3788631  0.00    0.0011560    0.0008900    0.0001456
o    -1.4380187    2.2940488   -0.0361299  0.00    0.0005584   -0.0000844   -0.0001745
o    -2.7198334    3.6184785    1.4954876  0.00    0.0001584   -0.0001429   -0.0001911
h    -3.6558087    3.7562137    1.8472100  0.00   -0.0004564    0.0003088    0.0002995
    13
 Energy =       0.0733473039
c    -3.8957570    1.7297577    0.2535663  0.00   -0.0000544    0.0000068    0.0000529
c    -2.6527373    2.5726496    0.5711852  0.00   -0.0002990    0.0000737    0.0001739
c    -4.8339539    2.4599754   -0.7148225  0.00    0.0000012    0.0000348   -0.0000134
h    -5.1186535    3.4590992   -0.3196201  0.00    0.0000046    0.0000215    0.0000137
h    -5.7607746    1.8691966   -0.8782323  0.00   -0.0000483   -0.0000356   -0.0000085
h    -4.3313803    2.5933403   -1.7003172  0.00    0.0000052    0.0000116   -0.0000410
n    -3.5543312    0.4329204   -0.3494523  0.00   -0.0000437   -0.0000298   -0.0000479
h    -4.4236169    1.5624017    1.2217091  0.00   -0.0000039   -0.0000155    0.0000361
h    -2.8467489   -0.0606002    0.2466220  0.00    0.0000267   -0.0000179    0.0000197
h    -4.4040055   -0.1793346   -0.3673867  0.00   -0.0000032   -0.0000118    0.0000017
o    -1.4468881    2.3193554   -0.0734478  0.00    0.0005085   -0.0001006   -0.0002571
o    -2.7122824    3.6210487    1.4910094  0.00    0.0001713    0.0000112   -0.0000297
h    -3.6436162    3.7491064    1.8578846  0.00   -0.0002650    0.0000515    0.0000996
    13
 Energy =       0.0733470874
c    -3.8959720    1.7301530    0.2534441  0.00   -0.0000001    0.0000004   -0.0000001
c    -2.6530496    2.5731627    0.5706773  0.00   -0.0000051   -0.0000002    0.0000007
c    -4.8337671    2.4597296   -0.7157077  0.00   -0.0000003    0.0000001    0.0000001
h    -5.1185668    3.4590943   -0.3212232  0.00   -0.0000001    0.0000002    0.0000005
h    -5.7605091    1.8689292   -0.8790923  0.00   -0.0000001   -0.0000001    0.0000002
h    -4.3307886    2.5924434   -1.7010467  0.00   -0.0000001    0.0000001   -0.0000002
n    -3.5543335    0.4329089   -0.3485033  0.00   -0.0000003   -0.0000004   -0.0000009
h    -4.4242118    1.5634924    1.2214583  0.00    0.0000001   -0.0000001    0.0000004
h    -2.8472759   -0.0603398    0.2483744  0.00    0.0000007   -0.0000004    0.0000002
h    -4.4040997   -0.1792035   -0.3666899  0.00   -0.0000000   -0.0000000   -0.0000000
o    -1.4486163    2.3221701   -0.0767841  0.00    0.0000079   -0.0000035   -0.0000043
o    -2.7114853    3.6197670    1.4925341  0.00    0.0000015    0.0000024    0.0000020
h    -3.6420701    3.7466093    1.8612566  0.00   -0.0000041    0.0000015    0.0000014
    13
 Energy =       0.0733470869
c    -3.8959924    1.7301876    0.2534336  0.00   -0.0000000    0.0000000    0.0000000
c    -2.6530706    2.5732066    0.5706378  0.00   -0.0000000   -0.0000000    0.0000000
c    -4.8337459    2.4597119   -0.7157952  0.00   -0.0000000    0.0000000   -0.0000000
h    -5.1185375    3.4591077   -0.3213827  0.00   -0.0000000    0.0000000    0.0000000
h    -5.7604924    1.8689163   -0.8791705  0.00   -0.0000000   -0.0000000    0.0000000
h    -4.3307327    2.5923536   -1.7011265  0.00    0.0000000    0.0000000   -0.0000000
n    -3.5543436    0.4329017   -0.3484154  0.00   -0.0000000   -0.0000000   -0.0000000
h    -4.4242694    1.5635915    1.2214381  0.00   -0.0000000   -0.0000000    0.0000000
h    -2.8473232   -0.0603188    0.2485284  0.00    0.0000000   -0.0000000    0.0000000
h    -4.4041180   -0.1791993   -0.3666072  0.00   -0.0000000   -0.0000000    0.0000000
o    -1.4487395    2.3224277   -0.0770842  0.00    0.0000001   -0.0000000   -0.0000000
o    -2.7114229    3.6196468    1.4926820  0.00    0.0000000    0.0000000    0.0000000
h    -3.6419578    3.7463833    1.8615593  0.00   -0.0000000    0.0000000    0.0000000
