    13
 Energy =       0.4516628168
c    -3.7133889    1.6950595    0.3173519  0.00   -0.1089524    0.1289564   -0.0245616
c    -2.4962693    2.6345192    0.2419999  0.00    0.3499424   -0.0199839    0.1242675
c    -4.9565486    2.3924193   -0.2155699  0.00    0.7169041    0.7438965   -0.2582802
h    -5.2099685    3.2528291    0.4143399  0.00    0.0655542    0.0050540   -0.0570063
h    -5.8205883    1.7190695   -0.2147749  0.00    0.0135681    0.0117875   -0.0015404
h    -4.8083986    2.7651692   -1.2348596  0.00    0.8720991    0.7678585    0.4845201
n    -3.4097890    0.4519539   -0.4549189  0.00    0.0264399   -0.0732559   -0.0101741
h    -3.8575589    1.4177196    1.3669296  0.00    0.0043345   -0.0123171   -0.0277794
h    -3.2072391   -0.2948399    0.2179739  0.00   -0.0178594    0.0308126   -0.0190579
h    -4.2689788    0.1396900   -0.9176007  0.00    0.0236946    0.0221810    0.0254422
o    -1.4040496    2.4172293    0.7380088  0.00   -0.2627890    0.0522156   -0.1221560
o    -2.7835192    3.7545589   -0.4737969  0.00   -0.1103457   -0.0782504   -0.0005619
h    -3.7512389    3.6942389   -0.6738148  0.00   -1.5725904   -1.5789548   -0.1131122
    13
 Energy =       0.4215705767
c    -3.7121870    1.7136082    0.3316354  0.00   -0.0990655    0.1209858   -0.0212239
c    -2.5032243    2.6602239    0.2271962  0.00    0.3198345   -0.0179933    0.1143516
c    -4.9614886    2.3652966   -0.2710302  0.00    0.6578062    0.6843630   -0.2390939
h    -5.2587686    3.2333242    0.3296922  0.00    0.0595955    0.0058239   -0.0520828
h    -5.8077288    1.6668889   -0.2777033  0.00    0.0119187    0.0105693   -0.0013578
h    -4.8280053    2.7588958   -1.2861798  0.00    0.8003724    0.7054775    0.4449335
n    -3.3811642    0.4260488   -0.3559774  0.00    0.0258751   -0.0685690   -0.0150430
h    -3.8781668    1.5081328    1.3979194  0.00    0.0037511   -0.0114029   -0.0225449
h    -3.2063377   -0.2775619    0.3767271  0.00   -0.0152172    0.0248015   -0.0137179
h    -4.2179486    0.0796219   -0.8402179  0.00    0.0204541    0.0195568    0.0222951
o    -1.3882120    2.4565853    0.7142659  0.00   -0.2400378    0.0479678   -0.1120573
o    -2.7914299    3.7659944   -0.5109933  0.00   -0.1006975   -0.0713858   -0.0007466
h    -3.7528740    3.6825576   -0.7240659  0.00   -1.4445894   -1.4501944   -0.1037120
    13
 Energy =       0.2707344960
c    -3.7076967    1.7179923    0.3174257  0.00   -0.0496487    0.0638044   -0.0130534
c    -2.4764267    2.5938772    0.1200838  0.00    0.1353466   -0.0006174    0.0455224
c    -4.9466159    2.3999039   -0.2781145  0.00    0.3843160    0.3941828   -0.1489898
h    -5.2480492    3.2339375    0.3772336  0.00    0.0332653    0.0039221   -0.0282194
h    -5.8014087    1.6981231   -0.3137528  0.00    0.0052225    0.0031064   -0.0017412
h    -4.8371475    2.8396281   -1.2612600  0.00    0.4514192    0.3999559    0.2609581
n    -3.4760317    0.3729598   -0.2814151  0.00    0.0181751   -0.0358905   -0.0137819
h    -3.8436239    1.6231174    1.4195310  0.00   -0.0004432   -0.0021976   -0.0033763
h    -3.3650908   -0.3148814    0.4973729  0.00   -0.0069005    0.0065004    0.0003093
h    -4.3118815    0.0519629   -0.8077294  0.00    0.0076208    0.0080449    0.0103853
o    -1.3146429    2.2992509    0.6859188  0.00   -0.1026148    0.0144429   -0.0415742
o    -2.6620638    3.7185287   -0.6519479  0.00    0.0080051   -0.0341046   -0.0100152
h    -3.6968564    3.8052161   -0.7120780  0.00   -0.8837633   -0.8211496   -0.0564236
    13
 Energy =       0.2369448342
c    -3.7096356    1.6939483    0.3049851  0.00   -0.0401895    0.0552769   -0.0102630
c    -2.4826242    2.5854025    0.1574827  0.00    0.1094131   -0.0013665    0.0374424
c    -4.9523185    2.4143645   -0.2348208  0.00    0.3175751    0.3290646   -0.1242724
h    -5.2261222    3.2403314    0.4475194  0.00    0.0271384    0.0038200   -0.0226224
h    -5.8194642    1.7256355   -0.2668491  0.00    0.0039224    0.0025760   -0.0013108
h    -4.8320726    2.8486868   -1.2207631  0.00    0.3752945    0.3307927    0.2164290
n    -3.4876129    0.3923448   -0.3870961  0.00    0.0158316   -0.0305346   -0.0163747
h    -3.8371902    1.5250727    1.4023439  0.00   -0.0005922   -0.0020655    0.0000415
h    -3.3619621   -0.3536478    0.3386198  0.00   -0.0049519    0.0014152    0.0036345
h    -4.3257489    0.1083885   -0.9359738  0.00    0.0053268    0.0054440    0.0072815
o    -1.3219992    2.2715188    0.7442414  0.00   -0.0829746    0.0116354   -0.0333872
o    -2.6513187    3.7495545   -0.5665622  0.00    0.0085332   -0.0251348   -0.0094560
h    -3.6794665    3.8380161   -0.6718589  0.00   -0.7343270   -0.6809234   -0.0471424
    13
 Energy =       0.1883551947
c    -3.7124338    1.6691353    0.2943127  0.00   -0.0257233    0.0386262   -0.0062313
c    -2.4930457    2.5798046    0.2081683  0.00    0.0685232   -0.0021819    0.0237135
c    -4.9629307    2.4153434   -0.1965597  0.00    0.2190574    0.2309582   -0.0864502
h    -5.2197297    3.2300743    0.5104257  0.00    0.0183387    0.0030710   -0.0148715
h    -5.8355614    1.7308319   -0.2302475  0.00    0.0022901    0.0017128   -0.0006953
h    -4.8327157    2.8536092   -1.1855265  0.00    0.2619106    0.2288616    0.1499345
n    -3.4903888    0.4215501   -0.4865405  0.00    0.0129739   -0.0188081   -0.0141434
h    -3.8374682    1.4266244    1.3805134  0.00   -0.0007231   -0.0017078    0.0027890
h    -3.3770224   -0.3837704    0.1798667  0.00   -0.0027063   -0.0036967    0.0058134
h    -4.3109497    0.1842537   -1.0909330  0.00    0.0005418    0.0011902    0.0014655
o    -1.3306838    2.2449133    0.8240456  0.00   -0.0519839    0.0072521   -0.0202976
o    -2.6360708    3.7868131   -0.4603539  0.00    0.0099661   -0.0125069   -0.0074384
h    -3.6485353    3.8804335   -0.6359030  0.00   -0.5124654   -0.4727705   -0.0335882
    13
 Energy =       0.1478005253
c    -3.7144290    1.6522222    0.2916337  0.00   -0.0143376    0.0219335   -0.0028452
c    -2.5049589    2.5818330    0.2653379  0.00    0.0359280   -0.0015051    0.0118452
c    -4.9769323    2.3974490   -0.1779800  0.00    0.1357866    0.1456004   -0.0534451
h    -5.2377713    3.2022701    0.5413524  0.00    0.0112228    0.0021864   -0.0090499
h    -5.8431075    1.7029239   -0.2212738  0.00    0.0010076    0.0008509   -0.0002477
h    -4.8392589    2.8488077   -1.1682467  0.00    0.1650200    0.1435609    0.0930049
n    -3.4727253    0.4493193   -0.5435040  0.00    0.0165686   -0.0030465   -0.0055539
h    -3.8454611    1.3590743    1.3644407  0.00   -0.0007348   -0.0010435    0.0028645
h    -3.4385148   -0.4034681    0.0762998  0.00   -0.0011121   -0.0085385    0.0087051
h    -4.2387857    0.2795770   -1.2496862  0.00   -0.0094862   -0.0029280   -0.0092317
o    -1.3464738    2.2357704    0.9162822  0.00   -0.0268118    0.0038915   -0.0098003
o    -2.6199067    3.8146622   -0.3673502  0.00    0.0100044   -0.0051918   -0.0043154
h    -3.6092106    3.9191756   -0.6160376  0.00   -0.3230555   -0.2957703   -0.0219307
    13
 Energy =       0.1381723429
c    -3.7167188    1.6449034    0.2753758  0.00   -0.0140063    0.0199309   -0.0023207
c    -2.5231553    2.5961556    0.2909294  0.00    0.0304256   -0.0008490    0.0096556
c    -4.9904852    2.3852621   -0.1704673  0.00    0.1169655    0.1252365   -0.0458670
h    -5.2509859    3.1759675    0.5650450  0.00    0.0096175    0.0020460   -0.0076587
h    -5.8514031    1.6841939   -0.2164799  0.00    0.0008326    0.0006659   -0.0001814
h    -4.8689098    2.8567790   -1.1549989  0.00    0.1419784    0.1238009    0.0798173
n    -3.4514069    0.4808688   -0.6064134  0.00    0.0215643    0.0076104   -0.0092001
h    -3.8504690    1.3076067    1.3354249  0.00   -0.0010163   -0.0008946    0.0036103
h    -3.2797617   -0.3789541   -0.0056610  0.00    0.0018583   -0.0195496    0.0163511
h    -4.2752365    0.2542694   -1.2343341  0.00   -0.0167530   -0.0027014   -0.0135778
o    -1.3745284    2.2597971    0.9699362  0.00   -0.0221929    0.0034263   -0.0079850
o    -2.6372296    3.8364033   -0.3288206  0.00    0.0095111   -0.0042338   -0.0035599
h    -3.6172455    3.9363640   -0.6082678  0.00   -0.2787849   -0.2544883   -0.0190835
    13
 Energy =       0.1064339288
c    -3.7242507    1.6330138    0.2537118  0.00   -0.0054546    0.0083951   -0.0005745
c    -2.5465157    2.6051594    0.3350457  0.00    0.0056935    0.0004167    0.0025804
c    -5.0253488    2.3577711   -0.1415259  0.00    0.0530368    0.0574721   -0.0204478
h    -5.2903794    3.1214228    0.6231061  0.00    0.0040259    0.0016214   -0.0029077
h    -5.8727112    1.6399060   -0.2008481  0.00    0.0000138   -0.0001186    0.0000572
h    -4.9140344    2.8637023   -1.1190870  0.00    0.0694400    0.0602960    0.0364685
n    -3.4376016    0.5396730   -0.7033738  0.00    0.0117275    0.0093907   -0.0105553
h    -3.8489393    1.2216702    1.2886071  0.00   -0.0011159   -0.0007498    0.0039690
h    -3.1304834   -0.3222829   -0.1644141  0.00    0.0037421   -0.0190572    0.0137804
h    -4.2933152    0.2602048   -1.2539691  0.00   -0.0110227    0.0000854   -0.0078730
o    -1.3800159    2.2168337    0.9787691  0.00   -0.0036842   -0.0014413   -0.0010955
o    -2.6405781    3.8872088   -0.2107408  0.00    0.0090912    0.0032721   -0.0018917
h    -3.5833621    4.0153336   -0.5740127  0.00   -0.1354935   -0.1195826   -0.0115099
    13
 Energy =       0.1033498896
c    -3.7046823    1.6170949    0.2239205  0.00   -0.0028847    0.0086485    0.0010111
c    -2.5334990    2.5965977    0.3124212  0.00    0.0037109   -0.0016746    0.0021815
c    -5.0363976    2.3444952   -0.0669412  0.00    0.0443151    0.0491117   -0.0170159
h    -5.2777027    3.0518155    0.7618791  0.00    0.0022695    0.0037257    0.0001660
h    -5.8739615    1.6155431   -0.1319318  0.00   -0.0001857   -0.0001792    0.0002901
h    -4.9893118    2.9238944   -1.0147990  0.00    0.0607960    0.0557367    0.0280188
n    -3.4466898    0.5802128   -0.8048675  0.00    0.0115183    0.0074275   -0.0140496
h    -3.7777881    1.1463205    1.2409971  0.00   -0.0011103   -0.0017284    0.0065236
h    -3.1189612   -0.3079769   -0.3231673  0.00    0.0044807   -0.0196425    0.0137155
h    -4.3177904    0.3267413   -1.3429555  0.00   -0.0100989   -0.0005785   -0.0078056
o    -1.3362093    2.1811269    0.8845213  0.00   -0.0000526   -0.0036119    0.0009594
o    -2.6599786    3.9100998   -0.1524979  0.00    0.0075951    0.0068717   -0.0031306
h    -3.6145635    4.0536513   -0.4753106  0.00   -0.1203535   -0.1041068   -0.0108645
    13
 Energy =       0.0957531648
c    -3.7237205    1.6242699    0.2341879  0.00   -0.0032718    0.0066585    0.0011789
c    -2.5714773    2.6232139    0.3761803  0.00    0.0006727   -0.0008333    0.0002599
c    -5.0531552    2.3241585   -0.1201830  0.00    0.0303385    0.0340576   -0.0115292
h    -5.3269201    3.0655101    0.6688629  0.00    0.0010985    0.0037131    0.0013910
h    -5.8818242    1.5852051   -0.1850370  0.00   -0.0002824   -0.0001135    0.0001064
h    -4.9672386    2.8534775   -1.0952933  0.00    0.0445565    0.0404288    0.0184234
n    -3.4062110    0.5998204   -0.7877731  0.00    0.0144841    0.0161091   -0.0110280
h    -3.8354818    1.1473531    1.2434153  0.00   -0.0011619   -0.0009342    0.0055289
h    -2.9669955   -0.2430846   -0.3085291  0.00    0.0073872   -0.0230217    0.0138244
h    -4.2796909    0.2415232   -1.2677051  0.00   -0.0165100   -0.0037032   -0.0103664
o    -1.4098564    2.2365285    1.0432744  0.00    0.0057099   -0.0045176    0.0039416
o    -2.6709230    3.9211933   -0.1397696  0.00    0.0096343    0.0049101   -0.0007976
h    -3.5940413    4.0604478   -0.5503623  0.00   -0.0926556   -0.0727537   -0.0109332
    13
 Energy =       0.0878145869
c    -3.7275401    1.6273475    0.2291607  0.00   -0.0038071    0.0040325    0.0012143
c    -2.6146479    2.6656287    0.4228966  0.00    0.0000630    0.0010339   -0.0006921
c    -5.0789246    2.2718974   -0.1375980  0.00    0.0168082    0.0196963   -0.0063937
h    -5.3837925    3.0136602    0.6372703  0.00    0.0005918    0.0022595    0.0008751
h    -5.8797850    1.5019450   -0.2015710  0.00   -0.0007846   -0.0005865   -0.0000666
h    -4.9984787    2.7858564   -1.1201748  0.00    0.0269983    0.0233448    0.0110639
n    -3.3525216    0.6440774   -0.8100422  0.00    0.0117715    0.0166113   -0.0081040
h    -3.8411651    1.1188747    1.2203963  0.00   -0.0012188   -0.0004660    0.0033930
h    -2.8082424   -0.1486765   -0.3581270  0.00    0.0081244   -0.0202959    0.0108680
h    -4.2093632    0.1961903   -1.2397337  0.00   -0.0154383   -0.0040722   -0.0082579
o    -1.4752566    2.3118046    1.1428030  0.00    0.0052040   -0.0024739    0.0030316
o    -2.7136782    3.9595635   -0.1004282  0.00    0.0081045    0.0018844    0.0009138
h    -3.6041399    4.0914474   -0.5735836  0.00   -0.0564168   -0.0409681   -0.0078454
    13
 Energy =       0.0837271140
c    -3.7181416    1.6308970    0.2229340  0.00   -0.0039935    0.0022383    0.0017382
c    -2.6632036    2.7241489    0.4542571  0.00   -0.0000717    0.0019492   -0.0011559
c    -5.1032694    2.2002241   -0.1432559  0.00    0.0095428    0.0133241   -0.0036233
h    -5.4441199    2.9340497    0.6234741  0.00    0.0001213    0.0018673    0.0007719
h    -5.8628637    1.3871531   -0.1974816  0.00   -0.0017028   -0.0015626   -0.0001224
h    -5.0523923    2.7040807   -1.1330888  0.00    0.0173183    0.0148481    0.0066949
n    -3.2815286    0.6930515   -0.8330614  0.00    0.0102188    0.0159519   -0.0071938
h    -3.8122877    1.0926534    1.1996978  0.00   -0.0013241   -0.0007171    0.0025278
h    -2.6494893   -0.0442326   -0.4047291  0.00    0.0090896   -0.0184404    0.0090089
h    -4.1064767    0.1644675   -1.2305909  0.00   -0.0143752   -0.0049748   -0.0069604
o    -1.5339569    2.4207347    1.2118421  0.00    0.0052053   -0.0014815    0.0028898
o    -2.7958030    4.0142423   -0.0715518  0.00    0.0070849    0.0017129    0.0013699
h    -3.6640031    4.1181461   -0.5871773  0.00   -0.0371139   -0.0247155   -0.0059458
    13
 Energy =       0.0819376092
c    -3.6926036    1.6385659    0.2196521  0.00   -0.0031776   -0.0004133    0.0023607
c    -2.7172654    2.8063152    0.4575442  0.00   -0.0000143    0.0014419   -0.0011619
c    -5.1220579    2.1023448   -0.1350178  0.00    0.0044731    0.0114774   -0.0020574
h    -5.5052385    2.8236326    0.6239278  0.00   -0.0004482    0.0021035    0.0009186
h    -5.8232172    1.2341538   -0.1665389  0.00   -0.0033725   -0.0035529   -0.0001324
h    -5.1199903    2.5904672   -1.1348536  0.00    0.0119489    0.0109040    0.0036220
n    -3.1933176    0.7419833   -0.8447173  0.00    0.0098440    0.0146815   -0.0064588
h    -3.7412443    1.0854695    1.1917633  0.00   -0.0012243   -0.0016768    0.0023960
h    -2.4964904    0.0596340   -0.4287309  0.00    0.0094440   -0.0167507    0.0076575
h    -3.9770946    0.1463381   -1.2296405  0.00   -0.0134012   -0.0060888   -0.0064640
o    -1.5751229    2.5794878    1.2244714  0.00    0.0067399   -0.0013230    0.0039410
o    -2.9300559    4.0882577   -0.0684553  0.00    0.0067147    0.0051664    0.0006971
h    -3.7938371    4.1429668   -0.5981365  0.00   -0.0275264   -0.0159693   -0.0053186
    13
 Energy =       0.0810211151
c    -3.7277256    1.6250881    0.2116224  0.00   -0.0027273   -0.0028879    0.0014321
c    -2.6948430    2.7309296    0.5169532  0.00   -0.0010027    0.0001062   -0.0014662
c    -5.1219869    2.1758997   -0.1741837  0.00    0.0021146    0.0118476   -0.0019077
h    -5.4885026    2.8981807    0.5919224  0.00   -0.0005519    0.0021730    0.0009205
h    -5.8676531    1.3456391   -0.2468915  0.00   -0.0048640   -0.0050410   -0.0002462
h    -5.0690872    2.6894839   -1.1622492  0.00    0.0105090    0.0107950    0.0017727
n    -3.2467042    0.7358664   -0.8656759  0.00    0.0089862    0.0133844   -0.0063252
h    -3.8352800    1.0429299    1.1640919  0.00   -0.0011252   -0.0032173    0.0038913
h    -2.5445485    0.0517112   -0.4634718  0.00    0.0089296   -0.0155545    0.0072136
h    -4.0391377    0.1432378   -1.2357514  0.00   -0.0125414   -0.0059085   -0.0060596
o    -1.5960350    2.4207347    1.3230987  0.00    0.0113754   -0.0026354    0.0073838
o    -2.8102788    4.0352948    0.0094619  0.00    0.0091368    0.0102894    0.0006211
h    -3.6457531    4.1446207   -0.5576587  0.00   -0.0282390   -0.0133510   -0.0072304
    13
 Energy =       0.0793394011
c    -3.7556149    1.6157976    0.1932104  0.00   -0.0037671   -0.0026082    0.0005080
c    -2.7255890    2.6910942    0.6086246  0.00   -0.0006227   -0.0007135   -0.0008840
c    -5.1226551    2.1905198   -0.2462942  0.00    0.0003811    0.0065680   -0.0016564
h    -5.5204054    2.8949296    0.5203670  0.00   -0.0005679    0.0015526    0.0012274
h    -5.8700809    1.3702912   -0.3756419  0.00   -0.0042647   -0.0040652   -0.0002467
h    -5.0193011    2.7255065   -1.2207110  0.00    0.0068979    0.0075315   -0.0006649
n    -3.2303563    0.7715467   -0.8973434  0.00    0.0060870    0.0112270   -0.0064379
h    -3.9189228    0.9918910    1.1118565  0.00   -0.0014282   -0.0032398    0.0050103
h    -2.4799650    0.1342995   -0.5107342  0.00    0.0079933   -0.0122436    0.0054474
h    -3.9887748    0.1310725   -1.2538209  0.00   -0.0101061   -0.0051001   -0.0044001
o    -1.6724417    2.3209496    1.4486014  0.00    0.0105912   -0.0019511    0.0069803
o    -2.7920099    4.0225976    0.1682151  0.00    0.0093490    0.0108762    0.0012664
h    -3.5914190    4.1791207   -0.4350609  0.00   -0.0205429   -0.0078339   -0.0061499
    13
 Energy =       0.0792541007
c    -3.7642742    1.6119538    0.1790086  0.00   -0.0036504   -0.0026034    0.0019115
c    -2.7672797    2.6882833    0.6712245  0.00    0.0007602   -0.0034446    0.0007261
c    -5.1134384    2.1733859   -0.3283111  0.00   -0.0006484    0.0040836   -0.0017688
h    -5.5682657    2.8551020    0.4289378  0.00   -0.0012336    0.0021409    0.0025367
h    -5.8396405    1.3446450   -0.5168752  0.00   -0.0050630   -0.0043902   -0.0005979
h    -4.9595590    2.7270045   -1.2872911  0.00    0.0057451    0.0061188   -0.0024310
n    -3.1721238    0.7911647   -0.8960967  0.00    0.0066866    0.0098779   -0.0072682
h    -3.9693213    0.9713495    1.0775094  0.00   -0.0016457   -0.0028409    0.0053163
h    -2.4053987    0.1877653   -0.4900186  0.00    0.0075763   -0.0108579    0.0046781
h    -3.8932055    0.1186244   -1.2701790  0.00   -0.0096386   -0.0055586   -0.0043911
o    -1.7188659    2.2919161    1.5032648  0.00    0.0088927   -0.0017998    0.0058899
o    -2.8584631    4.0459405    0.3164026  0.00    0.0085561    0.0140351    0.0004377
h    -3.6577001    4.2324816   -0.2763078  0.00   -0.0163371   -0.0047610   -0.0050392
    13
 Energy =       0.0784323829
c    -3.7611041    1.6116404    0.1861700  0.00   -0.0026277   -0.0023243    0.0033856
c    -2.7428037    2.6818697    0.6433740  0.00    0.0011203   -0.0067870    0.0021542
c    -5.1337496    2.1826863   -0.2472785  0.00   -0.0018198    0.0030977   -0.0015729
h    -5.5321999    2.8842619    0.5258219  0.00   -0.0017073    0.0029894    0.0039233
h    -5.8804199    1.3594376   -0.3791280  0.00   -0.0062869   -0.0050966   -0.0009083
h    -5.0363977    2.7182346   -1.2244899  0.00    0.0051981    0.0057075   -0.0043641
n    -3.2197223    0.8037314   -0.9259408  0.00    0.0068242    0.0093079   -0.0090135
h    -3.9252548    0.9609948    1.0866007  0.00   -0.0016326   -0.0028548    0.0059612
h    -2.4406179    0.1903533   -0.5593776  0.00    0.0082787   -0.0109454    0.0049421
h    -3.9599690    0.1413018   -1.2803062  0.00   -0.0095323   -0.0056683   -0.0044737
o    -1.7207816    2.2979163    1.5138859  0.00    0.0090903   -0.0029496    0.0063248
o    -2.7837572    4.0203650    0.2069977  0.00    0.0095568    0.0175949    0.0002157
h    -3.5507582    4.1868234   -0.4350609  0.00   -0.0164618   -0.0020714   -0.0065744
    13
 Energy =       0.0770399097
c    -3.7626423    1.6095911    0.1872677  0.00   -0.0009751   -0.0009899    0.0045167
c    -2.7277555    2.6646994    0.6297250  0.00    0.0002379   -0.0084095    0.0029586
c    -5.1526720    2.1966835   -0.1620009  0.00   -0.0031002    0.0019677   -0.0009742
h    -5.4977283    2.9006501    0.6345424  0.00   -0.0016995    0.0030958    0.0040830
h    -5.9118142    1.3811108   -0.2528675  0.00   -0.0054279   -0.0040398   -0.0009376
h    -5.1158346    2.7331628   -1.1417655  0.00    0.0030409    0.0039702   -0.0049479
n    -3.2735340    0.8370193   -0.9728868  0.00    0.0048269    0.0069811   -0.0102741
h    -3.8864175    0.9319087    1.0735705  0.00   -0.0011463   -0.0024607    0.0055585
h    -2.4646654    0.2312264   -0.6638106  0.00    0.0085451   -0.0096716    0.0047660
h    -4.0217060    0.1704444   -1.2972772  0.00   -0.0075826   -0.0043988   -0.0034592
o    -1.7516597    2.2917554    1.5559542  0.00    0.0084106   -0.0042968    0.0064796
o    -2.7034325    3.9751157    0.1146309  0.00    0.0098315    0.0169492    0.0012116
h    -3.4176739    4.1162489   -0.5938141  0.00   -0.0149612    0.0013032   -0.0089810
    13
 Energy =       0.0753797784
c    -3.7668662    1.6051143    0.1827392  0.00    0.0003587    0.0010633    0.0054535
c    -2.7194424    2.6414365    0.6225384  0.00   -0.0021546   -0.0076132    0.0024251
c    -5.1697641    2.2099404   -0.0637519  0.00   -0.0039578    0.0006674   -0.0003224
h    -5.4646774    2.8884545    0.7732414  0.00   -0.0015561    0.0028730    0.0034926
h    -5.9332201    1.4011187   -0.1367527  0.00   -0.0028205   -0.0018272   -0.0006181
h    -5.1953851    2.7795500   -1.0234610  0.00    0.0002498    0.0023011   -0.0045459
n    -3.3384161    0.8946093   -1.0390079  0.00    0.0008274    0.0048255   -0.0118663
h    -3.8446439    0.8830776    1.0379898  0.00   -0.0004819   -0.0022726    0.0048238
h    -2.4843204    0.3142151   -0.8135228  0.00    0.0100043   -0.0086976    0.0042852
h    -4.0827836    0.2095596   -1.3248557  0.00   -0.0050689   -0.0025815   -0.0017010
o    -1.8120912    2.2908129    1.6247602  0.00    0.0078089   -0.0057301    0.0073657
o    -2.6139883    3.9092809    0.0239185  0.00    0.0079994    0.0135842    0.0015524
h    -3.2619373    4.0124469   -0.7525672  0.00   -0.0112086    0.0034075   -0.0103447
    13
 Energy =       0.0738935739
c    -3.7709607    1.5992877    0.1751553  0.00    0.0003849    0.0018522    0.0051509
c    -2.7171737    2.6226320    0.6168577  0.00   -0.0045819   -0.0044852   -0.0003693
c    -5.1805706    2.2131720    0.0319505  0.00   -0.0026090   -0.0013684    0.0001144
h    -5.4427780    2.8273609    0.9281121  0.00   -0.0016174    0.0033081    0.0038342
h    -5.9408990    1.4071586   -0.0686841  0.00   -0.0006685   -0.0010267   -0.0001687
h    -5.2482880    2.8566575   -0.8783343  0.00   -0.0011403    0.0027406   -0.0047431
n    -3.4032876    0.9646150   -1.1055243  0.00   -0.0022016    0.0034430   -0.0108262
h    -3.8028750    0.8288704    0.9891344  0.00   -0.0001665   -0.0022423    0.0036962
h    -2.5086594    0.4195027   -0.9722759  0.00    0.0097348   -0.0071348    0.0027253
h    -4.1334579    0.2557606   -1.3622139  0.00   -0.0026806   -0.0011941   -0.0002598
o    -1.8951737    2.3165532    1.7045328  0.00    0.0075471   -0.0061605    0.0091215
o    -2.5286773    3.8363650   -0.0604072  0.00    0.0042839    0.0094512   -0.0003197
h    -3.1147349    3.8916811   -0.8870348  0.00   -0.0062850    0.0028171   -0.0079558
    13
 Energy =       0.0727931438
c    -3.7739801    1.5951187    0.1686849  0.00    0.0002403    0.0005603    0.0040015
c    -2.7122551    2.6114304    0.6012230  0.00   -0.0048246   -0.0023183   -0.0027260
c    -5.1850076    2.2109666    0.1210190  0.00   -0.0003881   -0.0027041    0.0000854
h    -5.4233602    2.7369913    1.0786269  0.00   -0.0014934    0.0033950    0.0046630
h    -5.9458445    1.4140913   -0.0364679  0.00   -0.0004554   -0.0018204   -0.0002740
h    -5.2725568    2.9425028   -0.7195812  0.00   -0.0010255    0.0038545   -0.0047827
n    -3.4710464    1.0255473   -1.1565937  0.00   -0.0026594    0.0026105   -0.0068686
h    -3.7618659    0.7880792    0.9446159  0.00   -0.0000497   -0.0014753    0.0020892
h    -2.5486951    0.5183846   -1.1099954  0.00    0.0068579   -0.0044041    0.0011260
h    -4.1862956    0.2948659   -1.3896105  0.00   -0.0012674   -0.0005491    0.0001887
o    -1.9813641    2.3725255    1.7672360  0.00    0.0060315   -0.0052388    0.0095843
o    -2.4434749    3.7619223   -0.1501142  0.00    0.0015944    0.0068754   -0.0027033
h    -2.9817894    3.7671907   -1.0077745  0.00   -0.0025606    0.0012145   -0.0043835
    13
 Energy =       0.0721899920
c    -3.7745179    1.5932735    0.1602089  0.00    0.0003205   -0.0003573    0.0021660
c    -2.7004950    2.6047739    0.5726783  0.00   -0.0019703   -0.0006950   -0.0025637
c    -5.1833961    2.2059637    0.2074684  0.00   -0.0005757   -0.0010020   -0.0002961
h    -5.3890040    2.6466042    1.2107176  0.00   -0.0005483    0.0011828    0.0018807
h    -5.9523508    1.4287232    0.0061182  0.00   -0.0000441   -0.0004949   -0.0001236
h    -5.2886111    3.0061678   -0.5608281  0.00   -0.0001660    0.0014372   -0.0015326
n    -3.5450368    1.0735364   -1.1978773  0.00   -0.0017621    0.0016554   -0.0025097
h    -3.7173390    0.7600972    0.9034019  0.00    0.0000854   -0.0004458    0.0006618
h    -2.6036981    0.6077235   -1.2360756  0.00    0.0033689   -0.0015874    0.0000422
h    -4.2456485    0.3208272   -1.4026425  0.00   -0.0007288   -0.0004028    0.0001265
o    -2.0575746    2.4485098    1.7984604  0.00    0.0021516   -0.0021239    0.0050433
o    -2.3577070    3.6870140   -0.2409937  0.00   -0.0002957    0.0031266   -0.0032633
h    -2.8721569    3.6564019   -1.1093683  0.00    0.0001646   -0.0002929    0.0003685
    13
 Energy =       0.0721285001
c    -3.7735843    1.5936969    0.1551807  0.00   -0.0000083    0.0001160   -0.0003266
c    -2.6968378    2.6041846    0.5636851  0.00    0.0001933    0.0000258    0.0003865
c    -5.1817388    2.2003764    0.2340789  0.00    0.0000883    0.0000080    0.0000380
h    -5.3760410    2.6097212    1.2503312  0.00    0.0000172   -0.0000498   -0.0000683
h    -5.9525930    1.4291882    0.0193148  0.00   -0.0000057    0.0000210    0.0000129
h    -5.2955858    3.0214298   -0.5077210  0.00   -0.0000020   -0.0000413    0.0000301
n    -3.5666163    1.0895041   -1.2109044  0.00    0.0003316   -0.0003848    0.0002437
h    -3.7015513    0.7523827    0.8867217  0.00   -0.0000150    0.0000052   -0.0000263
h    -2.6249662    0.6327211   -1.2726338  0.00   -0.0005712    0.0002210    0.0000396
h    -4.2642060    0.3335469   -1.4112443  0.00    0.0001741    0.0001043   -0.0000338
o    -2.0817595    2.4756256    1.8027200  0.00   -0.0001695    0.0002139   -0.0006364
o    -2.3297123    3.6642959   -0.2642081  0.00    0.0000456   -0.0002949    0.0004668
h    -2.8423435    3.6329432   -1.1340524  0.00   -0.0000783    0.0000555   -0.0001263
    13
 Energy =       0.0721279221
c    -3.7735588    1.5935087    0.1547999  0.00   -0.0000002    0.0000012    0.0000026
c    -2.6970038    2.6039779    0.5638506  0.00   -0.0000011   -0.0000006   -0.0000033
c    -5.1819332    2.1995811    0.2358675  0.00   -0.0000006   -0.0000004    0.0000002
h    -5.3756424    2.6071435    1.2530386  0.00   -0.0000005    0.0000007    0.0000020
h    -5.9526423    1.4284831    0.0202078  0.00   -0.0000001   -0.0000004   -0.0000001
h    -5.2964957    3.0219922   -0.5044049  0.00   -0.0000002    0.0000019   -0.0000014
n    -3.5676987    1.0917291   -1.2124949  0.00   -0.0000030    0.0000015   -0.0000032
h    -3.7003573    0.7510563    0.8849381  0.00    0.0000002   -0.0000018    0.0000014
h    -2.6251875    0.6361664   -1.2762705  0.00    0.0000047   -0.0000016   -0.0000019
h    -4.2648280    0.3351992   -1.4128550  0.00   -0.0000002   -0.0000007    0.0000003
o    -2.0843141    2.4764508    1.8046062  0.00    0.0000009   -0.0000004    0.0000061
o    -2.3281691    3.6632024   -0.2648244  0.00    0.0000013    0.0000009   -0.0000012
h    -2.8397047    3.6311258   -1.1351906  0.00   -0.0000012   -0.0000002   -0.0000015
    13
 Energy =       0.0721279218
c    -3.7735529    1.5935075    0.1548024  0.00   -0.0000000   -0.0000000    0.0000000
c    -2.6969904    2.6039700    0.5638486  0.00   -0.0000000   -0.0000000   -0.0000000
c    -5.1819236    2.1995926    0.2358321  0.00    0.0000000   -0.0000000   -0.0000000
h    -5.3756360    2.6072051    1.2529803  0.00   -0.0000000    0.0000000    0.0000000
h    -5.9526365    1.4284894    0.0202065  0.00   -0.0000000   -0.0000000   -0.0000000
h    -5.2964791    3.0219660   -0.5044796  0.00    0.0000000    0.0000000   -0.0000000
n    -3.5676694    1.0916976   -1.2124745  0.00   -0.0000000    0.0000000   -0.0000000
h    -3.7003757    0.7510712    0.8849586  0.00    0.0000000   -0.0000000    0.0000000
h    -2.6251889    0.6360704   -1.2761958  0.00    0.0000000   -0.0000000   -0.0000000
h    -4.2648386    0.3352110   -1.4128577  0.00   -0.0000000   -0.0000000    0.0000000
o    -2.0841768    2.4763419    1.8045290  0.00    0.0000000   -0.0000000    0.0000000
o    -2.3282494    3.6632708   -0.2647678  0.00    0.0000000    0.0000000   -0.0000000
h    -2.8398185    3.6312233   -1.1351140  0.00   -0.0000000    0.0000000   -0.0000000
