    24
 Energy =       0.1311876868
c    -0.3750178    1.6472058    0.7948734  0.00   -0.0695773    0.0381521    0.0636976
c     0.0303172    2.8109335    0.1570437  0.00   -0.0606621    0.0779517    0.0484472
c     1.0081136    2.7718125   -0.8262434  0.00    0.0159535    0.0873726   -0.0344137
c     0.2069418    0.4293490    0.4310970  0.00   -0.0248375   -0.0551514    0.0323078
c     1.2047783    0.3610782   -0.5608861  0.00    0.1043224   -0.0573135   -0.0530680
c     1.5988173    1.5541349   -1.1780186  0.00    0.0400135   -0.0097967   -0.0387110
o    -0.5069839    4.0230167    0.4710260  0.00   -0.0151803   -0.0334877    0.0207533
h    -1.1463012    3.9010909    1.1919392  0.00    0.0554820   -0.0261922   -0.0524307
h     2.3707231    1.5818724   -1.9364796  0.00   -0.0014518    0.0158572    0.0048439
h    -0.1206493   -0.4779662    0.9373943  0.00   -0.0003645   -0.0020251    0.0031698
h    -1.1350442    1.6632136    1.5694669  0.00    0.0005367   -0.0024290    0.0015311
h     1.3163936    3.6907012   -1.3176857  0.00    0.0035114   -0.0000519   -0.0037482
c     1.7669373   -1.0073413   -0.8964724  0.00   -0.0749002   -0.0030635    0.0061910
c     0.8861134   -2.0194266   -1.6556448  0.00   -0.0096434    0.0046282    0.1445289
h     2.1212937   -1.4658931    0.0371405  0.00   -0.0045391    0.0106254   -0.0091746
h     2.6645729   -0.8285312   -1.5058794  0.00   -0.0136806    0.0037188    0.0057588
c     0.2877588   -1.3395944   -2.9073099  0.00    0.1511484    0.0055021   -0.3969553
o     0.8327661   -1.2278598   -3.9939237  0.00   -0.1270320   -0.0281495    0.2658297
o    -0.9441121   -0.8279107   -2.6380200  0.00    0.0275998   -0.0222481    0.0353463
h    -1.5388787   -1.1994019   -3.3379720  0.00    0.0281951   -0.0100675    0.0298761
n     1.5974427   -3.2508470   -2.1301054  0.00    0.0111021   -0.0426683   -0.0954107
h     0.0358579   -2.3311629   -1.0380560  0.00    0.0128739    0.0000684   -0.0167187
h     1.3459883   -3.4027164   -3.1136797  0.00   -0.0074038    0.0485756    0.0350318
h     2.6013787   -3.0583561   -2.1544800  0.00   -0.0414661    0.0001924    0.0033176
    24
 Energy =       0.1218842463
c    -0.2963620    1.6441474    0.8117371  0.00   -0.0642629    0.0352794    0.0587009
c     0.1106668    2.8088936    0.1819435  0.00   -0.0560277    0.0716166    0.0446388
c     1.0742947    2.7697041   -0.8113609  0.00    0.0146150    0.0806904   -0.0317366
c     0.2714699    0.4274471    0.4337252  0.00   -0.0230039   -0.0509038    0.0298465
c     1.2516832    0.3607810   -0.5708157  0.00    0.0953960   -0.0521991   -0.0480647
c     1.6476244    1.5528579   -1.1816219  0.00    0.0368645   -0.0090559   -0.0356379
o    -0.4092406    4.0254486    0.5200024  0.00   -0.0139037   -0.0302069    0.0191134
h    -1.0652876    3.9035268    1.2305192  0.00    0.0509415   -0.0243272   -0.0481703
h     2.4037086    1.5765814   -1.9567021  0.00   -0.0011543    0.0145654    0.0042467
h    -0.0587965   -0.4817376    0.9343332  0.00   -0.0003340   -0.0019719    0.0028551
h    -1.0464043    1.6606919    1.5960621  0.00    0.0004187   -0.0021930    0.0014803
h     1.3840483    3.6906552   -1.2976600  0.00    0.0032332   -0.0000199   -0.0034549
c     1.7806309   -1.0097994   -0.9555199  0.00   -0.0691076   -0.0010155    0.0073106
c     0.8180976   -1.9927551   -1.6530450  0.00   -0.0114112    0.0065423    0.1318378
h     2.1950623   -1.4803113   -0.0496352  0.00   -0.0029937    0.0094858   -0.0064827
h     2.6342666   -0.8460669   -1.6372584  0.00   -0.0098647    0.0033919    0.0029196
c     0.2108571   -1.3068170   -2.8933424  0.00    0.1393359    0.0050877   -0.3664302
o     0.7628740   -1.1913244   -3.9904788  0.00   -0.1170472   -0.0259102    0.2452251
o    -1.0298075   -0.8070318   -2.6343361  0.00    0.0263032   -0.0196159    0.0337734
h    -1.6246107   -1.2181732   -3.3161088  0.00    0.0250546   -0.0100328    0.0264226
n     1.4538165   -3.2683670   -2.1241302  0.00    0.0064685   -0.0437297   -0.0893464
h    -0.0221498   -2.2461274   -0.9908087  0.00    0.0096972   -0.0002238   -0.0138451
h     1.1872352   -3.4162473   -3.1068464  0.00   -0.0068506    0.0444846    0.0320339
h     2.4755306   -3.1585752   -2.1395280  0.00   -0.0323667    0.0002614    0.0027639
    24
 Energy =       0.0927041791
c    -0.2000091    1.6102843    0.8343627  0.00   -0.0379061    0.0212666    0.0336859
c     0.2054228    2.7639885    0.2087615  0.00   -0.0333374    0.0409011    0.0258988
c     1.1403089    2.7122139   -0.7921352  0.00    0.0081610    0.0468690   -0.0182631
c     0.3410389    0.4005368    0.4529655  0.00   -0.0135987   -0.0294193    0.0172948
c     1.2875383    0.3315010   -0.5588723  0.00    0.0552313   -0.0290790   -0.0269760
c     1.6818476    1.5033516   -1.1750140  0.00    0.0214733   -0.0054590   -0.0201235
o    -0.2962369    3.9968132    0.5690200  0.00   -0.0068217   -0.0172437    0.0106240
h    -0.9828776    3.9087518    1.2787948  0.00    0.0288047   -0.0146082   -0.0274591
h     2.4109821    1.5005432   -1.9789357  0.00   -0.0000706    0.0081546    0.0017279
h     0.0079242   -0.5061752    0.9536401  0.00   -0.0002286   -0.0011484    0.0016476
h    -0.9377071    1.6394029    1.6296724  0.00    0.0000974   -0.0011952    0.0009820
h     1.4476663    3.6311966   -1.2818064  0.00    0.0019277   -0.0000039   -0.0020098
c     1.7962172   -1.0308288   -0.9971865  0.00   -0.0372946    0.0007347    0.0041584
c     0.7520960   -1.9270642   -1.6995905  0.00   -0.0093406    0.0055149    0.0760635
h     2.2002985   -1.5588455   -0.1114783  0.00   -0.0008548    0.0046719   -0.0025299
h     2.6469437   -0.8834823   -1.6927318  0.00   -0.0054278    0.0019039    0.0016154
c     0.1272407   -1.1854904   -2.8849756  0.00    0.0796686   -0.0012627   -0.2159527
o     0.7068302   -1.0532674   -4.0375772  0.00   -0.0697205   -0.0153449    0.1432234
o    -1.1114598   -0.6482787   -2.6467347  0.00    0.0533166    0.0319804    0.0546361
h    -1.7685718   -1.2679620   -3.1617674  0.00   -0.0205880   -0.0465570   -0.0175659
n     1.3196053   -3.2268507   -2.1726754  0.00   -0.0006528   -0.0280912   -0.0531033
h    -0.0806210   -2.1423160   -1.0042509  0.00    0.0044932    0.0003107   -0.0075715
h     1.0555072   -3.3659997   -3.1672610  0.00   -0.0051745    0.0276516    0.0181075
h     2.3592230   -3.2046215   -2.1650999  0.00   -0.0121570   -0.0005468    0.0018896
    24
 Energy =       0.0884441287
c    -0.1652858    1.5814513    0.8625050  0.00   -0.0336714    0.0189249    0.0298641
c     0.2426345    2.7342453    0.2404902  0.00   -0.0296299    0.0362429    0.0230062
c     1.1701262    2.6804161   -0.7642594  0.00    0.0071719    0.0416319   -0.0161774
c     0.3643183    0.3718387    0.4735830  0.00   -0.0120692   -0.0260486    0.0153747
c     1.3010015    0.3021824   -0.5434209  0.00    0.0490065   -0.0254012   -0.0238275
c     1.6988403    1.4717301   -1.1565660  0.00    0.0190429   -0.0049087   -0.0178394
o    -0.2520629    3.9700244    0.6087022  0.00   -0.0055776   -0.0150897    0.0090587
h    -0.9597444    3.8850950    1.3020217  0.00    0.0250770   -0.0130793   -0.0240091
h     2.4186016    1.4645805   -1.9691764  0.00   -0.0000061    0.0071912    0.0014620
h     0.0264939   -0.5354119    0.9698080  0.00   -0.0001999   -0.0010462    0.0014695
h    -0.8984226    1.6126308    1.6618556  0.00    0.0000715   -0.0010480    0.0008858
h     1.4790458    3.5995387   -1.2523444  0.00    0.0017097    0.0000022   -0.0017808
c     1.7883899   -1.0605583   -1.0053533  0.00   -0.0326256    0.0011223    0.0036646
c     0.7238582   -1.9128258   -1.7332114  0.00   -0.0084901    0.0046526    0.0677988
h     2.1719735   -1.6188598   -0.1277858  0.00   -0.0005022    0.0037841   -0.0017354
h     2.6482924   -0.9182248   -1.6914824  0.00   -0.0046958    0.0017981    0.0014235
c     0.1065397   -1.1237753   -2.8904986  0.00    0.0717892   -0.0018693   -0.1918890
o     0.6835031   -0.9784514   -4.0545806  0.00   -0.0619444   -0.0132305    0.1268185
o    -1.1098981   -0.5395264   -2.6300230  0.00    0.0472402    0.0313781    0.0496325
h    -1.7923441   -1.1092089   -3.1646871  0.00   -0.0200471   -0.0430158   -0.0168562
n     1.2647820   -3.2120936   -2.2369870  0.00   -0.0006712   -0.0260655   -0.0466771
h    -0.1113471   -2.1296576   -1.0399077  0.00    0.0040129    0.0001599   -0.0066578
h     1.0041638   -3.3208723   -3.2385573  0.00   -0.0048776    0.0244032    0.0152098
h     2.3057477   -3.2168659   -2.2210000  0.00   -0.0101139   -0.0004887    0.0017809
    24
 Energy =       0.0872755246
c    -0.1288831    1.5511346    0.8929227  0.00   -0.0318736    0.0179430    0.0282480
c     0.2863313    2.7037747    0.2770305  0.00   -0.0280816    0.0342393    0.0218104
c     1.2101899    2.6481369   -0.7297135  0.00    0.0067136    0.0394880   -0.0152624
c     0.3878786    0.3401488    0.4946777  0.00   -0.0113981   -0.0245978    0.0145590
c     1.3179868    0.2690356   -0.5265989  0.00    0.0463155   -0.0234651   -0.0223719
c     1.7247051    1.4380297   -1.1328621  0.00    0.0179942   -0.0046686   -0.0168779
o    -0.1993941    3.9418258    0.6530991  0.00   -0.0042274   -0.0138788    0.0076502
h    -0.9361396    3.8570838    1.3183242  0.00    0.0226902   -0.0126055   -0.0218373
h     2.4370517    1.4280214   -1.9520839  0.00    0.0000298    0.0067591    0.0013359
h     0.0411694   -0.5677430    0.9835224  0.00   -0.0001948   -0.0010663    0.0014086
h    -0.8592151    1.5841875    1.6947121  0.00    0.0000615   -0.0009834    0.0008449
h     1.5244790    3.5675685   -1.2136437  0.00    0.0016158    0.0000314   -0.0016856
c     1.7751716   -1.0957992   -1.0153331  0.00   -0.0301942    0.0016129    0.0035131
c     0.6893413   -1.8965712   -1.7720207  0.00   -0.0082541    0.0041908    0.0646293
h     2.1343650   -1.6873705   -0.1481216  0.00   -0.0001435    0.0030715   -0.0010021
h     2.6450457   -0.9609597   -1.6907454  0.00   -0.0042606    0.0018596    0.0013476
c     0.0888532   -1.0528160   -2.8998737  0.00    0.0691477   -0.0023316   -0.1821421
o     0.6581039   -0.8986738   -4.0716485  0.00   -0.0586005   -0.0122534    0.1197056
o    -1.0978922   -0.4171054   -2.6094389  0.00    0.0434222    0.0323415    0.0478093
h    -1.8107033   -0.9504557   -3.1401080  0.00   -0.0201967   -0.0416429   -0.0168607
n     1.1965169   -3.1947539   -2.3145407  0.00   -0.0006665   -0.0263166   -0.0435171
h    -0.1508392   -2.1138301   -1.0841951  0.00    0.0038087   -0.0000578   -0.0062231
h     0.9375125   -3.2644088   -3.3218145  0.00   -0.0050072    0.0228333    0.0131021
h     2.2375723   -3.2310586   -2.2924221  0.00   -0.0087007   -0.0005025    0.0018161
    24
 Energy =       0.0773638104
c    -0.1215819    1.5249025    0.9049426  0.00   -0.0209462    0.0116882    0.0188095
c     0.2898708    2.6815578    0.3034572  0.00   -0.0182887    0.0224502    0.0148184
c     1.2183614    2.6370083   -0.6924865  0.00    0.0046166    0.0261404   -0.0102061
c     0.3937140    0.3233736    0.4981176  0.00   -0.0075660   -0.0163539    0.0097862
c     1.3175044    0.2666519   -0.5201714  0.00    0.0306563   -0.0156900   -0.0146356
c     1.7281220    1.4366994   -1.1088175  0.00    0.0120414   -0.0032288   -0.0111967
o    -0.2183321    3.9161424    0.6806475  0.00    0.0091113   -0.0072973   -0.0021744
h    -1.0468680    3.8243124    1.2527735  0.00    0.0028942   -0.0098353   -0.0074374
h     2.4424016    1.4301191   -1.9270608  0.00    0.0000894    0.0043472    0.0009217
h     0.0480355   -0.5899931    0.9767010  0.00   -0.0001352   -0.0008524    0.0009884
h    -0.8547868    1.5510435    1.7042131  0.00    0.0001375   -0.0008044    0.0006983
h     1.5326096    3.5621601   -1.1646422  0.00    0.0012294    0.0000096   -0.0010787
c     1.7911174   -1.0835006   -1.0270354  0.00   -0.0199506    0.0007819    0.0021870
c     0.6971490   -1.8832620   -1.7734342  0.00   -0.0052583    0.0032866    0.0428687
h     2.1631203   -1.6816940   -0.1684866  0.00   -0.0001388    0.0017611   -0.0006575
h     2.6530571   -0.9385381   -1.7129504  0.00   -0.0027409    0.0011707    0.0008047
c     0.0647450   -1.0499048   -2.8870060  0.00    0.0444821   -0.0041101   -0.1210376
o     0.6606290   -0.8555722   -4.0697564  0.00   -0.0377390   -0.0071335    0.0789628
o    -1.1478683   -0.4472953   -2.6171669  0.00    0.0477816    0.0377680    0.0511859
h    -1.8221126   -0.8618217   -3.2988612  0.00   -0.0326456   -0.0419812   -0.0298446
n     1.2152377   -3.1777572   -2.3038843  0.00   -0.0008811   -0.0172663   -0.0286177
h    -0.1327008   -2.1061817   -1.0712823  0.00    0.0022696   -0.0000310   -0.0041385
h     0.9804946   -3.2598764   -3.3191470  0.00   -0.0034919    0.0155253    0.0078863
h     2.2572885   -3.2211727   -2.2595392  0.00   -0.0055270   -0.0003450    0.0011069
    24
 Energy =       0.0749764312
c    -0.1969091    1.5544288    0.8559830  0.00   -0.0193360    0.0110091    0.0174524
c     0.1934089    2.7108385    0.2410803  0.00   -0.0165000    0.0202299    0.0135173
c     1.1381289    2.6727322   -0.7388136  0.00    0.0040957    0.0244530   -0.0092035
c     0.3531639    0.3595898    0.4766472  0.00   -0.0068207   -0.0153502    0.0089487
c     1.2925373    0.3093691   -0.5263078  0.00    0.0279114   -0.0134007   -0.0131012
c     1.6831068    1.4790285   -1.1276749  0.00    0.0112501   -0.0033062   -0.0104413
o    -0.3568894    3.9389880    0.5857481  0.00    0.0077836   -0.0051575   -0.0016625
h    -1.1926437    3.8375163    1.1465656  0.00    0.0023751   -0.0088397   -0.0067080
h     2.4132424    1.4762077   -1.9322457  0.00    0.0002704    0.0038325    0.0006651
h     0.0256004   -0.5541361    0.9674360  0.00   -0.0001214   -0.0010761    0.0009596
h    -0.9431108    1.5758364    1.6434585  0.00   -0.0000079   -0.0006185    0.0007666
h     1.4362016    3.5979230   -1.2215476  0.00    0.0010941    0.0002556   -0.0009969
c     1.8268537   -1.0347639   -0.9902909  0.00   -0.0165693    0.0010928    0.0019510
c     0.7725078   -1.9070052   -1.7179248  0.00   -0.0054722    0.0035871    0.0401123
h     2.2204651   -1.5900768   -0.1109931  0.00    0.0005705    0.0008825    0.0003421
h     2.6866936   -0.8742615   -1.6759784  0.00   -0.0022296    0.0011776    0.0008030
c     0.1116104   -1.1421351   -2.8660821  0.00    0.0415278   -0.0041514   -0.1124043
o     0.7347480   -0.9307168   -4.0371293  0.00   -0.0334816   -0.0066226    0.0720226
o    -1.1438794   -0.6060484   -2.6411510  0.00    0.0409763    0.0384243    0.0493694
h    -1.7724991   -1.0184723   -3.3647633  0.00   -0.0317874   -0.0398957   -0.0294782
n     1.3539043   -3.1963054   -2.1959401  0.00   -0.0008630   -0.0194581   -0.0253904
h    -0.0534788   -2.1420009   -1.0145090  0.00    0.0019437   -0.0003228   -0.0038114
h     1.1282041   -3.3314124   -3.2089493  0.00   -0.0037956    0.0136656    0.0049849
h     2.3982403   -3.1877221   -2.1474932  0.00   -0.0028143   -0.0004106    0.0013027
    24
 Energy =       0.0695419907
c    -0.2352823    1.5611744    0.8415979  0.00   -0.0138883    0.0077006    0.0124804
c     0.1284265    2.7197273    0.2180119  0.00   -0.0119533    0.0144634    0.0096052
c     1.0568266    2.6901680   -0.7741135  0.00    0.0032325    0.0177105   -0.0066575
c     0.3300322    0.3761502    0.4656731  0.00   -0.0049829   -0.0110263    0.0063584
c     1.2591204    0.3377857   -0.5422287  0.00    0.0195125   -0.0089611   -0.0090566
c     1.6178628    1.5065977   -1.1592130  0.00    0.0081325   -0.0018768   -0.0075334
o    -0.4307766    3.9446827    0.5713573  0.00    0.0108672   -0.0024951   -0.0055829
h    -1.2160178    3.8477485    1.2091237  0.00   -0.0034902   -0.0071594   -0.0003573
h     2.3413359    1.5086796   -1.9701981  0.00    0.0002473    0.0028025    0.0004224
h     0.0278615   -0.5395773    0.9691100  0.00   -0.0002210   -0.0011362    0.0008638
h    -0.9722916    1.5748174    1.6378204  0.00   -0.0000849   -0.0005184    0.0006485
h     1.3334680    3.6175598   -1.2653811  0.00    0.0008762    0.0004141   -0.0008412
c     1.8438122   -0.9924825   -0.9831729  0.00   -0.0110489    0.0009304    0.0016435
c     0.8185084   -1.9145596   -1.6914059  0.00   -0.0034851    0.0035820    0.0291216
h     2.2568161   -1.5179809   -0.0935530  0.00    0.0007602    0.0002127    0.0006920
h     2.6985837   -0.8164335   -1.6728361  0.00   -0.0013531    0.0009615    0.0005854
c     0.1389526   -1.2068922   -2.8639513  0.00    0.0302013   -0.0067635   -0.0805031
o     0.8143007   -0.9309795   -4.0110298  0.00   -0.0188698   -0.0038954    0.0488473
o    -1.1675046   -0.7648015   -2.6989924  0.00    0.0283463    0.0374879    0.0481322
h    -1.7189116   -1.1112008   -3.5121457  0.00   -0.0300831   -0.0349485   -0.0317022
n     1.4463912   -3.1989485   -2.1173038  0.00   -0.0003297   -0.0157635   -0.0169681
h    -0.0046114   -2.1528259   -0.9838894  0.00    0.0014047   -0.0004550   -0.0026183
h     1.2524543   -3.3760858   -3.1323995  0.00   -0.0029535    0.0092839    0.0014363
h     2.4898502   -3.1649220   -2.0417558  0.00   -0.0008370   -0.0005503    0.0009839
    24
 Energy =       0.0669868111
c    -0.2499891    1.5294631    0.8710415  0.00   -0.0103145    0.0055095    0.0092495
c     0.0881078    2.6922595    0.2433493  0.00   -0.0088204    0.0106421    0.0070125
c     0.9991722    2.6745564   -0.7628286  0.00    0.0026054    0.0130901   -0.0050374
c     0.3256880    0.3540577    0.4884903  0.00   -0.0037975   -0.0082013    0.0047531
c     1.2410442    0.3301382   -0.5289733  0.00    0.0142711   -0.0067205   -0.0064700
c     1.5708345    1.5009028   -1.1544217  0.00    0.0060818   -0.0011493   -0.0057014
o    -0.4807496    3.9113496    0.6086740  0.00    0.0091792   -0.0014274   -0.0050832
h    -1.2368489    3.8123719    1.2810276  0.00   -0.0038125   -0.0054397    0.0008094
h     2.2807553    1.5102177   -1.9778159  0.00    0.0003005    0.0021299    0.0001556
h     0.0440742   -0.5661214    0.9957300  0.00   -0.0002442   -0.0010469    0.0007419
h    -0.9760818    1.5334131    1.6773885  0.00   -0.0001761   -0.0004183    0.0006034
h     1.2542396    3.6053705   -1.2592920  0.00    0.0007359    0.0005109   -0.0007548
c     1.8465079   -0.9877112   -0.9754906  0.00   -0.0080603    0.0007990    0.0014348
c     0.8385344   -1.9020254   -1.7169324  0.00   -0.0026151    0.0028949    0.0214295
h     2.2434261   -1.5245103   -0.0852103  0.00    0.0005905    0.0001467    0.0007134
h     2.7154607   -0.7969395   -1.6445635  0.00   -0.0006667    0.0007008    0.0001670
c     0.1743830   -1.1798881   -2.8871650  0.00    0.0176179   -0.0116687   -0.0523345
o     0.9103223   -0.7722264   -3.9770344  0.00   -0.0031969    0.0018715    0.0252169
o    -1.1656365   -0.8221865   -2.7720178  0.00    0.0195112    0.0335857    0.0481074
h    -1.6489723   -1.0942438   -3.6506542  0.00   -0.0268826   -0.0302033   -0.0323844
n     1.4826084   -3.1752668   -2.1454885  0.00   -0.0012666   -0.0117222   -0.0115350
h     0.0044915   -2.1544342   -1.0253505  0.00    0.0008216   -0.0003903   -0.0017141
h     1.3241357   -3.3376142   -3.1702636  0.00   -0.0023455    0.0067782   -0.0002640
h     2.5236998   -3.1435314   -2.0330745  0.00    0.0004838   -0.0002715    0.0008843
    24
 Energy =       0.0675687528
c    -0.2622983    1.5242777    0.8914752  0.00   -0.0101930    0.0053815    0.0091617
c     0.0920819    2.6815645    0.2623330  0.00   -0.0086712    0.0104822    0.0068801
c     1.0068969    2.6506197   -0.7402307  0.00    0.0025829    0.0129611   -0.0049950
c     0.3013146    0.3414017    0.5143324  0.00   -0.0037863   -0.0081745    0.0047351
c     1.2223544    0.3048602   -0.4973608  0.00    0.0140391   -0.0063979   -0.0063768
c     1.5672921    1.4694952   -1.1257497  0.00    0.0060162   -0.0010991   -0.0057091
o    -0.4639815    3.9083596    0.6223193  0.00    0.0090435   -0.0012384   -0.0050292
h    -1.2217205    3.8205282    1.2943147  0.00   -0.0038294   -0.0053406    0.0008639
h     2.2795975    1.4671763   -1.9473759  0.00    0.0003257    0.0020794    0.0000855
h     0.0057661   -0.5748811    1.0210839  0.00   -0.0002526   -0.0011588    0.0007554
h    -0.9922523    1.5386691    1.6942725  0.00   -0.0002200   -0.0004217    0.0006472
h     1.2740321    3.5769358   -1.2389000  0.00    0.0007438    0.0005781   -0.0007816
c     1.8100448   -1.0220293   -0.9396766  0.00   -0.0073617    0.0018224    0.0018693
c     0.8069837   -1.8865132   -1.7481745  0.00   -0.0020424    0.0016040    0.0214010
h     2.1466129   -1.5899085   -0.0411727  0.00    0.0013062   -0.0009583    0.0025282
h     2.7180944   -0.8449018   -1.5620002  0.00    0.0010036    0.0012609   -0.0006714
c     0.2447678   -1.1244239   -2.9522595  0.00    0.0169583   -0.0125516   -0.0500995
o     1.0690754   -0.7313267   -3.9886486  0.00    0.0006713    0.0039480    0.0193942
o    -1.0850166   -0.7061429   -2.9138886  0.00    0.0136729    0.0351750    0.0479255
h    -1.5379640   -0.9855595   -3.8061435  0.00   -0.0267716   -0.0298453   -0.0327185
n     1.4202314   -3.1846144   -2.1485876  0.00   -0.0065075   -0.0127326   -0.0072228
h    -0.0795827   -2.1071486   -1.1079947  0.00   -0.0016672   -0.0014057   -0.0000311
h     1.3326372   -3.3218690   -3.1883063  0.00   -0.0031494    0.0065448   -0.0050318
h     2.4542403   -3.2071677   -1.9545367  0.00    0.0080889   -0.0005129    0.0024198
    24
 Energy =       0.0649253390
c    -0.2709908    1.5609646    0.8534088  0.00   -0.0094341    0.0048877    0.0085198
c     0.0702393    2.7109591    0.2043007  0.00   -0.0079219    0.0096736    0.0062729
c     0.9839446    2.6724312   -0.7984422  0.00    0.0023403    0.0121753   -0.0045840
c     0.3043633    0.3780724    0.4959050  0.00   -0.0034507   -0.0077402    0.0043699
c     1.2234766    0.3338630   -0.5166396  0.00    0.0129875   -0.0056871   -0.0057326
c     1.5557029    1.4909735   -1.1649248  0.00    0.0056039   -0.0009373   -0.0053793
o    -0.4986999    3.9383309    0.5436919  0.00    0.0082695   -0.0007104   -0.0046513
h    -1.2525304    3.8556966    1.2204955  0.00   -0.0035738   -0.0049266    0.0008253
h     2.2686768    1.4822923   -1.9858187  0.00    0.0003127    0.0019044    0.0000563
h     0.0203614   -0.5322205    1.0200308  0.00   -0.0002684   -0.0013091    0.0007782
h    -0.9999246    1.5815057    1.6569818  0.00   -0.0002170   -0.0004101    0.0006157
h     1.2412463    3.5933203   -1.3123514  0.00    0.0007051    0.0007118   -0.0007821
c     1.8307365   -0.9931411   -0.9317883  0.00   -0.0064143    0.0027131    0.0019997
c     0.8294056   -1.9051744   -1.6904057  0.00   -0.0026459    0.0011596    0.0207435
h     2.1973658   -1.5253889   -0.0222111  0.00    0.0015523   -0.0014137    0.0032408
h     2.7219907   -0.8178489   -1.5789444  0.00    0.0012913    0.0014802   -0.0008237
c     0.2339502   -1.2011922   -2.9148753  0.00    0.0121000   -0.0125915   -0.0413820
o     1.0206227   -0.8900799   -4.0124986  0.00    0.0037629    0.0055252    0.0113813
o    -1.0968497   -0.7889007   -2.8666513  0.00    0.0129829    0.0326256    0.0455245
h    -1.5407321   -1.0244468   -3.7743275  0.00   -0.0250389   -0.0276428   -0.0318494
n     1.4586103   -3.2084967   -2.0476607  0.00   -0.0062006   -0.0130490   -0.0053735
h    -0.0434640   -2.1160872   -1.0282549  0.00   -0.0017225   -0.0016917    0.0002528
h     1.3558944   -3.3915723   -3.0797574  0.00   -0.0031723    0.0056838   -0.0065048
h     2.4958114   -3.2064589   -1.8701382  0.00    0.0081518   -0.0004307    0.0024816
    24
 Energy =       0.0615866218
c    -0.2769734    1.5936252    0.8180978  0.00   -0.0075378    0.0035593    0.0069094
c     0.0390384    2.7350969    0.1425843  0.00   -0.0061923    0.0077553    0.0048610
c     0.9419315    2.6900804   -0.8683093  0.00    0.0019059    0.0100282   -0.0036869
c     0.3129833    0.4136474    0.4795181  0.00   -0.0027564   -0.0064612    0.0035309
c     1.2211278    0.3634613   -0.5410141  0.00    0.0102311   -0.0043756   -0.0043021
c     1.5280661    1.5112659   -1.2163614  0.00    0.0045392   -0.0003638   -0.0044585
o    -0.5454822    3.9612583    0.4635235  0.00    0.0069152    0.0000945   -0.0041403
h    -1.2823862    3.8854911    1.1592844  0.00   -0.0032307   -0.0040432    0.0010121
h     2.2343059    1.4966115   -2.0429484  0.00    0.0002839    0.0015760   -0.0000138
h     0.0502022   -0.4897160    1.0266205  0.00   -0.0003246   -0.0015062    0.0008460
h    -0.9978875    1.6194226    1.6286892  0.00   -0.0002157   -0.0004120    0.0005539
h     1.1796718    3.6046895   -1.4028688  0.00    0.0006412    0.0009488   -0.0008106
c     1.8538431   -0.9595989   -0.9295318  0.00   -0.0046628    0.0034034    0.0019598
c     0.8577293   -1.9220041   -1.6317501  0.00   -0.0029498    0.0005096    0.0174966
h     2.2545057   -1.4521046   -0.0112426  0.00    0.0016854   -0.0017550    0.0036667
h     2.7250747   -0.7851389   -1.6039537  0.00    0.0014909    0.0015673   -0.0009122
c     0.2224816   -1.2820489   -2.8711915  0.00    0.0067957   -0.0101146   -0.0284429
o     0.9675518   -1.0488330   -4.0215145  0.00    0.0050347    0.0055312    0.0028082
o    -1.1122127   -0.8878848   -2.8157692  0.00    0.0116521    0.0266659    0.0405301
h    -1.5342253   -1.0461345   -3.7470289  0.00   -0.0212215   -0.0226764   -0.0301876
n     1.5083413   -3.2260662   -1.9437147  0.00   -0.0046778   -0.0115799   -0.0033959
h     0.0019850   -2.1241319   -0.9449289  0.00   -0.0016062   -0.0018474    0.0005402
h     1.4166314   -3.4462186   -2.9695312  0.00   -0.0025508    0.0041150   -0.0062915
h     2.5429039   -3.2073685   -1.7575344  0.00    0.0067511   -0.0006193    0.0019273
    24
 Energy =       0.0579956072
c    -0.2709522    1.6262854    0.7914727  0.00   -0.0047216    0.0007591    0.0047843
c    -0.0035159    2.7518911    0.0697722  0.00   -0.0036024    0.0049598    0.0026348
c     0.8677617    2.6943845   -0.9664871  0.00    0.0016799    0.0067971   -0.0028453
c     0.3369032    0.4513624    0.4753130  0.00   -0.0020198   -0.0046232    0.0026707
c     1.2146069    0.3901122   -0.5688348  0.00    0.0057458   -0.0031804   -0.0018361
c     1.4717600    1.5203097   -1.2923048  0.00    0.0030017    0.0013120   -0.0034102
o    -0.6068902    3.9759168    0.3698721  0.00    0.0060734    0.0015117   -0.0048042
h    -1.3041839    3.9146385    1.1077687  0.00   -0.0038208   -0.0028844    0.0026092
h     2.1540772    1.4937591   -2.1391044  0.00    0.0004808    0.0013150   -0.0005468
h     0.1135122   -0.4394733    1.0608065  0.00   -0.0006005   -0.0021815    0.0013792
h    -0.9683226    1.6620162    1.6224448  0.00   -0.0004463   -0.0005909    0.0008053
h     1.0668576    3.5968341   -1.5380437  0.00    0.0007412    0.0018000   -0.0013205
c     1.8764712   -0.9262244   -0.9284352  0.00   -0.0024225    0.0032552    0.0016603
c     0.8888252   -1.9369695   -1.5701735  0.00   -0.0025304    0.0000770    0.0108690
h     2.3105375   -1.3750097   -0.0033183  0.00    0.0014567   -0.0016894    0.0032921
h     2.7267496   -0.7549131   -1.6296132  0.00    0.0013479    0.0012588   -0.0007998
c     0.2176556   -1.3638900   -2.8206513  0.00    0.0026391   -0.0051130   -0.0150480
o     0.9321627   -1.1883788   -4.0026292  0.00    0.0032117    0.0034787   -0.0017655
o    -1.1232337   -0.9981261   -2.7677698  0.00    0.0103739    0.0167315    0.0354985
h    -1.5058105   -1.0325047   -3.7254398  0.00   -0.0160136   -0.0144318   -0.0296912
n     1.5616846   -3.2393864   -1.8319256  0.00   -0.0038014   -0.0075879   -0.0003264
h     0.0499834   -2.1255925   -0.8595059  0.00   -0.0011444   -0.0016008    0.0006957
h     1.5167170   -3.4834003   -2.8553077  0.00   -0.0014124    0.0015878   -0.0056055
h     2.5858507   -3.2162402   -1.5987813  0.00    0.0057840   -0.0009605    0.0011005
    24
 Energy =       0.0553609066
c    -0.2447573    1.6614781    0.7846746  0.00   -0.0024646   -0.0022345    0.0036159
c    -0.0414441    2.7589479    0.0002097  0.00   -0.0015817    0.0027349    0.0008444
c     0.7790387    2.6746264   -1.0747918  0.00    0.0019059    0.0039215   -0.0029790
c     0.3775884    0.4897084    0.4938565  0.00   -0.0017844   -0.0030397    0.0026793
c     1.2069612    0.4036725   -0.5862559  0.00    0.0019375   -0.0030630    0.0004710
c     1.3979572    1.5033859   -1.3747403  0.00    0.0017624    0.0031756   -0.0031535
o    -0.6606279    3.9822891    0.2754564  0.00    0.0055590    0.0024234   -0.0060762
h    -1.3032774    3.9475819    1.0644448  0.00   -0.0045529   -0.0017796    0.0046898
h     2.0396128    1.4526304   -2.2532220  0.00    0.0010018    0.0012519   -0.0017276
h     0.2045923   -0.3794053    1.1289049  0.00   -0.0009173   -0.0028632    0.0021901
h    -0.9038403    1.7182968    1.6462183  0.00   -0.0009598   -0.0008531    0.0015761
h     0.9266715    3.5548185   -1.6967968  0.00    0.0009598    0.0028252   -0.0022782
c     1.8876356   -0.9090883   -0.9178839  0.00   -0.0009458    0.0014578    0.0009154
c     0.9059980   -1.9458706   -1.5184566  0.00   -0.0012269    0.0006063    0.0039224
h     2.3375894   -1.3251507    0.0127488  0.00    0.0006405   -0.0008518    0.0016104
h     2.7273532   -0.7465797   -1.6325821  0.00    0.0006515    0.0004054   -0.0003478
c     0.2335303   -1.4206355   -2.7839984  0.00    0.0008062   -0.0012264   -0.0057411
o     0.9545250   -1.2717255   -3.9649691  0.00    0.0010087    0.0010611   -0.0011220
o    -1.1109682   -1.0719204   -2.7566758  0.00    0.0082041    0.0062606    0.0273938
h    -1.4410885   -0.9690174   -3.7242693  0.00   -0.0104852   -0.0054437   -0.0250580
n     1.5857672   -3.2520057   -1.7279121  0.00   -0.0022499   -0.0032895    0.0011797
h     0.0690897   -2.1091635   -0.8000128  0.00   -0.0004869   -0.0006890    0.0005800
h     1.5841276   -3.5189953   -2.7455616  0.00   -0.0004967    0.0000048   -0.0036123
h     2.5971732   -3.2304765   -1.4492613  0.00    0.0037148   -0.0007949    0.0004275
    24
 Energy =       0.0537824240
c    -0.2157759    1.7015203    0.7940094  0.00   -0.0008150   -0.0029593    0.0024721
c    -0.0840506    2.7559804   -0.0603608  0.00   -0.0003126    0.0010446   -0.0001109