13
UFF-Energy = 0.0690464
C    -4.8317592    2.9095256    0.5183327 
C    -4.2949267    1.5363689    0.0867339 
H    -4.7312146    3.6491305   -0.3079861 
H    -4.2626688    3.2846067    1.3972175 
H    -5.9048737    2.8407532    0.7958932 
C    -2.8566222    1.6234287   -0.4211440 
N    -4.4272287    0.6222676    1.2319821 
H    -4.8901994    1.1612678   -0.7794408 
H    -5.4414557    0.5064612    1.4666189 
H    -4.0875801   -0.3299666    0.9528960 
O    -2.5006577    2.6061311   -1.3355816 
O    -1.9057677    0.6839967   -0.0461924 
H    -1.4889854    0.9907334    0.8200219 
