    13
 Energy =       0.4447266387
c    -3.7133889    1.6950595    0.3173519  0.00   -0.1147226    0.1277222   -0.0295495
c    -2.4962693    2.6345192    0.2419999  0.00    0.3545354   -0.0532519    0.1016013
c    -4.9565486    2.3924193   -0.2155699  0.00    0.7047463    0.7568919   -0.2430802
h    -4.7854386    2.7464192   -1.2386596  0.00    0.8792874    0.8034707    0.4984326
h    -5.2149185    3.2645991    0.3947669  0.00    0.0699874    0.0073823   -0.0615731
h    -5.8205083    1.7195795   -0.2420919  0.00    0.0095923    0.0172903   -0.0028500
n    -3.4097890    0.4519539   -0.4549189  0.00    0.0806443   -0.0591212   -0.0114672
h    -3.8575589    1.4177196    1.3669296  0.00    0.0056328   -0.0106490   -0.0272211
h    -2.5963493    0.6418898   -1.0496997  0.00   -0.0248474    0.0153436    0.0435720
h    -3.0749291   -0.2623099    0.1989099  0.00   -0.0112109    0.0315448   -0.0228510
o    -1.4040496    2.4172293    0.7380088  0.00   -0.2610154    0.0548536   -0.1190673
o    -2.7835192    3.7545589   -0.4737969  0.00   -0.1116578   -0.0730295   -0.0002405
h    -3.7512389    3.6942389   -0.6738148  0.00   -1.5809718   -1.6184477   -0.1257060
    13
 Energy =       0.4120563894
c    -3.7142497    1.7111904    0.3269677  0.00   -0.1034297    0.1197749   -0.0253759
c    -2.5115949    2.6661456    0.2397643  0.00    0.3232094   -0.0478336    0.0930764
c    -4.9617572    2.3558373   -0.2848212  0.00    0.6451015    0.6944433   -0.2252348
h    -4.8079448    2.7323074   -1.3025307  0.00    0.8052524    0.7366158    0.4568387
h    -5.2704421    3.2367935    0.2901520  0.00    0.0632748    0.0083633   -0.0560773
h    -5.8015074    1.6499655   -0.3164741  0.00    0.0081153    0.0152770   -0.0025647
n    -3.3734647    0.4249922   -0.3586771  0.00    0.0721404   -0.0554038   -0.0182074
h    -3.8925085    1.5023272    1.3909305  0.00    0.0049132   -0.0097326   -0.0218588
h    -2.5558623    0.5907076   -0.9584492  0.00   -0.0222273    0.0136586    0.0394029
h    -3.0164212   -0.2251100    0.3576631  0.00   -0.0077375    0.0243890   -0.0160779
o    -1.3977731    2.4580967    0.7282012  0.00   -0.2381266    0.0502240   -0.1089040
o    -2.8074166    3.7907077   -0.4650704  0.00   -0.0948106   -0.0653278    0.0015037
h    -3.7535640    3.6739155   -0.7382407  0.00   -1.4556753   -1.4844479   -0.1165210
    13
 Energy =       0.3946193475
c    -3.7104444    1.6964665    0.3108781  0.00   -0.0977956    0.1184451   -0.0220951
c    -2.4900307    2.6235160    0.2309275  0.00    0.3089532   -0.0451345    0.0893408
c    -4.9524852    2.4081174   -0.2153089  0.00    0.6170116    0.6675569   -0.2188932
h    -4.7865407    2.7698244   -1.2289069  0.00    0.7728613    0.7053657    0.4383052
h    -5.2110766    3.2762216    0.4097412  0.00    0.0594452    0.0098735   -0.0523431
h    -5.8191029    1.7328468   -0.2458023  0.00    0.0070869    0.0141726   -0.0024960
n    -3.4342313    0.4424822   -0.4632086  0.00    0.0675391   -0.0533874   -0.0266504
h    -3.8487907    1.4302737    1.3718835  0.00    0.0047743   -0.0092173   -0.0182666
h    -2.6171422    0.6092438   -1.0651059  0.00   -0.0212041    0.0126763    0.0376135
h    -3.1147702   -0.2881876    0.1989099  0.00   -0.0044391    0.0168188   -0.0103393
o    -1.3909846    2.3772156    0.7521896  0.00   -0.2271877    0.0475931   -0.1035089
o    -2.7502564    3.7596026   -0.4766794  0.00   -0.0774219   -0.0615600    0.0023127
h    -3.7386506    3.7302535   -0.6701027  0.00   -1.4096232   -1.4232027   -0.1129795
    13
 Energy =       0.3730578455
c    -3.7057030    1.7185117    0.3250749  0.00   -0.0916363    0.1135959   -0.0193016
c    -2.4760050    2.6277883    0.1708630  0.00    0.2874194   -0.0402574    0.0840281
c    -4.9519335    2.4020933   -0.2449921  0.00    0.5755350    0.6232637   -0.2050346
h    -4.7945941    2.7798724   -1.2601405  0.00    0.7210549    0.6585999    0.4086891
h    -5.2362101    3.2727798    0.3648753  0.00    0.0554319    0.0096110   -0.0487736
h    -5.8057855    1.7089967   -0.2769289  0.00    0.0064373    0.0130202   -0.0022939
n    -3.4532717    0.4062552   -0.3583701  0.00    0.0594957   -0.0540103   -0.0291859
h    -3.8392357    1.5359617    1.4078159  0.00    0.0039427   -0.0090005   -0.0134627
h    -2.6478012    0.5140850   -0.9932008  0.00   -0.0170947    0.0118993    0.0322010
h    -3.1253085   -0.2732485    0.3576631  0.00   -0.0030604    0.0126375   -0.0062326
o    -1.3626168    2.4041368    0.6963655  0.00   -0.2111034    0.0442428   -0.0963175
o    -2.7309810    3.7342007   -0.5854348  0.00   -0.0644784   -0.0543651    0.0010854
h    -3.7350605    3.7364434   -0.6941751  0.00   -1.3219436   -1.3292371   -0.1054011
    13
 Energy =       0.3583048940
c    -3.7094982    1.6960647    0.3074319  0.00   -0.0885754    0.1120832   -0.0172733
c    -2.4887835    2.6245993    0.2306306  0.00    0.2750121   -0.0376604    0.0821574
c    -4.9483300    2.4128438   -0.2196553  0.00    0.5529878    0.5997711   -0.1979980
h    -4.7867274    2.7821910   -1.2290195  0.00    0.6928711    0.6322341    0.3928347
h    -5.2079959    3.2758915    0.4145490  0.00    0.0530943    0.0096842   -0.0464823
h    -5.8148760    1.7346031   -0.2531015  0.00    0.0060270    0.0123705   -0.0022055
n    -3.4471191    0.4355339   -0.4700353  0.00    0.0541028   -0.0551423   -0.0337222
h    -3.8506998    1.4332773    1.3769710  0.00    0.0033586   -0.0093486   -0.0097346
h    -2.6230029    0.5906142   -1.0755684  0.00   -0.0143804    0.0118940    0.0287532
h    -3.1460912   -0.3066526    0.1989099  0.00   -0.0017311    0.0081763   -0.0021610
o    -1.3839772    2.3621356    0.7708653  0.00   -0.2017026    0.0418515   -0.0923271
o    -2.7303436    3.7753316   -0.4698994  0.00   -0.0533527   -0.0473390    0.0007046
h    -3.7270614    3.7514429   -0.6726629  0.00   -1.2777115   -1.2785747   -0.1025458
    13
 Energy =       0.2532430404
c    -3.7093323    1.6750531    0.2824398  0.00   -0.0521516    0.0704828   -0.0110160
c    -2.5061279    2.6136535    0.2885509  0.00    0.1550261   -0.0237451    0.0472420
c    -4.9343377    2.4270322   -0.2103214  0.00    0.3678857    0.3984352   -0.1364489
h    -4.7700808    2.8036714   -1.2045054  0.00    0.4537317    0.4107391    0.2629016
h    -5.1810892    3.2698854    0.4618837  0.00    0.0347325    0.0067399   -0.0290975
h    -5.8083073    1.7507063   -0.2564959  0.00    0.0034576    0.0069562   -0.0013811
n    -3.4710586    0.4767292   -0.5789711  0.00    0.0247416   -0.0272581   -0.0306260
h    -3.8650662    1.3519435    1.3391904  0.00    0.0017344   -0.0059708   -0.0033883
h    -2.6006495    0.6215905   -1.1363592  0.00   -0.0046953    0.0090033    0.0149625
h    -3.2704285   -0.3532864    0.0401568  0.00    0.0015248   -0.0078353    0.0085894
o    -1.3796822    2.2751820    0.8775865  0.00   -0.1142111    0.0197682   -0.0506121
o    -2.6955651    3.8357939   -0.3304271  0.00   -0.0158977   -0.0163005    0.0035521
h    -3.6727811    3.8199217   -0.6633127  0.00   -0.8558787   -0.8410149   -0.0746777
    13
 Energy =       0.1847778605
c    -3.7026748    1.6848149    0.2800553  0.00   -0.0277065    0.0395475   -0.0063856
c    -2.5077365    2.6317702    0.2833288  0.00    0.0839352   -0.0124125    0.0258215
c    -4.9373665    2.4187232   -0.2377047  0.00    0.2342191    0.2535970   -0.0882447
h    -4.7723498    2.8153708   -1.2362586  0.00    0.2881867    0.2630473    0.1662117
h    -5.2099255    3.2567855    0.4333987  0.00    0.0219637    0.0047928   -0.0184711
h    -5.7976752    1.7207164   -0.2943818  0.00    0.0016821    0.0034894   -0.0007825
n    -3.4740555    0.4821320   -0.5633858  0.00   -0.0060299   -0.0011542   -0.0211807
h    -3.8634424    1.3861125    1.3442579  0.00    0.0008334   -0.0030354   -0.0013782
h    -2.5223057    0.5345960   -1.0236178  0.00    0.0152388    0.0059626   -0.0002482
h    -3.4291816   -0.3756225    0.0634169  0.00    0.0021745   -0.0200203    0.0169840
o    -1.3538977    2.2876124    0.8910497  0.00   -0.0619912    0.0106646   -0.0272701
o    -2.6654629    3.8584540   -0.3397959  0.00   -0.0085492   -0.0087548    0.0019056
h    -3.6284322    3.8664111   -0.6909474  0.00   -0.5439567   -0.5357240   -0.0469618
    13
 Energy =       0.1031692471
c    -3.7089570    1.6685807    0.2819201  0.00    0.0036304   -0.0011892   -0.0009723
c    -2.5247517    2.6286212    0.3352128  0.00   -0.0134064    0.0014764   -0.0037316
c    -4.9644544    2.3834897   -0.2238302  0.00    0.0743389    0.0793185   -0.0288976
h    -4.7912357    2.8195536   -1.2243424  0.00    0.0952764    0.0874951    0.0498080
h    -5.2660494    3.1935993    0.4758049  0.00    0.0064324    0.0028299   -0.0042833
h    -5.8034599    1.6550331   -0.3058808  0.00   -0.0007215   -0.0013446   -0.0000361
n    -3.4866202    0.5088009   -0.6000048  0.00   -0.0142157    0.0050172    0.0040793
h    -3.8796154    1.3377193    1.3365574  0.00   -0.0004723    0.0004838    0.0010101
h    -2.6086600    0.6191882   -1.1823709  0.00    0.0138146   -0.0004587   -0.0084543
h    -3.3431185   -0.3514996   -0.0142581  0.00   -0.0017150   -0.0035963    0.0033997
o    -1.3475104    2.2443098    0.9775126  0.00    0.0102439   -0.0036301    0.0055829
o    -2.6060367    3.8826296   -0.2676830  0.00    0.0075382    0.0033982    0.0014780
h    -3.5340370    3.9778506   -0.6792222  0.00   -0.1807439   -0.1698001   -0.0189828
    13
 Energy =       0.0956063693
c    -3.7047089    1.6531928    0.2733335  0.00    0.0032742   -0.0006780   -0.0004349
c    -2.5338490    2.6296406    0.3486898  0.00   -0.0103541    0.0016175   -0.0025951
c    -4.9833517    2.3572170   -0.1886719  0.00    0.0599245    0.0636773   -0.0229494
h    -4.8430603    2.8313268   -1.1788160  0.00    0.0771163    0.0715707    0.0393278
h    -5.2869431    3.1390849    0.5423605  0.00    0.0048901    0.0028825   -0.0030026
h    -5.8090403    1.6143413   -0.2757596  0.00   -0.0007430   -0.0012193    0.0000794
n    -3.4695192    0.5254467   -0.6468979  0.00   -0.0266983    0.0128828    0.0023534
h    -3.8581936    1.2818950    1.3178958  0.00   -0.0007198    0.0002104    0.0018775
h    -2.6603065    0.7229749   -1.3122315  0.00    0.0225502    0.0021437   -0.0163010
h    -3.1843654   -0.3271564   -0.0856133  0.00    0.0028803   -0.0160665    0.0116526
o    -1.3549543    2.2467529    0.9854980  0.00    0.0080512   -0.0029056    0.0044040
o    -2.6251884    3.8943896   -0.2304717  0.00    0.0059585    0.0030811    0.0010008
h    -3.5510257    3.9987703   -0.6399003  0.00   -0.1461299   -0.1371966   -0.0154125
    13
 Energy =       0.0873827807
c    -3.6865097    1.6349329    0.2457610  0.00    0.0037103    0.0006727    0.0008506
c    -2.5285778    2.6272558    0.3450672  0.00   -0.0071419   -0.0000738   -0.0014281
c    -5.0023762    2.3322075   -0.1227636  0.00    0.0420806    0.0448058   -0.0159817
h    -4.9210432    2.8765033   -1.0889568  0.00    0.0562945    0.0549402    0.0252165
h    -5.2960587    3.0590876    0.6703875  0.00    0.0023164    0.0042003   -0.0000187
h    -5.8117360    1.5732011   -0.2215626  0.00   -0.0007511   -0.0011869    0.0003102
n    -3.4583219    0.5656212   -0.7477196  0.00   -0.0195621    0.0081523   -0.0020598
h    -3.7942511    1.1969336    1.2729448  0.00   -0.0008792   -0.0010162    0.0044365
h    -2.6747224    0.8142138   -1.4206308  0.00    0.0175791    0.0012800   -0.0131603
h    -3.1415202   -0.3099424   -0.2443664  0.00    0.0029891   -0.0143689    0.0100282
o    -1.3356322    2.2287605    0.9427901  0.00    0.0063070   -0.0028840    0.0037488
o    -2.6416867    3.9204032   -0.1679584  0.00    0.0040411    0.0049160   -0.0002911
h    -3.5720703    4.0486985   -0.5535772  0.00   -0.1069837   -0.0994374   -0.0116511
    13
 Energy =       0.0809190900
c    -3.7135864    1.6469872    0.2777468  0.00    0.0048343    0.0038828    0.0028152
c    -2.5629349    2.6474077    0.4014994  0.00   -0.0069459   -0.0028138   -0.0007395
c    -5.0117378    2.3113239   -0.2073713  0.00    0.0271216    0.0303933   -0.0111631
h    -4.8636844    2.7785005   -1.2094904  0.00    0.0421684    0.0417851    0.0137966
h    -5.3532312    3.0930191    0.5166547  0.00   -0.0001088    0.0062247    0.0031006
h    -5.8118897    1.5424316   -0.3019779  0.00   -0.0006665   -0.0009058   -0.0000161
n    -3.4151847    0.5329483   -0.6484657  0.00   -0.0201720    0.0079055   -0.0091812
h    -3.8827503    1.2539785    1.3161625  0.00   -0.0009942   -0.0009576    0.0062716
h    -2.6849149    0.8172159   -1.3637528  0.00    0.0155372    0.0037489   -0.0115822
h    -2.9968864   -0.2771582   -0.1015223  0.00    0.0069194   -0.0207624    0.0131265
o    -1.4124718    2.2800059    1.1015433  0.00    0.0106959   -0.0054348    0.0068177
o    -2.6300637    3.9094929   -0.2011948  0.00    0.0054018    0.0072303   -0.0008767
h    -3.5251702    4.0317231   -0.6704163  0.00   -0.0837912   -0.0702963   -0.0123693
    13
 Energy =       0.0725681340
c    -3.7178592    1.6485192    0.2816255  0.00    0.0018751    0.0027728    0.0016072
c    -2.5949255    2.6810338    0.4343600  0.00   -0.0028907   -0.0003801   -0.0006570
c    -5.0320584    2.2511820   -0.2286302  0.00    0.0128553    0.0149840   -0.0056344
h    -4.8832105    2.6956842   -1.2369898  0.00    0.0227329    0.0211167    0.0081306
h    -5.4075176    3.0340826    0.4711714  0.00    0.0000662    0.0029225    0.0014792
h    -5.8033304    1.4522483   -0.3162237  0.00   -0.0008894   -0.0008830   -0.0002206
n    -3.3604240    0.5432747   -0.6281614  0.00   -0.0168317    0.0065934   -0.0048677
h    -3.8953732    1.2495840    1.3125084  0.00   -0.0005941   -0.0001356    0.0024852
h    -2.7039038    0.8814759   -1.3858218  0.00    0.0110756    0.0043965   -0.0089219
h    -2.8381333   -0.2050775   -0.0880248  0.00    0.0066723   -0.0166868    0.0101643
o    -1.4701991    2.3453272    1.1832495  0.00    0.0060084   -0.0026150    0.0033945
o    -2.6464310    3.9319755   -0.1880639  0.00    0.0031919    0.0025143    0.0002230
h    -3.5111404    4.0585664   -0.7015838  0.00   -0.0432719   -0.0345997   -0.0071824
    13
 Energy =       0.0692537109
c    -3.7109261    1.6485764    0.2853648  0.00    0.0003697    0.0025329    0.0019875
c    -2.6363054    2.7312037    0.4611668  0.00   -0.0024887    0.0010125   -0.0013594
c    -5.0478634    2.1792412   -0.2462339  0.00    0.0068943    0.0092896   -0.0035478
h    -4.9151904    2.5964131   -1.2679880  0.00    0.0138520    0.0128415    0.0046266
h    -5.4593008    2.9655949    0.4279484  0.00   -0.0001578    0.0023341    0.0012328
h    -5.7837899    1.3446547   -0.3123228  0.00   -0.0014158   -0.0015308   -0.0003415
n    -3.2828206    0.5596899   -0.6126868  0.00   -0.0149395    0.0043604   -0.0045117
h    -3.8868324    1.2407690    1.3120229  0.00   -0.0005743   -0.0000454    0.0014537
h    -2.6836687    0.9413491   -1.3945790  0.00    0.0086764    0.0044011   -0.0075486
h    -2.6793802   -0.1265062   -0.0763253  0.00    0.0076297   -0.0149285    0.0088851
o    -1.5319957    2.4528958    1.2627225  0.00    0.0065131   -0.0020280    0.0038857
o    -2.7017180    3.9673112   -0.1889373  0.00    0.0030876    0.0015718    0.0007091
h    -3.5447147    4.0666837   -0.7407370  0.00   -0.0274468   -0.0198111   -0.0054714
    13
 Energy =       0.0678622401
c    -3.6857612    1.6517494    0.2899659  0.00    0.0000596    0.0008805    0.0028884
c    -2.6826935    2.8068352    0.4554164  0.00   -0.0022723    0.0014109   -0.0013701
c    -5.0610451    2.0816544   -0.2409958  0.00    0.0029633    0.0078647   -0.0026110
h    -4.9674037    2.4696309   -1.2789858  0.00    0.0090750    0.0090106    0.0020572
h    -5.5128618    2.8639599    0.4117108  0.00   -0.0004781    0.0024327    0.0011616
h    -5.7455661    1.1998255   -0.2699483  0.00   -0.0028001   -0.0033167   -0.0004161
n    -3.1861480    0.5840064   -0.5970640  0.00   -0.0130542    0.0019439   -0.0045691
h    -3.8305097    1.2411816    1.3204431  0.00   -0.0004861   -0.0007286    0.0012776
h    -2.6327217    0.9986387   -1.3942146  0.00    0.0071625    0.0041461   -0.0065793
h    -2.5220830   -0.0428573   -0.0612349  0.00    0.0081671   -0.0135147    0.0079700
o    -1.5726752    2.6116489    1.2751430  0.00    0.0078942   -0.0017121    0.0050083
o    -2.8126372    4.0269689   -0.2185970  0.00    0.0039231    0.0037965    0.0002913
h    -3.6524001    4.0746339   -0.7822234  0.00   -0.0201539   -0.0122139   -0.0051088
    13
 Energy =       0.0668079287
c    -3.7243274    1.6334063    0.2765423  0.00   -0.0003742   -0.0023335    0.0008704
c    -2.6756842    2.7329668    0.5468605  0.00   -0.0032712   -0.0004636   -0.0013372
c    -5.0561402    2.1432819   -0.3046463  0.00   -0.0002379    0.0067473   -0.0023421
h    -4.9048277    2.5598611   -1.3272408  0.00    0.0064873    0.0075760   -0.0007070
h    -5.5025577    2.9235181    0.3531004  0.00   -0.0004526    0.0018645    0.0008865
h    -5.7774407    1.2931148   -0.3890029  0.00   -0.0038864   -0.0043393   -0.0004489
n    -3.2237348    0.5830687   -0.6276687  0.00   -0.0107222    0.0011360   -0.0035681
h    -3.9385982    1.1828295    1.2809246  0.00   -0.0008408   -0.0022793    0.0039197
h    -2.6931401    1.0167640   -1.4284356  0.00    0.0055596    0.0032593   -0.0055372
h    -2.5376133   -0.0300570   -0.1080643  0.00    0.0065055   -0.0102954    0.0062491
o    -1.6254789    2.4528958    1.4249066  0.00    0.0126683   -0.0026621    0.0091331
o    -2.7016201    3.9835179   -0.0887556  0.00    0.0075688    0.0095632    0.0000287
h    -3.5033430    4.0927085   -0.6991048  0.00   -0.0190042   -0.0077729   -0.0071470
    13
 Energy =       0.0661051412
c    -3.7338083    1.6201838    0.2584761  0.00   -0.0021438   -0.0006142    0.0022394
c    -2.7304735    2.7354024    0.6253367  0.00   -0.0002503   -0.0021603    0.0012530
c    -5.0420168    2.1003701   -0.3956591  0.00   -0.0013401    0.0018039   -0.0022208
h    -4.8409532    2.5302947   -1.4046808  0.00    0.0040544    0.0039718   -0.0021879
h    -5.5506689    2.8581301    0.2449002  0.00   -0.0013171    0.0022590    0.0020698
h    -5.7334987    1.2333917   -0.5316707  0.00   -0.0036189   -0.0033523   -0.0005985
n    -3.1447916    0.6043418   -0.6335410  0.00   -0.0075597   -0.0011485   -0.0055689
h    -3.9986807    1.1411949    1.2369671  0.00   -0.0014550   -0.0012106    0.0041150
h    -2.6406662    1.0745720   -1.4288606  0.00    0.0039169    0.0025143   -0.0040518
h    -2.4177314    0.0512788   -0.1045696  0.00    0.0065495   -0.0081606    0.0046034
o    -1.7055235    2.4341218    1.5199858  0.00    0.0075801   -0.0009346    0.0051190
o    -2.7690826    4.0232013    0.0699975  0.00    0.0059065    0.0100999   -0.0010150
h    -3.5566109    4.1613929   -0.5472662  0.00   -0.0103226   -0.0030676   -0.0037567
    13
 Energy =       0.0655846002
c    -3.7297438    1.6203009    0.2675367  0.00   -0.0010096   -0.0001079    0.0037779
c    -2.7072387    2.7254974    0.6065258  0.00   -0.0006008   -0.0063604    0.0036493
c    -5.0674687    2.1211053   -0.3121415  0.00   -0.0025981    0.0009986   -0.0020210
h    -4.9238695    2.5319649   -1.3397474  0.00    0.0037015    0.0034350   -0.0042368
h    -5.5189564    2.8999155    0.3487858  0.00   -0.0019601    0.0033628    0.0034346
h    -5.7853605    1.2672575   -0.3948321  0.00   -0.0049585   -0.0042374   -0.0009441
n    -3.1871632    0.6179904   -0.6700669  0.00   -0.0075051   -0.0018042   -0.0072032
h    -3.9512564    1.1256577    1.2500985  0.00   -0.0014928   -0.0012515    0.0050469
h    -2.7103636    1.0994044   -1.4757901  0.00    0.0041661    0.0025324   -0.0045866
h    -2.4449444    0.0476079   -0.1807736  0.00    0.0074560   -0.0086287    0.0051324
o    -1.7210441    2.4461672    1.5524373  0.00    0.0086534   -0.0027751    0.0068308
o    -2.6830631    3.9764269   -0.0365979  0.00    0.0073944    0.0152696   -0.0026835
h    -3.4340339    4.0885805   -0.7060193  0.00   -0.0112464   -0.0004331   -0.0061966
    13
 Energy =       0.0644674718
c    -3.7252090    1.6130110    0.2679617  0.00    0.0010408    0.0018548    0.0039623
c    -2.6947119    2.7033348    0.6064718  0.00   -0.0027024   -0.0066965    0.0033368
c    -5.0907895    2.1415301   -0.2144113  0.00   -0.0036508    0.0002713   -0.0006428
h    -5.0208007    2.5606533   -1.2450855  0.00    0.0009505    0.0013999   -0.0045131
h    -5.4854771    2.9188747    0.4827407  0.00   -0.0017605    0.0029328    0.0030071
h    -5.8230080    1.3002840   -0.2570080  0.00   -0.0032603   -0.0023494   -0.0008539
n    -3.2272494    0.6566969   -0.7394353  0.00   -0.0067266   -0.0029023   -0.0053208
h    -3.8966382    1.0726117    1.2360610  0.00   -0.0008289   -0.0011884    0.0046543
h    -2.8164574    1.1743701   -1.5596311  0.00    0.0040884    0.0028912   -0.0060848
h    -2.4419967    0.0907344   -0.3187417  0.00    0.0071092   -0.0068637    0.0047280
o    -1.7780713    2.4542482    1.6285193  0.00    0.0080560   -0.0046451    0.0080681
o    -2.5888165    3.9037535   -0.1175205  0.00    0.0074071    0.0126260   -0.0009596
h    -3.2752808    3.9777737   -0.8605057  0.00   -0.0097226    0.0026694   -0.0093817
    13
 Energy =       0.0633779607
c    -3.7200916    1.6008810    0.2624704  0.00    0.0009221    0.0025667    0.0025791
c    -2.6888221    2.6811698    0.6101182  0.00   -0.0042267   -0.0025532   -0.0003784
c    -5.1032440    2.1530295   -0.1239910  0.00   -0.0023589   -0.0008099    0.0002327
h    -5.0898400    2.6274211   -1.1310972  0.00   -0.0007672    0.0007502   -0.0033181
h    -5.4613347    2.8937445    0.6286020  0.00   -0.0012716    0.0022137    0.0017957
h    -5.8342107    1.3152982   -0.1692055  0.00   -0.0002611   -0.0002481   -0.0001385
n    -3.2644932    0.7061798   -0.8168566  0.00   -0.0054557   -0.0029414   -0.0020353
h    -3.8449532    1.0054218    1.2036492  0.00   -0.0003697   -0.0011708    0.0030787
h    -2.9320070    1.2696047   -1.6417056  0.00    0.0030673    0.0031973   -0.0059302
h    -2.4333524    0.1545353   -0.4774949  0.00    0.0057382   -0.0045860    0.0031174
o    -1.8563593    2.4805607    1.7106004  0.00    0.0062630   -0.0040611    0.0076121
o    -2.5035534    3.8244497   -0.1773769  0.00    0.0027420    0.0057594   -0.0014281
h    -3.1322447    3.8555803   -0.9682972  0.00   -0.0040217    0.0018832   -0.0051871
    13
 Energy =       0.0627734857
c    -3.7173817    1.5916082    0.2592896  0.00    0.0004594    0.0000330    0.0022076
c    -2.6760647    2.6617052    0.6028247  0.00   -0.0040369   -0.0012123   -0.0022112
c    -5.1087753    2.1673636   -0.0422422  0.00    0.0006051   -0.0025696    0.0007718
h    -5.1196444    2.7428088   -0.9974173  0.00   -0.0008496    0.0025251   -0.0047319
h    -5.4499157    2.8328037    0.7873551  0.00   -0.0014443    0.0033220    0.0034239
h    -5.8364913    1.3304461   -0.1476472  0.00   -0.0004070   -0.0018708   -0.0001052
n    -3.3141731    0.7433539   -0.8747482  0.00   -0.0033112   -0.0010486   -0.0007366
h    -3.8035604    0.9565774    1.1763322  0.00   -0.0001191   -0.0004592    0.0010687
h    -3.0562180    1.3357402   -1.7026810  0.00    0.0015643    0.0020527   -0.0029564
h    -2.4493912    0.2062155   -0.6119927  0.00    0.0032042   -0.0022007    0.0012915
o    -1.9372377    2.5273966    1.7769495  0.00    0.0045057   -0.0031983    0.0076611
o    -2.4079203    3.7413167   -0.2455621  0.00    0.0010094    0.0041816   -0.0030188
h    -2.9877326    3.7305404   -1.0710452  0.00   -0.0011799    0.0004451   -0.0026646
    13
 Energy =       0.0625838920
c    -3.7170257    1.5891764    0.2602455  0.00   -0.0000425   -0.0003245    0.0001205
c    -2.6596913    2.6482116    0.5898254  0.00    0.0007791    0.0003539    0.0003062
c    -5.1049512    2.1830483   -0.0085327  0.00   -0.0000325    0.0005484    0.0000540
h    -5.1126725    2.8003957   -0.9301299  0.00    0.0000844   -0.0005785    0.0006429
h    -5.4344814    2.8100529    0.8478687  0.00    0.0003020   -0.0004607   -0.0007323
h    -5.8417025    1.3609155   -0.1459012  0.00   -0.0000647    0.0001351    0.0000099
n    -3.3478474    0.7421590   -0.8840783  0.00   -0.0012399   -0.0003806    0.0013002
h    -3.7916300    0.9491283    1.1730526  0.00    0.0000097    0.0001864   -0.0003142
h    -3.1505073    1.3306842   -1.7292768  0.00    0.0003686    0.0008146   -0.0013413
h    -2.4592487    0.2302000   -0.6616986  0.00    0.0005009   -0.0002615    0.0003346
o    -1.9604603    2.5507548    1.7842369  0.00   -0.0007232    0.0002568   -0.0015033
o    -2.3550717    3.6948974   -0.2799301  0.00   -0.0004412   -0.0002577    0.0001014
h    -2.9292164    3.6782525   -1.1062662  0.00    0.0004994   -0.0000319    0.0010216
    13
 Energy =       0.0625729720
c    -3.7102820    1.5888331    0.2615982  0.00    0.0000692   -0.0000787    0.0001152
c    -2.6523346    2.6520042    0.5747830  0.00    0.0000880   -0.0000477    0.0000243
c    -5.1051161    2.1788714    0.0190167  0.00   -0.0001625   -0.0001022   -0.0000111
h    -5.1277394    2.8123325   -0.8925564  0.00   -0.0000358    0.0001076   -0.0001461
h    -5.4277219    2.7903995    0.8904230  0.00   -0.0000697    0.0000743    0.0001222
h    -5.8386099    1.3543337   -0.1219348  0.00   -0.0000066   -0.0000102    0.0000084
n    -3.3577517    0.7456288   -0.8913599  0.00   -0.0006438   -0.0001535    0.0002832
h    -3.7660452    0.9460076    1.1743430  0.00   -0.0000105   -0.0000537    0.0001369
h    -3.1876008    1.3350560   -1.7410768  0.00    0.0001999    0.0003933   -0.0006495
h    -2.4587661    0.2431893   -0.6901912  0.00    0.0004920   -0.0002709    0.0001578
o    -1.9510321    2.5717149    1.7703988  0.00    0.0000153    0.0000172    0.0000176
o    -2.3511542    3.6875872   -0.3103288  0.00    0.0000607    0.0001423   -0.0000713
h    -2.9303524    3.6619183   -1.1336996  0.00    0.0000038   -0.0000180    0.0000122
    13
 Energy =       0.0625724068
c    -3.7112206    1.5885924    0.2615361  0.00    0.0000005   -0.0000004   -0.0000005
c    -2.6530136    2.6506485    0.5770251  0.00   -0.0000013   -0.0000020   -0.0000017
c    -5.1048699    2.1800870    0.0168870  0.00   -0.0000008   -0.0000001    0.0000013
h    -5.1251270    2.8141570   -0.8941168  0.00   -0.0000005    0.0000014   -0.0000026
h    -5.4282709    2.7913522    0.8880023  0.00   -0.0000000   -0.0000000    0.0000005
h    -5.8389913    1.3564345   -0.1259285  0.00   -0.0000018   -0.0000015   -0.0000002
n    -3.3574893    0.7454612   -0.8909933  0.00   -0.0000046    0.0000001    0.0000001
h    -3.7690895    0.9454223    1.1737415  0.00    0.0000001   -0.0000012    0.0000020
h    -3.1895107    1.3345772   -1.7407882  0.00    0.0000015    0.0000028   -0.0000020
h    -2.4576070    0.2451184   -0.6903665  0.00    0.0000031   -0.0000031    0.0000014
o    -1.9546611    2.5698901    1.7743261  0.00    0.0000034   -0.0000009    0.0000065
o    -2.3487245    3.6856717   -0.3075591  0.00    0.0000030    0.0000043   -0.0000006
h    -2.9259309    3.6604638   -1.1323504  0.00   -0.0000025    0.0000006   -0.0000044
    13
 Energy =       0.0625724065
c    -3.7112209    1.5885890    0.2615446  0.00    0.0000000    0.0000000   -0.0000000
c    -2.6530205    2.6506477    0.5770360  0.00   -0.0000000   -0.0000000   -0.0000000
c    -5.1048675    2.1800855    0.0168953  0.00    0.0000000   -0.0000000    0.0000000
h    -5.1251113    2.8141902   -0.8940815  0.00   -0.0000000    0.0000000   -0.0000000
h    -5.4282832    2.7913197    0.8880265  0.00   -0.0000000    0.0000000    0.0000000
h    -5.8389823    1.3564366   -0.1259590  0.00   -0.0000000   -0.0000000   -0.0000000
n    -3.3574841    0.7454545   -0.8909810  0.00   -0.0000000   -0.0000000    0.0000000
h    -3.7690895    0.9454188    1.1737469  0.00   -0.0000000   -0.0000000    0.0000000
h    -3.1896456    1.3345513   -1.7408141  0.00    0.0000000    0.0000000   -0.0000000
h    -2.4575309    0.2452219   -0.6904100  0.00    0.0000000   -0.0000000    0.0000000
o    -1.9547256    2.5699365    1.7743689  0.00    0.0000000   -0.0000000    0.0000000
o    -2.3486872    3.6856316   -0.3075728  0.00    0.0000000    0.0000000   -0.0000000
h    -2.9258577    3.6603931   -1.1323845  0.00   -0.0000000    0.0000000   -0.0000000
