    13
 Energy =       0.1323217570
c    -3.7133889    1.6950595    0.3173519  0.00   -0.0510879    0.0533024    0.1525992
c    -2.4962693    2.6345192    0.2419999  0.00    0.2053474    0.1064968   -0.3143457
c    -4.9565486    2.3924193   -0.2155699  0.00    0.0101417    0.0213610    0.0079985
h    -5.8072983    1.7014095   -0.2223689  0.00    0.0088203    0.0137501   -0.0001892
h    -4.8071186    2.7393792   -1.2437896  0.00   -0.0067140   -0.0030398    0.0175677
h    -5.2375685    3.2516891    0.4029209  0.00   -0.0011432   -0.0136008   -0.0114010
n    -3.4097890    0.4519539   -0.4549189  0.00    0.0794554   -0.0560381   -0.0169871
h    -3.8575589    1.4177196    1.3669296  0.00    0.1154123    0.0895409    0.0395783
h    -2.5963493    0.6418898   -1.0496997  0.00   -0.0235309    0.0186946    0.0455423
h    -3.0749291   -0.2623099    0.1989099  0.00   -0.0099490    0.0310098   -0.0224473
o    -1.9513094    3.0041591   -0.7839488  0.00   -0.1325224   -0.0959168    0.2466860
o    -2.1005994    3.0267291    1.4825496  0.00   -0.0702806   -0.0527391    0.0086972
h    -2.6645092    2.5096893    2.1108994  0.00   -0.1239493   -0.1128211   -0.1532989
    13
 Energy =       0.1198539915
c    -3.6881021    1.6871694    0.3019432  0.00   -0.0433154    0.0470159    0.1304223
c    -2.5299360    2.6956183    0.2341730  0.00    0.1747673    0.0877645   -0.2700831
c    -4.9954441    2.3444660   -0.1329954  0.00    0.0071768    0.0217500    0.0088629
h    -5.8245823    1.6232245   -0.0636158  0.00    0.0045166    0.0100025    0.0003177
h    -4.9408142    2.6912744   -1.1777708  0.00   -0.0056249   -0.0012602    0.0107658
h    -5.2488202    3.2000139    0.5074947  0.00   -0.0011948   -0.0113942   -0.0091714
n    -3.3729656    0.4985287   -0.5489486  0.00    0.0680467   -0.0489966   -0.0194695
h    -3.7647654    1.3482216    1.3482051  0.00    0.0987174    0.0756075    0.0383960
h    -2.5578031    0.7290373   -1.1352195  0.00   -0.0190055    0.0169268    0.0379377
h    -3.0535243   -0.2776500    0.0495581  0.00   -0.0068617    0.0220588   -0.0160920
o    -1.9521678    3.0499835   -0.8090667  0.00   -0.1137612   -0.0828399    0.2103594
o    -2.1841804    3.1646277    1.4689552  0.00   -0.0328000    0.0059933   -0.0230943
h    -2.5601312    2.4497915    2.1085529  0.00   -0.1306612   -0.1426286   -0.0991517
    13
 Energy =       0.0857852701
c    -3.6877490    1.6872594    0.3037507  0.00   -0.0199830    0.0274161    0.0729551
c    -2.5025193    2.6514439    0.2688437  0.00    0.0894859    0.0451765   -0.1392594
c    -4.9716903    2.3815729   -0.1473721  0.00    0.0032822    0.0114757    0.0051522
h    -5.8193871    1.6707829   -0.1152086  0.00    0.0016933    0.0046072    0.0000091
h    -4.8726092    2.7443992   -1.1899053  0.00   -0.0027800   -0.0001716    0.0047092
h    -5.2136045    3.2383433    0.5066574  0.00   -0.0005870   -0.0058286   -0.0046430
n    -3.4469867    0.4961750   -0.5492890  0.00    0.0310448   -0.0208082   -0.0125458
h    -3.7868065    1.3664047    1.3593766  0.00    0.0622692    0.0487284    0.0260080
h    -2.6155768    0.6578828   -1.1557611  0.00   -0.0064259    0.0098796    0.0182187
h    -3.2122774   -0.3275904    0.0460960  0.00   -0.0023233    0.0048091   -0.0048921
o    -1.9016077    3.0014975   -0.8467713  0.00   -0.0592019   -0.0447424    0.1076652
o    -2.0934086    3.1271678    1.4930542  0.00   -0.0093067    0.0146888   -0.0187411
h    -2.5490136    2.5089678    2.1777943  0.00   -0.0871677   -0.0952306   -0.0546361
    13
 Energy =       0.0791711283
c    -3.6800103    1.6778780    0.2904000  0.00   -0.0136680    0.0248992    0.0599864
c    -2.4661526    2.6066341    0.2588057  0.00    0.0703786    0.0357119   -0.1081491
c    -4.9611000    2.4326270   -0.0766690  0.00    0.0003588    0.0088051    0.0024774
h    -5.8308466    1.7468583   -0.0399198  0.00    0.0007214    0.0033667   -0.0002518
h    -4.8919793    2.8364404   -1.1089763  0.00   -0.0025348    0.0002952    0.0023478
h    -5.1446852    3.2704999    0.6259846  0.00   -0.0009250   -0.0023817   -0.0017206
n    -3.5229800    0.5180919   -0.6251831  0.00    0.0214520   -0.0141260   -0.0172454
h    -3.7427418    1.3154980    1.3393279  0.00    0.0506769    0.0394617    0.0231556
h    -2.6737467    0.6405769   -1.2204290  0.00   -0.0035748    0.0081721    0.0135501
h    -3.3710305   -0.3632290   -0.0751590  0.00   -0.0000979   -0.0052142    0.0003540
o    -1.8559542    2.9462377   -0.8745190  0.00   -0.0460089   -0.0349839    0.0839616
o    -2.0283198    3.0772420    1.4783577  0.00   -0.0061226    0.0131042   -0.0152805
h    -2.5036896    2.4989518    2.1792446  0.00   -0.0706557   -0.0771103   -0.0431854
    13
 Energy =       0.0733889487
c    -3.6898182    1.6866673    0.3021117  0.00   -0.0080105    0.0204160    0.0473474
c    -2.4823251    2.6229480    0.2856735  0.00    0.0538542    0.0273144   -0.0820751
c    -4.9560222    2.4122547   -0.1712894  0.00   -0.0024796    0.0055660    0.0020603
h    -5.8247683    1.7244628   -0.1291024  0.00    0.0005045    0.0024951   -0.0001566
h    -4.8383711    2.7475108   -1.2276874  0.00   -0.0019157    0.0012668   -0.0017533
h    -5.1740808    3.2972714    0.4672315  0.00   -0.0017401    0.0010660    0.0007069
n    -3.4861117    0.4852724   -0.5487270  0.00    0.0150212   -0.0110174   -0.0170561
h    -3.8157580    1.3803097    1.3671476  0.00    0.0393395    0.0307876    0.0218332
h    -2.6061259    0.5751922   -1.1096875  0.00   -0.0004214    0.0054152    0.0087700
h    -3.3615329   -0.3675443    0.0531283  0.00    0.0005062   -0.0068497    0.0021297
o    -1.8599965    2.9609870   -0.8580412  0.00   -0.0349498   -0.0266796    0.0636568
o    -2.0480950    3.1125724    1.5020851  0.00   -0.0043244    0.0107569   -0.0120314
h    -2.5302311    2.5664023    2.2184227  0.00   -0.0553841   -0.0605373   -0.0334317
    13
 Energy =       0.0681628989
c    -3.6986008    1.6987092    0.3019194  0.00   -0.0033199    0.0127940    0.0302452
c    -2.4813701    2.6231640    0.3025761  0.00    0.0323308    0.0177074   -0.0494490
c    -4.9370334    2.4178597   -0.2461025  0.00   -0.0029500    0.0033020    0.0017914
h    -5.8143946    1.7390672   -0.2141495  0.00    0.0000964    0.0015156    0.0000136
h    -4.7707783    2.7129762   -1.3092379  0.00   -0.0010086    0.0013141   -0.0028984
h    -5.1693865    3.3283154    0.3512990  0.00   -0.0015826    0.0016119    0.0011035
n    -3.4853044    0.4703645   -0.5015135  0.00   -0.0092027    0.0074222   -0.0155482
h    -3.8786702    1.4329706    1.3720135  0.00    0.0258140    0.0207760    0.0169157
h    -2.5231801    0.4689667   -0.9509344  0.00    0.0197368    0.0027114   -0.0042158
h    -3.5148737   -0.3815049    0.1307492  0.00   -0.0002755   -0.0194646    0.0138275
o    -1.8317381    2.9392492   -0.8531073  0.00   -0.0205975   -0.0167460    0.0382460
o    -2.0368222    3.1251131    1.5145614  0.00   -0.0016074    0.0081696   -0.0087748
h    -2.5310844    2.6290559    2.2531920  0.00   -0.0374339   -0.0411138   -0.0212568
    13
 Energy =       0.0618618394
c    -3.7224180    1.6933452    0.3264745  0.00    0.0007503    0.0040148    0.0094204
c    -2.4546861    2.5571383    0.3102166  0.00    0.0049614    0.0046426   -0.0093328
c    -4.9043337    2.4440352   -0.2940529  0.00   -0.0016163    0.0013909    0.0013846
h    -5.8166574    1.8089254   -0.2536985  0.00   -0.0012596   -0.0007015    0.0006275
h    -4.6886713    2.6755794   -1.3646944  0.00    0.0006090    0.0012109   -0.0033383
h    -5.1055302    3.3959814    0.2489147  0.00   -0.0014107    0.0026115    0.0012123
n    -3.5712271    0.4167686   -0.4068418  0.00   -0.0141955    0.0027514   -0.0075125
h    -3.9623374    1.4904845    1.4012759  0.00    0.0088073    0.0075984    0.0104067
h    -2.6819333    0.4121182   -0.9882836  0.00    0.0191509    0.0025272   -0.0087369
h    -3.4986971   -0.3837432    0.2798896  0.00   -0.0023151   -0.0127826    0.0112929
o    -1.7918865    2.8037232   -0.8836397  0.00   -0.0013412   -0.0036137    0.0028958
o    -1.9709007    3.1197905    1.4887595  0.00    0.0107948    0.0119779   -0.0136567
h    -2.5039578    2.7701601    2.2869453  0.00   -0.0229352   -0.0216278    0.0053369
    13
 Energy =       0.0620177078
c    -3.7102697    1.7006805    0.3406455  0.00   -0.0007246    0.0023497    0.0085496
c    -2.4497963    2.5754186    0.2156090  0.00    0.0030892    0.0028149   -0.0073421
c    -4.9379276    2.4246488   -0.2243602  0.00   -0.0021177    0.0017561    0.0017171
h    -5.8411463    1.7809807   -0.1161882  0.00   -0.0031569   -0.0017648    0.0007111
h    -4.7884440    2.6351602   -1.3126712  0.00    0.0007460    0.0015599   -0.0054809
h    -5.1161232    3.3862121    0.3096101  0.00   -0.0012321    0.0026130    0.0014813
n    -3.5956785    0.4074818   -0.3709863  0.00   -0.0141240    0.0017979   -0.0075161
h    -3.8809832    1.5234131    1.4361719  0.00    0.0072258    0.0063200    0.0122053
h    -2.7117703    0.3698736   -0.9582477  0.00    0.0180805    0.0019677   -0.0086182
h    -3.5386252   -0.3834822    0.3270780  0.00   -0.0020234   -0.0120581    0.0103531
o    -1.8868415    2.8159216   -1.0351200  0.00    0.0021169   -0.0017694   -0.0048582
o    -1.8704262    3.1504674    1.3490083  0.00    0.0145138    0.0149570   -0.0101437
h    -2.3452047    2.8175306    2.1907161  0.00   -0.0223935   -0.0205438    0.0089417
    13
 Energy =       0.0607693281
c    -3.7149661    1.6840051    0.3386514  0.00   -0.0005322    0.0014973    0.0053837
c    -2.4595346    2.5727085    0.2857871  0.00    0.0009572   -0.0000203   -0.0071299
c    -4.9213407    2.3995589   -0.2785186  0.00   -0.0020785    0.0011203    0.0012548
h    -5.8237969    1.7500510   -0.2089696  0.00   -0.0028818   -0.0014659    0.0005051
h    -4.7281108    2.6113673   -1.3586989  0.00    0.0005888    0.0011238   -0.0047201
h    -5.1281576    3.3587367    0.2483893  0.00   -0.0009466    0.0020931    0.0013573
n    -3.5554700    0.3982552   -0.3746973  0.00   -0.0160480    0.0060432   -0.0078131
h    -3.9388060    1.4919703    1.4204467  0.00    0.0045783    0.0043797    0.0098212
h    -2.7102365    0.4177801   -1.0170198  0.00    0.0175498    0.0015333   -0.0093665
h    -3.3963238   -0.3830865    0.3213467  0.00   -0.0005247   -0.0148711    0.0121745
o    -1.8183107    2.8003532   -0.9313807  0.00    0.0029508   -0.0008512   -0.0077742
o    -1.9742254    3.1968692    1.4417762  0.00    0.0130437    0.0138643   -0.0040930
h    -2.5039578    2.9057378    2.2641528  0.00   -0.0166568   -0.0144465    0.0104002
    13
 Energy =       0.0607723478
c    -3.6941392    1.6698403    0.3398667  0.00   -0.0008707    0.0005232    0.0043227
c    -2.4747877    2.6082608    0.2715462  0.00    0.0004473   -0.0014638   -0.0095814
c    -4.9359505    2.3417808   -0.2572961  0.00   -0.0021872    0.0017883    0.0008583
h    -5.8137673    1.6600034   -0.1744986  0.00   -0.0033178   -0.0018229    0.0005602
h    -4.7667282    2.5606156   -1.3399505  0.00    0.0005868    0.0011890   -0.0045419
h    -5.1688930    3.2933215    0.2727931  0.00   -0.0010176    0.0022605    0.0012799
n    -3.4981340    0.3919557   -0.3789629  0.00   -0.0144713    0.0046848   -0.0070075
h    -3.8924907    1.4649692    1.4242273  0.00    0.0036022    0.0030827    0.0089400
h    -2.6495037    0.4310744   -1.0142051  0.00    0.0160958    0.0012773   -0.0087005
h    -3.3284748   -0.3888798    0.3135242  0.00   -0.0004529   -0.0134821    0.0110009
o    -1.8242168    2.8165090   -0.9438519  0.00    0.0025326   -0.0009023   -0.0074127
o    -2.0402082    3.3068615    1.4080750  0.00    0.0139364    0.0153175   -0.0005021
h    -2.5859428    3.0479944    2.2299979  0.00   -0.0148836   -0.0124522    0.0107841
    13
 Energy =       0.0600902246
c    -3.7301090    1.6825037    0.3406341  0.00   -0.0009482   -0.0019536    0.0032227
c    -2.4570097    2.5538874    0.3237844  0.00    0.0010299   -0.0024835   -0.0124285
c    -4.9091405    2.4139054   -0.3199132  0.00   -0.0035979    0.0041714    0.0006746
h    -5.8241334    1.7754002   -0.2753492  0.00   -0.0052037   -0.0029061    0.0008220
h    -4.6787965    2.6209936   -1.3951240  0.00    0.0009257    0.0018237   -0.0061976
h    -5.1204692    3.3783929    0.1962367  0.00   -0.0013688    0.0026685    0.0011801
n    -3.5640324    0.3903169   -0.3591188  0.00   -0.0157202    0.0044611   -0.0068060
h    -3.9956408    1.4940419    1.4150429  0.00    0.0020334    0.0012826    0.0102998
h    -2.7510120    0.4271266   -1.0414766  0.00    0.0174736    0.0012931   -0.0104923
h    -3.3455064   -0.3716668    0.3420442  0.00   -0.0000414   -0.0143636    0.0124415
o    -1.7889470    2.7782552   -0.8793060  0.00    0.0027757   -0.0005596   -0.0074763
o    -1.9824657    3.1719085    1.4941731  0.00    0.0164498    0.0179596    0.0032841
h    -2.5259741    2.8892413    2.3096380  0.00   -0.0138079   -0.0113936    0.0114758
    13
 Energy =       0.0582602241
c    -3.7756758    1.6966795    0.3460387  0.00    0.0011689   -0.0043155    0.0000958
c    -2.4537602    2.4890726    0.4108477  0.00    0.0019266   -0.0029851   -0.0073412
c    -4.8618415    2.4784058   -0.4135782  0.00   -0.0047545    0.0057149    0.0003769
h    -5.8096762    1.8879460   -0.4289831  0.00   -0.0053680   -0.0027564    0.0007878
h    -4.5429571    2.6601245   -1.4709477  0.00    0.0013063    0.0018788   -0.0067387
h    -5.0616273    3.4582477    0.0751597  0.00   -0.0013230    0.0017342    0.0005365
n    -3.6256999    0.3869924   -0.3149922  0.00   -0.0228766    0.0103464   -0.0063138
h    -4.1401435    1.5366141    1.3955192  0.00   -0.0018131   -0.0011849    0.0088102
h    -2.9097651    0.4507111   -1.1009349  0.00    0.0186385    0.0030035   -0.0165447
h    -3.2575346   -0.3210395    0.3884847  0.00    0.0053734   -0.0187627    0.0199096
o    -1.7423248    2.7296682   -0.7622556  0.00    0.0025116    0.0005189   -0.0045932
o    -1.9648725    3.0162527    1.6158710  0.00    0.0107229    0.0119513    0.0049811
h    -2.5273582    2.7346319    2.4110361  0.00   -0.0055128   -0.0051434    0.0060337
    13
 Energy =       0.0564176611
c    -3.8096080    1.7084298    0.3474393  0.00    0.0011817   -0.0018618   -0.0003898
c    -2.4664331    2.4356196    0.5015394  0.00   -0.0010587   -0.0022908    0.0017424
c    -4.7949324    2.5203657   -0.4994095  0.00   -0.0011598    0.0012651    0.0004240
h    -5.7581841    1.9701292   -0.5877362  0.00   -0.0014541   -0.0006074    0.0001469
h    -4.3884204    2.6793332   -1.5250775  0.00    0.0003665    0.0003375   -0.0021019
h    -4.9906628    3.5101209   -0.0340342  0.00   -0.0001455   -0.0002637   -0.0000288
n    -3.6638931    0.3876674   -0.2791143  0.00   -0.0044843    0.0047735   -0.0029664
h    -4.2596055    1.5752885    1.3592381  0.00   -0.0010262   -0.0010200    0.0011529
h    -3.0504378    0.4641911   -1.1309921  0.00    0.0029544    0.0015533   -0.0022523
h    -3.1707571   -0.2572683    0.3899090  0.00    0.0014608   -0.0042001    0.0056968
o    -1.6925600    2.6817591   -0.6278556  0.00    0.0014095    0.0007876   -0.0013141
o    -2.0008607    2.8808613    1.7395151  0.00    0.0036470    0.0023525   -0.0029942
h    -2.6268818    2.6478093    2.4978438  0.00   -0.0016911   -0.0008257    0.0028846
    13
 Energy =       0.0562135688
c    -3.8249946    1.7182780    0.3475141  0.00   -0.0000535   -0.0002003    0.0002220
c    -2.4686602    2.4094928    0.5361919  0.00   -0.0000281   -0.0004117   -0.0012936
c    -4.7617494    2.5509485   -0.5324991  0.00   -0.0001299    0.0006375    0.0001001
h    -5.7306710    2.0202412   -0.6595696  0.00   -0.0005727   -0.0002491   -0.0000576
h    -4.3138686    2.7067848   -1.5396659  0.00    0.0001793    0.0001428   -0.0005076
h    -4.9549495    3.5434178   -0.0710963  0.00   -0.0000222    0.0000837   -0.0000039
n    -3.6953349    0.3859177   -0.2602029  0.00   -0.0026710    0.0002188    0.0006215
h    -4.3064188    1.6070704    1.3459591  0.00   -0.0002580   -0.0001938    0.0003597
h    -3.1390456    0.4557525   -1.1504275  0.00    0.0015837    0.0005679   -0.0026174
h    -3.1421421   -0.2319014    0.3831085  0.00    0.0012275   -0.0011104    0.0018815
o    -1.6710388    2.6564560   -0.5749790  0.00    0.0000968   -0.0000061   -0.0001269
o    -2.0092215    2.8057512    1.7936190  0.00    0.0006174    0.0004884    0.0014907
h    -2.6551419    2.5760974    2.5333130  0.00    0.0000307    0.0000322   -0.0000687
    13
 Energy =       0.0562080470
c    -3.8219826    1.7110964    0.3473565  0.00   -0.0000397    0.0000483    0.0002235
c    -2.4610644    2.3918500    0.5378405  0.00   -0.0004464   -0.0002608   -0.0003254
c    -4.7550225    2.5576595   -0.5221098  0.00   -0.0000482    0.0000839   -0.0000582
h    -5.7271760    2.0345049   -0.6517031  0.00   -0.0000870   -0.0000452   -0.0000191
h    -4.3086342    2.7193577   -1.5285323  0.00    0.0000185    0.0000165   -0.0000737
h    -4.9407403    3.5470378   -0.0510523  0.00   -0.0000150    0.0000778    0.0000289
n    -3.7043416    0.3831672   -0.2723672  0.00   -0.0003449   -0.0000651   -0.0000955
h    -4.3001728    1.5938983    1.3462674  0.00   -0.0000703   -0.0000386    0.0000320
h    -3.1522861    0.4551980   -1.1631157  0.00    0.0001806    0.0000398   -0.0002773
h    -3.1535857   -0.2443767    0.3615519  0.00    0.0002032   -0.0001851    0.0002880
o    -1.6437201    2.5996310   -0.5677721  0.00    0.0005638    0.0000897   -0.0011131
o    -2.0208606    2.8254218    1.7896512  0.00    0.0007152    0.0003635    0.0003671
h    -2.6836499    2.6298608    2.5252504  0.00   -0.0006298   -0.0001248    0.0010229
    13
 Energy =       0.0562076069
c    -3.8268192    1.7204103    0.3488299  0.00    0.0001367    0.0002481    0.0002219
c    -2.4654670    2.4002128    0.5390689  0.00   -0.0001181   -0.0000931   -0.0001606
c    -4.7488891    2.5525033   -0.5464313  0.00   -0.0002265    0.0000321   -0.0000801
h    -5.7213930    2.0298845   -0.6749273  0.00   -0.0000343   -0.0000147   -0.0000051
h    -4.2924098    2.6929643   -1.5517403  0.00    0.0000898    0.0000465   -0.0002773
h    -4.9359781    3.5517795   -0.0968349  0.00   -0.0000745    0.0002674    0.0001083
n    -3.7072148    0.3799752   -0.2433873  0.00   -0.0003620   -0.0002663   -0.0001503
h    -4.3155909    1.6251940    1.3451958  0.00   -0.0001409   -0.0000270    0.0002745
h    -3.1463009    0.4328708   -1.1300361  0.00    0.0002494   -0.0000044   -0.0004159
h    -3.1649428   -0.2369417    0.4081539  0.00    0.0002621   -0.0003223    0.0003228
o    -1.6509980    2.6124974   -0.5671998  0.00    0.0001653    0.0000185   -0.0003575
o    -2.0193081    2.8229995    1.7919479  0.00    0.0002625    0.0001421    0.0001491
h    -2.6779251    2.6199569    2.5286260  0.00   -0.0002094   -0.0000269    0.0003702
    13
 Energy =       0.0562069231
c    -3.8249846    1.7168499    0.3487486  0.00   -0.0000373   -0.0000639   -0.0000625
c    -2.4638426    2.3969642    0.5390412  0.00   -0.0000089   -0.0000040   -0.0000183
c    -4.7492302    2.5517961   -0.5407058  0.00    0.0000596   -0.0000086    0.0000199
h    -5.7216839    2.0291793   -0.6693158  0.00    0.0000099    0.0000044    0.0000014
h    -4.2949881    2.6966270   -1.5460291  0.00   -0.0000219   -0.0000139    0.0000723
h    -4.9357988    3.5487773   -0.0866733  0.00    0.0000191   -0.0000687   -0.0000295
n    -3.7061198    0.3793519   -0.2492069  0.00    0.0000976    0.0000690    0.0000387
h    -4.3111695    1.6167861    1.3455130  0.00    0.0000283    0.0000049   -0.0000746
h    -3.1473521    0.4361473   -1.1365490  0.00   -0.0000643   -0.0000011    0.0001111
h    -3.1621139   -0.2396994    0.3982285  0.00   -0.0000702    0.0000854   -0.0000826
o    -1.6442901    2.5987628   -0.5651290  0.00   -0.0000217   -0.0000010    0.0000207
o    -2.0243596    2.8334674    1.7892662  0.00   -0.0000207   -0.0000016    0.0000348
h    -2.6873034    2.6392970    2.5240769  0.00    0.0000304   -0.0000010   -0.0000314
    13
 Energy =       0.0562069349
c    -3.8250601    1.7170222    0.3487543  0.00   -0.0000335   -0.0000575   -0.0000563
c    -2.4639409    2.3971950    0.5390086  0.00   -0.0000081   -0.0000037   -0.0000166
c    -4.7492685    2.5517690   -0.5409470  0.00    0.0000536   -0.0000077    0.0000179
h    -5.7216998    2.0291004   -0.6695209  0.00    0.0000090    0.0000040    0.0000013
h    -4.2949580    2.6964117   -1.5462744  0.00   -0.0000197   -0.0000125    0.0000651
h    -4.9358982    3.5488442   -0.0871286  0.00    0.0000172   -0.0000618   -0.0000266
n    -3.7061091    0.3793983   -0.2489212  0.00    0.0000879    0.0000621    0.0000348
h    -4.3113338    1.6171690    1.3455042  0.00    0.0000255    0.0000044   -0.0000671
h    -3.1472698    0.4360349   -1.1362373  0.00   -0.0000579   -0.0000010    0.0000999
h    -3.1621392   -0.2395144    0.3986899  0.00   -0.0000632    0.0000768   -0.0000743
o    -1.6447064    2.5996101   -0.5652872  0.00   -0.0000194   -0.0000009    0.0000184
o    -2.0240896    2.8329833    1.7893535  0.00   -0.0000185   -0.0000013    0.0000315
h    -2.6867632    2.6382830    2.5242714  0.00    0.0000272   -0.0000009   -0.0000280
    13
 Energy =       0.0562069397
c    -3.8267684    1.7209216    0.3488789  0.00    0.0000519    0.0000993    0.0000999
c    -2.4661640    2.4024130    0.5382776  0.00   -0.0000568   -0.0000420   -0.0000499
c    -4.7501378    2.5511689   -0.5463876  0.00   -0.0000883    0.0000123   -0.0000339
h    -5.7220627    2.0273309   -0.6741493  0.00   -0.0000145   -0.0000068   -0.0000029
h    -4.2942877    2.6915698   -1.5518059  0.00    0.0000327    0.0000197   -0.0001073
h    -4.9381466    3.5503608   -0.0973980  0.00   -0.0000288    0.0001059    0.0000449
n    -3.7058711    0.3804613   -0.2424806  0.00   -0.0001427   -0.0001086   -0.0000658
h    -4.3150469    1.6258210    1.3453022  0.00   -0.0000518   -0.0000122    0.0001061
h    -3.1454182    0.4335203   -1.1292080  0.00    0.0000947    0.0000005   -0.0001615
h    -3.1627133   -0.2353245    0.4090936  0.00    0.0001047   -0.0001278    0.0001256
o    -1.6541381    2.6188134   -0.5688524  0.00    0.0000905    0.0000085   -0.0001790
o    -2.0179659    2.8219833    1.7913309  0.00    0.0001203    0.0000644    0.0000415
h    -2.6745160    2.6152669    2.5286640  0.00   -0.0001120   -0.0000132    0.0001824
    13
 Energy =       0.0562067541
c    -3.8280754    1.7237888    0.3491019  0.00    0.0001020    0.0001982    0.0001954
c    -2.4673720    2.4053395    0.5376775  0.00   -0.0001303   -0.0000946   -0.0001277
c    -4.7500462    2.5508929   -0.5508112  0.00   -0.0001735    0.0000232   -0.0000674
h    -5.7219854    2.0268777   -0.6778006  0.00   -0.0000278   -0.0000134   -0.0000056
h    -4.2928249    2.6872376   -1.5562785  0.00    0.0000651    0.0000383   -0.0002123
h    -4.9383408    3.5520094   -0.1059828  0.00   -0.0000569    0.0002106    0.0000887
n    -3.7067303    0.3808551   -0.2368195  0.00   -0.0002797   -0.0002175   -0.0001308
h    -4.3179882    1.6330852    1.3452507  0.00   -0.0001064   -0.0000254    0.0002087
h    -3.1449555    0.4303305   -1.1230414  0.00    0.0001868    0.0000001   -0.0003175
h    -3.1647324   -0.2326501    0.4180520  0.00    0.0002056   -0.0002516    0.0002478
o    -1.6595172    2.6290755   -0.5712091  0.00    0.0001871    0.0000185   -0.0003856
o    -2.0138558    2.8153735    1.7921390  0.00    0.0002605    0.0001437    0.0001147
h    -2.6668127    2.6020913    2.5309875  0.00   -0.0002326   -0.0000300    0.0003917
    13
 Energy =       0.0562065626
c    -3.8201836    1.7083024    0.3488458  0.00    0.0000447    0.0000875   -0.0000503
c    -2.4610596    2.3930550    0.5368946  0.00   -0.0004421   -0.0004153   -0.0009216
c    -4.7544471    2.5493203   -0.5245194  0.00   -0.0000856    0.0000085   -0.0000117
h    -5.7253871    2.0236819   -0.6522836  0.00    0.0000091    0.0000077    0.0000083
h    -4.3078274    2.7075335   -1.5314542  0.00    0.0000598    0.0000137   -0.0001205
h    -4.9424910    3.5403279   -0.0577453  0.00   -0.0000373    0.0001087    0.0000357
n    -3.6995377    0.3780277   -0.2653254  0.00   -0.0000656   -0.0000969   -0.0000210
h    -4.2982948    1.5938942    1.3482344  0.00   -0.0001780   -0.0000675    0.0000855
h    -3.1474221    0.4471773   -1.1561440  0.00    0.0000984   -0.0000111   -0.0001334
h    -3.1478900   -0.2458915    0.3711556  0.00    0.0000689   -0.0001087    0.0000925
o    -1.6356973    2.5801186   -0.5661061  0.00    0.0001926   -0.0000265   -0.0007858
o    -2.0321276    2.8544808    1.7829507  0.00    0.0006277    0.0005193    0.0010126
h    -2.7008715    2.6742787    2.5167623  0.00   -0.0002926   -0.0000195    0.0008097
    13
 Energy =       0.0562051110
c    -3.8157477    1.6991561    0.3473190  0.00    0.0002510    0.0004044    0.0001892
c    -2.4548826    2.3803783    0.5355752  0.00   -0.0005802   -0.0005840   -0.0012973
c    -4.7592810    2.5592157   -0.4977404  0.00   -0.0003802    0.0000158   -0.0001333
h    -5.7315857    2.0363298   -0.6264964  0.00   -0.0000012    0.0000106   -0.0000017
h    -4.3233484    2.7390667   -1.5060655  0.00    0.0001544    0.0000701   -0.0004457
h    -4.9423924    3.5401431   -0.0074684  0.00   -0.0001302    0.0004405    0.0001887
n    -3.7017895    0.3820950   -0.2970421  0.00   -0.0004025   -0.0004180   -0.0002755
h    -4.2825357    1.5623945    1.3496528  0.00   -0.0003483   -0.0001084    0.0004171
h    -3.1595384    0.4702761   -1.1925350  0.00    0.0003335   -0.0000356   -0.0005441
h    -3.1428751   -0.2554725    0.3198233  0.00    0.0003570   -0.0004866    0.0004181
o    -1.6268079    2.5612875   -0.5666550  0.00    0.0002737   -0.0000383   -0.0011324
o    -2.0298483    2.8505412    1.7801844  0.00    0.0009179    0.0007529    0.0014152
h    -2.7026041    2.6788953    2.5127133  0.00   -0.0004451   -0.0000233    0.0012016
    13
 Energy =       0.0561948882
c    -3.8094410    1.6847060    0.3452357  0.00    0.0005007    0.0008554    0.0008537
c    -2.4427773    2.3537321    0.5355857  0.00   -0.0005459   -0.0005699   -0.0010057
c    -4.7598667    2.5754598   -0.4602924  0.00   -0.0007381    0.0000381   -0.0004251
h    -5.7369190    2.0618389   -0.5910367  0.00   -0.0000650   -0.0000077   -0.0000605
h    -4.3370932    2.7828930   -1.4692210  0.00    0.0001951    0.0001345   -0.0007706
h    -4.9305839    3.5425363    0.0620162  0.00   -0.0002231    0.0008849    0.0004355
n    -3.7121682    0.3864576   -0.3404001  0.00   -0.0009009   -0.0008574   -0.0008747
h    -4.2614094    1.5190208    1.3504176  0.00   -0.0004032   -0.0001204    0.0007844
h    -3.1833335    0.4982597   -1.2415387  0.00    0.0005394   -0.0000799   -0.0009723
h    -3.1465538   -0.2720141    0.2485809  0.00    0.0007806   -0.0010206    0.0008617
o    -1.5990743    2.5031124   -0.5598343  0.00    0.0005544    0.0000207   -0.0015192
o    -2.0329605    2.8547439    1.7732196  0.00    0.0011633    0.0007870    0.0010100
h    -2.7210559    2.7135604    2.4985329  0.00   -0.0008573   -0.0000647    0.0016829
    13
 Energy =       0.0561662466
c    -3.7973114    1.6617448    0.3435788  0.00    0.0003702    0.0006700    0.0004697
c    -2.4300246    2.3291467    0.5341997  0.00   -0.0009568   -0.0011699   -0.0013832
c    -4.7645467    2.5775246   -0.4114664  0.00   -0.0006163    0.0000836   -0.0002078
h    -5.7428935    2.0660907   -0.5410269  0.00   -0.0000315    0.0000191   -0.0000166
h    -4.3616548    2.8207457   -1.4204261  0.00    0.0002191    0.0001382   -0.0007006
h    -4.9272430    3.5251264    0.1473339  0.00   -0.0001893    0.0006591    0.0003408
n    -3.7103469    0.3887458   -0.3889032  0.00   -0.0008695   -0.0005460   -0.0004143
h    -4.2272569    1.4577493    1.3515118  0.00   -0.0004245   -0.0002465    0.0006983
h    -3.2015050    0.5334093   -1.2968359  0.00    0.0005689   -0.0000161   -0.0010265
h    -3.1291122   -0.2868663    0.1641760  0.00    0.0006876   -0.0009018    0.0007081
o    -1.5580250    2.4212642   -0.5459732  0.00    0.0009751   -0.0000564   -0.0024196
o    -2.0548605    2.9004788    1.7529259  0.00    0.0015872    0.0012656    0.0016274
h    -2.7684562    2.8091468    2.4621710  0.00   -0.0013202    0.0001010    0.0023242
    13
 Energy =       0.0561326927
c    -3.7856517    1.6403377    0.3398608  0.00    0.0005960    0.0007189    0.0008281
c    -2.4154443    2.3014723    0.5308905  0.00    0.0001929    0.0001250    0.0005636
c    -4.7714066    2.5873783   -0.3502146  0.00   -0.0007868    0.0000692   -0.0002911
h    -5.7524950    2.0806472   -0.4779225  0.00   -0.0000530    0.0000228   -0.0000411
h    -4.3938642    2.8749422   -1.3573146  0.00    0.0001730    0.0002037   -0.0007975
h    -4.9208069    3.5094078    0.2535599  0.00   -0.0001978    0.0007695    0.0004858
n    -3.7162481    0.4005942   -0.4499375  0.00   -0.0011160   -0.0006008   -0.0006461
h    -4.1884013    1.3910362    1.3490553  0.00   -0.0001711   -0.0000758    0.0008681
h    -3.2334585    0.5860334   -1.3646553  0.00    0.0005528   -0.0000097   -0.0011839
h    -3.1171098   -0.2959601    0.0564254  0.00    0.0008715   -0.0011129    0.0007512
o    -1.5226348    2.3509830   -0.5331174  0.00    0.0000529    0.0001621   -0.0000107
o    -2.0620390    2.9173220    1.7312711  0.00   -0.0001412   -0.0002025   -0.0004121
h    -2.7936766    2.8601125    2.4233645  0.00    0.0000269   -0.0000696   -0.0001144
    13
 Energy =       0.0561268849
c    -3.7832269    1.6363421    0.3415950  0.00    0.0003964    0.0005019    0.0005366
c    -2.4146715    2.3005531    0.5336419  0.00   -0.0002251   -0.0002383    0.0001839
c    -4.7696651    2.5796182   -0.3518723  0.00   -0.0005509    0.0000512   -0.0002076
h    -5.7497204    2.0707822   -0.4792195  0.00   -0.0000396    0.0000150   -0.0000300
h    -4.3916017    2.8650896   -1.3590937  0.00    0.0001221    0.0001431   -0.0005600
h    -4.9213164    3.5027954    0.2491060  0.00   -0.0001373    0.0005443    0.0003461
n    -3.7110076    0.3948244   -0.4446421  0.00   -0.0007876   -0.0004267   -0.0004640
h    -4.1860084    1.3889176    1.3510457  0.00   -0.0001332   -0.0000801    0.0005994
h    -3.2284633    0.5788130   -1.3595050  0.00    0.0003884   -0.0000057   -0.0008300