    27
 Energy =       0.7282354886
c    -1.4235396    2.6054793   -0.0667700  0.00   -0.0459393    0.0383401    0.0031600
c    -1.3072796    1.2134697   -0.1072300  0.00   -0.0857744   -0.0326419    0.0023410
c    -0.0178900    0.6711998   -0.1697000  0.00   -0.0899538   -0.1890636   -0.0019658
c    -0.2940599    3.4190890   -0.0891300  0.00   -0.0180825    0.0681973    0.0030629
c     0.9872197    2.8590292   -0.1560400  0.00    0.3307139    0.4650050    0.2282530
c     1.1340797    1.4562096   -0.1970299  0.00    0.1320100    0.1475192   -0.0064814
n     0.3879399   -0.6395298   -0.2140799  0.00    0.1442544    0.1093904   -0.0009455
c     2.2666594    0.5727398   -0.2659299  0.00    0.1528986   -0.0829317   -0.0289442
c     1.7555995   -0.7123598   -0.2706899  0.00   -0.1009192   -0.0975927    0.0041687
h    -0.2400399   -1.4313496   -0.2047299  0.00    0.0370901    0.0483293   -0.0013559
c     3.7030089    1.0223397   -0.3320099  0.00   -0.0026488    0.0211274    0.0357834
c     4.0547688    2.2615794    0.5049969  0.00   -0.0202749    0.0324662   -0.0303483
h     3.9407589    1.2278196   -1.3843196  0.00   -0.0004262   -0.0058129    0.0121058
h     4.3455988    0.1801669   -0.0411573  0.00   -0.0110789    0.0106823   -0.0040342
c     4.1070688    1.8611695    1.9910894  0.00    0.1823920   -0.2566481    0.1921164
n     3.0543991    3.3796390    0.3726399  0.00   -0.5214660   -0.2840957    0.9194222
h     5.0442386    2.6531392    0.2410219  0.00   -0.0255336    0.0125561    0.0065465
h     3.5723190    4.2128988    0.0750977  0.00   -0.0904172   -0.0753528    0.0010127
h     2.4528293    3.1644491   -0.4302769  0.00    0.1704381    0.5801565    0.6013647
h    -2.4108593    3.0588691   -0.0157800  0.00   -0.0005240   -0.0000463   -0.0002590
h    -2.1896094    0.5822398   -0.0890100  0.00   -0.0035042    0.0041433   -0.0002003
h    -0.4052699    4.5000487   -0.0535400  0.00   -0.0003555    0.0011790   -0.0001076
h     1.8590495    3.5066790   -0.1715100  0.00   -0.1265436   -0.8001512   -0.4719212
h     2.2327294   -1.6813195   -0.3062999  0.00   -0.0412237   -0.0113552    0.0015644
o     4.8014086    0.9767787    2.4640193  0.00   -0.1709098    0.2119309   -0.1135966
o     3.2681291    2.6294493    2.7370692  0.00   -0.0121707    0.0369323   -0.1204813
h     2.8280192    3.2349491    2.0856894  0.00    0.2179488    0.0477368   -1.2302607
    27
 Energy =       0.7144530684
c    -1.4094727    2.6363142   -0.2164377  0.00   -0.0459941    0.0386497    0.0030585
c    -1.3167378    1.2401669   -0.2284692  0.00   -0.0853859   -0.0331698    0.0022354
c    -0.0374231    0.6757583   -0.2768687  0.00   -0.0910835   -0.1748932   -0.0026599
c    -0.2655453    3.4338621   -0.2258744  0.00   -0.0187776    0.0676609    0.0028984
c     1.0098608    2.8538106   -0.2607835  0.00    0.3142944    0.4543877    0.2170084
c     1.1214919    1.4412688   -0.2964148  0.00    0.1290432    0.1483270   -0.0036103
n     0.3586728   -0.6425053   -0.1820714  0.00    0.1465041    0.0980925   -0.0002505
c     2.2506757    0.5524100   -0.2818203  0.00    0.1509876   -0.0804929   -0.0282752
c     1.7287738   -0.7298634   -0.2316144  0.00   -0.1013958   -0.0934541    0.0035412
h    -0.2786289   -1.4266883   -0.1177877  0.00    0.0354032    0.0457019   -0.0012264
c     3.6989917    0.9958357   -0.2561452  0.00   -0.0015297    0.0212553    0.0373930
c     4.0342782    2.2627463    0.5692307  0.00   -0.0210117    0.0319496   -0.0300847
h     4.0133103    1.1631409   -1.2989573  0.00    0.0005020   -0.0052442    0.0086433
h     4.3100645    0.1509474    0.0975567  0.00   -0.0092227    0.0090860   -0.0031946
c     4.1044480    1.8854704    2.0604767  0.00    0.1814799   -0.2556815    0.1878094
n     3.0396712    3.4004380    0.4242169  0.00   -0.5107873   -0.2745724    0.9288029
h     5.0280411    2.6436541    0.3038183  0.00   -0.0251540    0.0123353    0.0064677
h     3.5864689    4.1979514    0.0512315  0.00   -0.0875440   -0.0712511   -0.0022980
h     2.4478599    3.0983545   -0.3576300  0.00    0.1638494    0.5585770    0.5688765
h    -2.3896939    3.1062070   -0.1745331  0.00   -0.0007136    0.0000564   -0.0002470
h    -2.2091146    0.6235978   -0.1833340  0.00   -0.0038451    0.0036700   -0.0001563
h    -0.3597483    4.5160796   -0.1765620  0.00   -0.0002153    0.0014478   -0.0000947
h     1.9062896    3.4700119   -0.1634128  0.00   -0.1142957   -0.7808224   -0.4476644
h     2.2010036   -1.7056292   -0.1618797  0.00   -0.0386164   -0.0166225    0.0019533
o     4.7967053    1.0019885    2.5418121  0.00   -0.1695126    0.2102914   -0.1123869
o     3.3144765    2.6989571    2.8101321  0.00   -0.0109745    0.0348485   -0.1120440
h     2.8225570    3.2405876    2.1385121  0.00    0.2139959    0.0498671   -1.2244950
    27
 Energy =       0.6550813571
c    -1.4393465    2.5644580   -0.0786230  0.00   -0.0425690    0.0356321    0.0027081
c    -1.3050209    1.1757918   -0.1017857  0.00   -0.0790781   -0.0321489    0.0018670
c    -0.0114814    0.6513854   -0.1377597  0.00   -0.0833208   -0.1390696    0.0001422
c    -0.3210901    3.3902930   -0.1106490  0.00   -0.0177355    0.0612691    0.0025531
c     0.9654206    2.8472137   -0.1640981  0.00    0.2730179    0.4105248    0.1957475
c     1.1260712    1.4487454   -0.1579182  0.00    0.1136402    0.1337371    0.0025569
n     0.4086371   -0.6771162   -0.2172539  0.00    0.1364811    0.0723049   -0.0032007
c     2.2673057    0.5859207   -0.2234148  0.00    0.1345373   -0.0707166   -0.0238056
c     1.7857187   -0.7086459   -0.2331710  0.00   -0.0921521   -0.0788509    0.0040602
h    -0.2038354   -1.4918751   -0.2379169  0.00    0.0285161    0.0357714   -0.0018604
c     3.7037364    1.0505984   -0.3304368  0.00    0.0009559    0.0207359    0.0381362
c     4.0509234    2.2886474    0.5081898  0.00   -0.0211755    0.0287482   -0.0270846
h     3.9081631    1.2737672   -1.3977682  0.00    0.0017056   -0.0030131    0.0007568
h     4.3769456    0.2142166   -0.0611964  0.00   -0.0043686    0.0049512   -0.0017022
c     4.1128429    1.8900904    1.9899288  0.00    0.1660231   -0.2340731    0.1692064
n     3.0429622    3.3942964    0.3784983  0.00   -0.4652336   -0.2579562    0.8744102
h     5.0383192    2.6842705    0.2349795  0.00   -0.0226207    0.0110532    0.0057577
h     3.5576599    4.2582211    0.1216415  0.00   -0.0734653   -0.0546421   -0.0061568
h     2.4358152    3.1772558   -0.4667648  0.00    0.1508597    0.5136635    0.4885685
h    -2.4332427    3.0065656   -0.0457454  0.00   -0.0011459    0.0003175   -0.0002065
h    -2.1795366    0.5308197   -0.0968263  0.00   -0.0046644    0.0025045   -0.0001594
h    -0.4449748    4.4717018   -0.1017644  0.00   -0.0000030    0.0026937   -0.0002147
h     1.8492755    3.5365609   -0.2014621  0.00   -0.0952762   -0.7121660   -0.3979467
h     2.2995115   -1.6703666   -0.2735009  0.00   -0.0328737   -0.0220322    0.0017047
o     4.8199212    0.9855148    2.4483765  0.00   -0.1544410    0.1917114   -0.1026165
o     3.2833920    2.6554652    2.7583814  0.00   -0.0105633    0.0306974   -0.0977913
h     2.8131834    3.2510769    2.1044507  0.00    0.1949495    0.0483529   -1.1254303
    27
 Energy =       0.5781061607
c    -1.4162496    2.5699752   -0.1376697  0.00   -0.0362627    0.0305281    0.0023308
c    -1.2859393    1.1847459   -0.1460466  0.00   -0.0675948   -0.0276960    0.0015307
c    -0.0018683    0.6576038   -0.1821164  0.00   -0.0708290   -0.1158014   -0.0006221
c    -0.2981914    3.3922046   -0.1688032  0.00   -0.0152670    0.0522535    0.0021828
c     0.9848373    2.8504995   -0.2148052  0.00    0.2355708    0.3485209    0.1637943
c     1.1260511    1.4494847   -0.2119740  0.00    0.0966576    0.1144848    0.0027273
n     0.4120598   -0.6812132   -0.1939811  0.00    0.1160492    0.0590128   -0.0014143
c     2.2633159    0.6042307   -0.2609902  0.00    0.1152797   -0.0601830   -0.0200091
c     1.7981824   -0.6904803   -0.2520613  0.00   -0.0778746   -0.0661722    0.0025145
h    -0.1977833   -1.5037644   -0.1703726  0.00    0.0235006    0.0292373   -0.0012702
c     3.6988854    1.0864626   -0.3490611  0.00   -0.0012445    0.0170884    0.0320975
c     4.0287221    2.2840786    0.5669548  0.00   -0.0176543    0.0245682   -0.0247168
h     3.9016690    1.3727032   -1.4035561  0.00    0.0017491   -0.0019780   -0.0011925
h     4.3812455    0.2425822   -0.1220735  0.00   -0.0033335    0.0032326   -0.0014915
c     4.0159767    1.8128734    2.0266022  0.00    0.1425172   -0.2000615    0.1428232
n     3.0519433    3.4248247    0.4348824  0.00   -0.4028550   -0.2168913    0.7621781
h     5.0449804    2.6611122    0.3621852  0.00   -0.0167725    0.0106093    0.0047182
h     3.6067587    4.2599520    0.1430107  0.00   -0.0613563   -0.0447072   -0.0064989
h     2.4406914    3.1638579   -0.4247546  0.00    0.1221906    0.4273944    0.4116540
h    -2.4088696    3.0144441   -0.1025210  0.00   -0.0009881    0.0002648   -0.0001748
h    -2.1608571    0.5409221   -0.1209033  0.00   -0.0041308    0.0019775   -0.0001278
h    -0.4205581    4.4733411   -0.1498949  0.00    0.0000213    0.0023574   -0.0001251
h     1.8840184    3.5652844   -0.1967449  0.00   -0.0756166   -0.5997069   -0.3346592
h     2.3386237   -1.6368694   -0.2774304  0.00   -0.0279881   -0.0192810    0.0013040
o     4.7627755    0.9021811    2.4718380  0.00   -0.1304373    0.1638197   -0.0882927
o     3.1246389    2.5036080    2.8041125  0.00   -0.0017770   -0.0130250   -0.0409046
h     2.8322178    3.2802278    2.1825648  0.00    0.1584461    0.0801536   -1.0083560
    27
 Energy =       0.5057426286
c    -1.4136040    2.5760380   -0.1717689  0.00   -0.0291913    0.0245584    0.0019302
c    -1.2889569    1.1962748   -0.1962986  0.00   -0.0546544   -0.0226826    0.0014268
c    -0.0152434    0.6649105   -0.2129174  0.00   -0.0557817   -0.0907656    0.0008402
c    -0.2943626    3.3908203   -0.1781326  0.00   -0.0122446    0.0422358    0.0017318
c     0.9829983    2.8473004   -0.2060741  0.00    0.1948630    0.2826222    0.1343059
c     1.1082347    1.4479623   -0.2065039  0.00    0.0780954    0.0930307    0.0020044
n     0.3782358   -0.6829308   -0.2850195  0.00    0.0897436    0.0459957   -0.0031968
c     2.2358800    0.6107784   -0.2355768  0.00    0.0938013   -0.0480467   -0.0164124
c     1.7768811   -0.6796875   -0.2559465  0.00   -0.0586949   -0.0517124    0.0034387
h    -0.2392333   -1.5071028   -0.3291257  0.00    0.0166427    0.0206366   -0.0016391
c     3.6793851    1.0767225   -0.3135001  0.00   -0.0010494    0.0138502    0.0257955
c     4.0292991    2.2732158    0.6025771  0.00   -0.0144916    0.0197415   -0.0198701
h     3.8897250    1.3605375   -1.3672136  0.00    0.0014278   -0.0015584   -0.0009768
h     4.3514631    0.2237163   -0.0846349  0.00   -0.0026602    0.0024992   -0.0012170
c     4.0335298    1.8124621    2.0596872  0.00    0.1148188   -0.1614500    0.1143714
n     3.0692999    3.4260772    0.4733290  0.00   -0.3317445   -0.1766995    0.6323449
h     5.0523006    2.6287613    0.3807668  0.00   -0.0131994    0.0085632    0.0037071
h     3.6404367    4.2614569    0.2023199  0.00   -0.0493974   -0.0358454   -0.0051301
h     2.4498983    3.1503278   -0.4028606  0.00    0.0961576    0.3436585    0.3354437
h    -2.4049357    3.0244152   -0.1526601  0.00   -0.0009673    0.0001922   -0.0001311
h    -2.1663252    0.5548486   -0.2067936  0.00   -0.0038658    0.0011887   -0.0001149
h    -0.4131024    4.4719944   -0.1573004  0.00    0.0000184    0.0019136   -0.0001079
h     1.8963100    3.5948751   -0.1848704  0.00   -0.0591450   -0.4837526   -0.2743162
h     2.3394450   -1.6122245   -0.2769378  0.00   -0.0224721   -0.0157452    0.0012742
o     4.8066303    0.8837670    2.4960182  0.00   -0.1046954    0.1318998   -0.0714109
o     3.1742945    2.5137305    2.8677971  0.00   -0.0018027   -0.0107314   -0.0312011
h     2.8487925    3.2758254    2.2480310  0.00    0.1304894    0.0664035   -0.8328908
    27
 Energy =       0.4708554362
c    -1.4122474    2.5877976   -0.1759203  0.00   -0.0258582    0.0219210    0.0017460
c    -1.2913143    1.2103612   -0.1644091  0.00   -0.0481039   -0.0205752    0.0011905
c    -0.0235114    0.6756987   -0.1812738  0.00   -0.0486802   -0.0774912    0.0002015
c    -0.2920840    3.3971067   -0.2134560  0.00   -0.0105058    0.0375481    0.0016279
c     0.9810660    2.8504372   -0.2426003  0.00    0.1723462    0.2501159    0.1189867
c     1.0991310    1.4534441   -0.2099095  0.00    0.0689545    0.0824948    0.0020270
n     0.3564734   -0.6809053   -0.1849407  0.00    0.0781277    0.0382261   -0.0021374
c     2.2184646    0.6145930   -0.2309348  0.00    0.0829475   -0.0418654   -0.0144167
c     1.7598632   -0.6733199   -0.2121289  0.00   -0.0503071   -0.0450095    0.0025083
h    -0.2665430   -1.5062477   -0.1703726  0.00    0.0129989    0.0159277   -0.0012461
c     3.6647704    1.0646922   -0.3360363  0.00   -0.0007155    0.0122714    0.0226940
c     4.0360444    2.2592291    0.5740963  0.00   -0.0129894    0.0175549   -0.0173823
h     3.8600764    1.3457732   -1.3934796  0.00    0.0012672   -0.0013565   -0.0009785
h     4.3344123    0.2069386   -0.1154406  0.00   -0.0022810    0.0021761   -0.0010781
c     4.0548517    1.8074463    2.0317152  0.00    0.1010974   -0.1421370    0.1006937
n     3.0821997    3.4130807    0.4478840  0.00   -0.2940123   -0.1580034    0.5634313
h     5.0598468    2.6040691    0.3341647  0.00   -0.0114120    0.0075470    0.0032005
h     3.6576814    4.2591642    0.2177336  0.00   -0.0426619   -0.0305042   -0.0045170
h     2.4686043    3.1489484   -0.4544233  0.00    0.0853513    0.3040902    0.2963960
h    -2.4019687    3.0394989   -0.1550756  0.00   -0.0008779    0.0001542   -0.0001143
h    -2.1698112    0.5702613   -0.1399597  0.00   -0.0038348    0.0005460   -0.0000861
h    -0.4074339    4.4789043   -0.2143840  0.00    0.0000628    0.0019478   -0.0000947
h     1.9012411    3.6171055   -0.2340525  0.00   -0.0529840   -0.4272935   -0.2437852
h     2.3302935   -1.6008029   -0.2276063  0.00   -0.0198732   -0.0139666    0.0010329
o     4.8389677    0.8677012    2.4621243  0.00   -0.0921115    0.1160731   -0.0629919
o     3.2099328    2.5110352    2.8557764  0.00   -0.0015449   -0.0097949   -0.0267996
h     2.8582698    3.2628619    2.2393001  0.00    0.1156002    0.0594031   -0.7401084
    27
 Energy =       0.4036999727
c    -1.4017735    2.6459575   -0.2259282  0.00   -0.0181284    0.0156370    0.0014402
c    -1.3042487    1.2743838   -0.1584567  0.00   -0.0328685   -0.0153092    0.0007246
c    -0.0562211    0.7180401   -0.1568060  0.00   -0.0327731   -0.0501819   -0.0011848
c    -0.2705409    3.4297266   -0.2993399  0.00   -0.0069620    0.0264841    0.0015380
c     0.9876306    2.8624553   -0.3113923  0.00    0.1202875    0.1748139    0.0855654
c     1.0713441    1.4688777   -0.2198077  0.00    0.0460128    0.0566530    0.0022191
n     0.2817208   -0.6529894   -0.0788552  0.00    0.0542398    0.0224698   -0.0002078
c     2.1651209    0.6171262   -0.2037224  0.00    0.0565969   -0.0283700   -0.0100725
c     1.6936383   -0.6577985   -0.1323375  0.00   -0.0341702   -0.0315295    0.0007224
h    -0.3610780   -1.4672671   -0.0116195  0.00    0.0072632    0.0087544   -0.0004027
c     3.6269548    1.0143366   -0.3329494  0.00    0.0000246    0.0083248    0.0148213
c     4.0500647    2.2094289    0.5606297  0.00   -0.0094716    0.0125496   -0.0116365
h     3.8176665    1.2775303   -1.3960189  0.00    0.0009825   -0.0008121   -0.0008173
h     4.2732262    0.1371536   -0.1111287  0.00   -0.0013431    0.0009965   -0.0008352
c     4.1050967    1.7779330    2.0188773  0.00    0.0684858   -0.0966401    0.0680725
n     3.1197341    3.3784109    0.4379725  0.00   -0.2111021   -0.1163245    0.4206456
h     5.0781700    2.5203440    0.2799554  0.00   -0.0065055    0.0052202    0.0017335
h     3.7168613    4.2336882    0.2848931  0.00   -0.0254800   -0.0168029   -0.0020420
h     2.5299988    3.1165132   -0.5204671  0.00    0.0610882    0.2101482    0.2102767
h    -2.3831943    3.1160756   -0.2184011  0.00   -0.0008506    0.0003279   -0.0000692
h    -2.1921633    0.6496230   -0.0992535  0.00   -0.0030778   -0.0003880   -0.0000066
h    -0.3668441    4.5130165   -0.3417048  0.00   -0.0000015    0.0024182   -0.0001168
h     1.9409898    3.6623387   -0.3288104  0.00   -0.0393731   -0.2935513   -0.1809575
h     2.2722996   -1.5800903   -0.1213721  0.00   -0.0134750   -0.0098818    0.0005481
o     4.9174363    0.8144065    2.4355405  0.00   -0.0620181    0.0785748   -0.0433008
o     3.2997003    2.4881829    2.8815557  0.00   -0.0010533   -0.0077475   -0.0148845
h     2.8956869    3.2174690    2.2753381  0.00    0.0836726    0.0441665   -0.5417731
    27
 Energy =       0.3858088168
c    -1.3705659    2.7649834   -0.3103868  0.00   -0.0160734    0.0137577    0.0012577
c    -1.3248697    1.3952170   -0.1908313  0.00   -0.0277392   -0.0138904    0.0007109
c    -0.1025059    0.7922855   -0.1612626  0.00   -0.0268285   -0.0399281   -0.0012879
c    -0.2105868    3.5020362   -0.4110736  0.00   -0.0056997    0.0234384    0.0012880
c     1.0242920    2.8881877   -0.3960106  0.00    0.0949786    0.1401199    0.0706672
c     1.0495493    1.4952050   -0.2444969  0.00    0.0349238    0.0442025    0.0023810
n     0.1749981   -0.5900989   -0.0202022  0.00    0.0442404    0.0158334    0.0001066
c     2.1086983    0.6051635   -0.1754255  0.00    0.0464947   -0.0228425   -0.0080214
c     1.5913158   -0.6471191   -0.0566008  0.00   -0.0270376   -0.0275453    0.0005995
h    -0.5029057   -1.3761493    0.0729088  0.00    0.0044983    0.0054024   -0.0000994
c     3.5944786    0.9294120   -0.2882904  0.00    0.0010995    0.0074424    0.0116657
c     4.0611054    2.1344767    0.5823239  0.00   -0.0072759    0.0106216   -0.0097545
h     3.8143616    1.1554949   -1.3554119  0.00    0.0013446   -0.0001904   -0.0015886
h     4.1974241    0.0271490   -0.0370298  0.00   -0.0002336   -0.0006284   -0.0005127
c     4.1505111    1.7125195    2.0405004  0.00    0.0553453   -0.0779563    0.0554704
n     3.1491741    3.3226334    0.4621175  0.00   -0.1717085   -0.0971708    0.3579640
h     5.0888110    2.4187570    0.2682750  0.00   -0.0044385    0.0042517    0.0010834
h     3.7651067    4.1787433    0.3805105  0.00   -0.0153304   -0.0092600    0.0001454
h     2.6260796    3.0404476   -0.5528205  0.00    0.0500933    0.1639714    0.1721031
h    -2.3342252    3.2722572   -0.3253988  0.00   -0.0016650    0.0009527   -0.0000783
h    -2.2360030    0.8060764   -0.1105034  0.00   -0.0033854   -0.0011688    0.0000968
h    -0.2659350    4.5866501   -0.5004580  0.00   -0.0000933    0.0039903   -0.0002757
h     2.0360047    3.6714408   -0.4627908  0.00   -0.0340664   -0.2264004   -0.1585315
h     2.1443909   -1.5852148    0.0046114  0.00   -0.0100834   -0.0097259    0.0005642
o     4.9664687    0.7274337    2.4382658  0.00   -0.0500748    0.0631851   -0.0353564
o     3.3726921    2.4220575    2.9275330  0.00   -0.0009875   -0.0065678   -0.0109271
h     2.9394115    3.1348274    2.3283385  0.00    0.0697028    0.0361054   -0.4496703
    27
 Energy =       0.3719753950
c    -1.4122817    2.6432586   -0.2541352  0.00   -0.0168321    0.0140391    0.0012084
c    -1.3125720    1.2740347   -0.1565513  0.00   -0.0280677   -0.0143335    0.0007864
c    -0.0662158    0.7185502   -0.1404810  0.00   -0.0265554   -0.0387506   -0.0012418
c    -0.2817662    3.4262847   -0.3423827  0.00   -0.0056657    0.0242469    0.0011620
c     0.9765344    2.8607416   -0.3399043  0.00    0.0912242    0.1334964    0.0677643
c     1.0584794    1.4679977   -0.2179786  0.00    0.0330191    0.0416792    0.0026136
n     0.2671776   -0.6565468   -0.0306365  0.00    0.0424202    0.0143130    0.0002197
c     2.1511535    0.6209803   -0.1817385  0.00    0.0456668   -0.0220615   -0.0074282
c     1.6856071   -0.6540406   -0.0831685  0.00   -0.0255038   -0.0277567    0.0006676
h    -0.3771065   -1.4727991    0.0532986  0.00    0.0033465    0.0038770    0.0000368
c     3.6181596    1.0098463   -0.3302340  0.00    0.0021741    0.0081815    0.0114516
c     4.0571473    2.2091403    0.5535469  0.00   -0.0067254    0.0106031   -0.0095295
h     3.8010468    1.2681109   -1.3979943  0.00    0.0017418    0.0002831   -0.0025691
h     4.2647955    0.1281495   -0.1103008  0.00    0.0007626   -0.0018602   -0.0002467
c     4.1318193    1.7860152    2.0123818  0.00    0.0537177   -0.0758388    0.0541143
n     3.1312173    3.3806903    0.4293445  0.00   -0.1636883   -0.0967639    0.3530330
h     5.0853925    2.5092752    0.2548318  0.00   -0.0040940    0.0041212    0.0009627
h     3.7368225    4.2404417    0.3017111  0.00   -0.0120896   -0.0069781    0.0006653
h     2.5443020    3.1125412   -0.5534164  0.00    0.0474565    0.1572969    0.1663454
h    -2.3955700    3.1135041   -0.2582392  0.00   -0.0025095    0.0013974   -0.0000832
h    -2.2004456    0.6479618   -0.0847049  0.00   -0.0041411   -0.0017665    0.0001681
h    -0.3793404    4.5107824   -0.4073444  0.00   -0.0001460    0.0051407   -0.0003419
h     1.9339693    3.6956973   -0.3669404  0.00   -0.0347658   -0.2120036   -0.1570164
h     2.2777076   -1.5706940   -0.0562097  0.00   -0.0089636   -0.0108939    0.0006184
o     4.9591447    0.8128808    2.4205260  0.00   -0.0486513    0.0614379   -0.0344563
o     3.3414544    2.4917506    2.8943305  0.00   -0.0010299   -0.0063626   -0.0105605
h     2.9106440    3.2103180    2.2987803  0.00    0.0678994    0.0352564   -0.4383440
    27
 Energy =       0.3663464426
c    -1.4440399    2.5209591   -0.1996438  0.00   -0.0176639    0.0143824    0.0011777
c    -1.2919609    1.1549281   -0.1151286  0.00   -0.0286346   -0.0147816    0.0008513
c    -0.0240521    0.6461925   -0.1156243  0.00   -0.0265765   -0.0381153   -0.0012127
c    -0.3440167    3.3462701   -0.2896683  0.00   -0.0058481    0.0251522    0.0010499
c     0.9347311    2.8278937   -0.3035879  0.00    0.0877813    0.1309648    0.0656008
c     1.0715997    1.4389874   -0.1987366  0.00    0.0319130    0.0402552    0.0027448
n     0.3647212   -0.7178461   -0.0259349  0.00    0.0409973    0.0131856    0.0003462
c     2.1963799    0.6367072   -0.1910045  0.00    0.0454141   -0.0219154   -0.0069916
c     1.7825811   -0.6574836   -0.1010078  0.00   -0.0240873   -0.0282297    0.0006969
h    -0.2452368   -1.5611664    0.0586911  0.00    0.0023978    0.0025464    0.0001575
c     3.6430006    1.0924736   -0.3659396  0.00    0.0032550    0.0083960    0.0111137
c     4.0445597    2.2978708    0.5281976  0.00   -0.0062718    0.0104543   -0.0092317
h     3.7950054    1.3728246   -1.4335080  0.00    0.0020250    0.0006588   -0.0031280
h     4.3315643    0.2360512   -0.1683452  0.00    0.0016391   -0.0029267   -0.0000917
c     4.1079396    1.8639395    1.9851470  0.00    0.0525728   -0.0741469    0.0529021
n     3.0933754    3.4511952    0.4000897  0.00   -0.1581201   -0.0970978    0.3497294
h     5.0706364    2.6219924    0.2460609  0.00   -0.0035920    0.0040795    0.0008352
h     3.6774638    4.3183001    0.2239602  0.00   -0.0098670   -0.0046836    0.0005697
h     2.4765434    3.1588077   -0.5543330  0.00    0.0469950    0.1575145    0.1652364
h    -2.4447731    2.9547510   -0.1909713  0.00   -0.0033429    0.0017742   -0.0000760
h    -2.1557230    0.4950177   -0.0416420  0.00   -0.0048116   -0.0022953    0.0002285
h    -0.4823616    4.4278224   -0.3426711  0.00   -0.0002610    0.0060176   -0.0003801
h     1.8447898    3.7061581   -0.3274631  0.00   -0.0361042   -0.2079236   -0.1569404
h     2.4114963   -1.5503814   -0.0972574  0.00   -0.0080670   -0.0117856    0.0006262
o     4.9117679    0.8679754    2.3892414  0.00   -0.0476251    0.0600432   -0.0335928
o     3.3079633    2.5594544    2.8663602  0.00   -0.0010265   -0.0063257   -0.0102116
h     2.8733220    3.2751782    2.2711099  0.00    0.0669088    0.0348025   -0.4320097
    27
 Energy =       0.3628248855
c    -1.4672004    2.3986808   -0.1460017  0.00   -0.0181385    0.0142804    0.0011350
c    -1.2635029    1.0387104   -0.0662470  0.00   -0.0285643   -0.0148577    0.0008915
c     0.0232377    0.5768578   -0.0859762  0.00   -0.0260483   -0.0367381   -0.0011549
c    -0.3994153    3.2634863   -0.2509450  0.00   -0.0059473    0.0253807    0.0009139
c     0.8970028    2.7924023   -0.2850388  0.00    0.0828265    0.1250556    0.0620967
c     1.0873742    1.4103218   -0.1855065  0.00    0.0304296    0.0383408    0.0027548
n     0.4663429   -0.7731920   -0.0076365  0.00    0.0385081    0.0118422    0.0005190
c     2.2421057    0.6549813   -0.2031799  0.00    0.0442921   -0.0212765   -0.0064485
c     1.8811580   -0.6551654   -0.1110397  0.00   -0.0219875   -0.0279570    0.0006479
h    -0.1082694   -1.6412372    0.0861752  0.00    0.0014340    0.0011281    0.0002888
c     3.6664835    1.1779812   -0.3993087  0.00    0.0040289    0.0083889    0.0103842
c     4.0240162    2.3944109    0.5060925  0.00   -0.0056560    0.0099418   -0.0086528
h     3.7910696    1.4750145   -1.4662041  0.00    0.0021795    0.0009818   -0.0034179
h     4.3953733    0.3500025   -0.2198380  0.00    0.0024629   -0.0038375    0.0000550
c     4.0790590    1.9397797    1.9584428  0.00    0.0488942   -0.0684039    0.0494032
n     3.0405652    3.5279547    0.3749819  0.00   -0.1500522   -0.0931785    0.3388957
h     5.0457041    2.7476232    0.2416613  0.00   -0.0028791    0.0040456    0.0006674
h     3.5974386    4.4038308    0.1564581  0.00   -0.0081833   -0.0026019    0.0002668
h     2.4228265    3.1846007   -0.5618151  0.00    0.0450955    0.1521381    0.1585489
h    -2.4834772    2.7959979   -0.1228487  0.00   -0.0041027    0.0020496   -0.0000553
h    -2.1018689    0.3471061    0.0179351  0.00   -0.0053712   -0.0027813    0.0002889
h    -0.5779146    4.3397861   -0.3032271  0.00   -0.0003719    0.0066600   -0.0004105
h     1.7638373    3.7153784   -0.3389020  0.00   -0.0351558   -0.1984787   -0.1517953
h     2.5464580   -1.5216761   -0.1218208  0.00   -0.0070402   -0.0122638    0.0005890
o     4.8323011    0.8923278    2.3433377  0.00   -0.0442158    0.0550423   -0.0310948
o     3.2756518    2.6207525    2.8456376  0.00   -0.0009339   -0.0063917   -0.0094199
h     2.8309199    3.3281555    2.2512043  0.00    0.0644967    0.0334907   -0.4158968
    27
 Energy =       0.3686068250
c    -1.4761024    2.2969699   -0.0758748  0.00   -0.0188389    0.0136304    0.0011927
c    -1.2274336    0.9443588    0.0073926  0.00   -0.0285227   -0.0148117    0.0009366
c     0.0731481    0.5228308   -0.0446795  0.00   -0.0255194   -0.0355751   -0.0010595
c    -0.4391901    3.1936185   -0.2211653  0.00   -0.0059804    0.0252618    0.0008273
c     0.8696198    2.7633304   -0.2911422  0.00    0.0812305    0.1137318    0.0597248
c     1.1062911    1.3889341   -0.1825127  0.00    0.0294712    0.0370077    0.0027201
n     0.5642647   -0.8124218    0.0304130  0.00    0.0356717    0.0107089    0.0007930
c     2.2858104    0.6757451   -0.2300706  0.00    0.0435878   -0.0200855   -0.0059663
c     1.9729417   -0.6454115   -0.1191503  0.00   -0.0195053   -0.0273211    0.0004597
h     0.0226412   -1.6996688    0.1487636  0.00    0.0004601   -0.0003222    0.0004578
c     3.6892651    1.2607533   -0.4408864  0.00    0.0034055    0.0092493    0.0095447
c     3.9960658    2.4882045    0.4857774  0.00   -0.0051932    0.0096196   -0.0084291
h     3.7920317    1.5743004   -1.5055756  0.00    0.0022079    0.0013505   -0.0034864
h     4.4539582    0.4605888   -0.2800477  0.00    0.0031168   -0.0045958    0.0002183
c     4.0391461    1.9879975    1.9275972  0.00    0.0394736   -0.0502432    0.0421739
n     2.9749417    3.6057082    0.3575044  0.00   -0.1443967   -0.0844327    0.3305481
h     5.0125306    2.8744577    0.2465181  0.00   -0.0020136    0.0042026    0.0004119
h     3.5035544    4.4917788    0.1128796  0.00   -0.0070051   -0.0011876    0.0002088
h     2.4024179    3.1800603   -0.5805209  0.00    0.0415275    0.1303085    0.1439737
h    -2.5039638    2.6627480   -0.0286264  0.00   -0.0048320    0.0021817   -0.0000108
h    -2.0416799    0.2273638    0.1197921  0.00   -0.0060108   -0.0033144    0.0003756
h    -0.6529614    4.2630935   -0.2881082  0.00   -0.0003714    0.0072297   -0.0004883
h     1.7051003    3.7273140   -0.4398402  0.00   -0.0318250   -0.1727293   -0.1444659
h     2.6696081   -1.4869692   -0.1342456  0.00   -0.0062596   -0.0124749    0.0005212
o     4.6735480    0.8328266    2.2619585  0.00   -0.0349504    0.0378515   -0.0252388
o     3.2492070    2.6554374    2.8315741  0.00   -0.0011106   -0.0069190   -0.0082261
h     2.7925154    3.3509235    2.2386665  0.00    0.0621825    0.0316784   -0.3977172
    27
 Energy =       0.3500418482
c    -1.4885491    2.2777503   -0.1307683  0.00   -0.0180234    0.0125508    0.0011932
c    -1.2354148    0.9277406   -0.0454044  0.00   -0.0269594   -0.0138046    0.0009239
c     0.0668569    0.5128014   -0.0707327  0.00   -0.0239158   -0.0333688   -0.0009094
c    -0.4528201    3.1785377   -0.2472138  0.00   -0.0058063    0.0236220    0.0008314
c     0.8592270    2.7551852   -0.2870644  0.00    0.0783523    0.1022285    0.0554920
c     1.0992664    1.3832956   -0.1814111  0.00    0.0277896    0.0347235    0.0025622
n     0.5587304   -0.8212211    0.0099571  0.00    0.0327462    0.0100439    0.0007568
c     2.2795676    0.6753004   -0.2032494  0.00    0.0413779   -0.0186289   -0.0056020
c     1.9701009   -0.6465208   -0.1037055  0.00   -0.0175020   -0.0253972    0.0003792
h     0.0171937   -1.7108913    0.1108617  0.00    0.0002602   -0.0004976    0.0004494
c     3.6814745    1.2550836   -0.4113632  0.00    0.0023649    0.0093825    0.0089856
c     3.9989293    2.4837550    0.4968011  0.00   -0.0052611    0.0094819   -0.0079284
h     3.7863165    1.5592918   -1.4783076  0.00    0.0020401    0.0013413   -0.0032484
h     4.4432933    0.4546274   -0.2399061  0.00    0.0028948   -0.0043740    0.0002532
c     4.0640802    2.0215590    1.9466090  0.00    0.0280140   -0.0346896    0.0346969