    13
 Energy =       0.1265274485
c    -3.7133889    1.6950595    0.3173519  0.00   -0.0513371   -0.0178319    0.0136182
c    -2.4962693    2.6345192    0.2419999  0.00    0.0707932    0.3520808    0.0695060
c    -4.9565486    2.3924193   -0.2155699  0.00    0.0181059   -0.0017378    0.0038629
h    -5.2099685    3.2528291    0.4143399  0.00    0.0025770   -0.0144043   -0.0112920
h    -5.8205883    1.7190695   -0.2147749  0.00    0.0123281    0.0116473   -0.0025106
h    -4.8083986    2.7651692   -1.2348596  0.00   -0.0059022   -0.0026019    0.0172320
n    -3.4097890    0.4519539   -0.4549189  0.00    0.0750990   -0.0207112   -0.0492756
h    -3.8575589    1.4177196    1.3669296  0.00   -0.0022775   -0.0027775   -0.0228021
h    -4.2340588    0.2238779   -1.0206697  0.00    0.0206691    0.0301562    0.0204061
h    -2.6878492    0.6694128   -1.1486897  0.00    0.0391360    0.0869673    0.0768296
o    -2.4571893    3.7760389    0.6681628  0.00   -0.0091095   -0.2785476   -0.0961103
o    -1.4389296    2.0221094   -0.3549299  0.00   -0.1355532   -0.1187538   -0.0363042
h    -1.1721897    2.6250993   -1.0934297  0.00   -0.0345288   -0.0234857    0.0168398
    13
 Energy =       0.1025080691
c    -3.7161365    1.6811482    0.3303459  0.00   -0.0301089   -0.0127458    0.0112987
c    -2.4611103    2.5619946    0.3253536  0.00    0.0454228    0.2153155    0.0404053
c    -4.9116703    2.4532901   -0.2426518  0.00    0.0121014    0.0001822    0.0055116
h    -5.1842235    3.2777415    0.4407856  0.00    0.0017387   -0.0074374   -0.0046668
h    -5.8029565    1.8042033   -0.3581510  0.00    0.0016796    0.0028315   -0.0030647
h    -4.6687497    2.9012724   -1.2278627  0.00   -0.0017962    0.0019355    0.0038675
n    -3.4572394    0.4487503   -0.4590257  0.00    0.0454758   -0.0122673   -0.0292352
h    -3.9137110    1.3927554    1.3782238  0.00   -0.0017155   -0.0027961   -0.0124432
h    -4.2910958    0.2116085   -1.0225309  0.00    0.0122356    0.0181794    0.0121071
h    -2.7026908    0.6404863   -1.1421422  0.00    0.0314762    0.0615293    0.0491510
o    -2.4414631    3.7659497    0.7761546  0.00   -0.0069595   -0.1670649   -0.0598242
o    -1.3807371    2.0023298   -0.3057420  0.00   -0.0864251   -0.1206879    0.0414213
h    -1.3309428    2.5037475   -1.2218154  0.00   -0.0231249    0.0230260   -0.0545282
    13
 Energy =       0.0839845928
c    -3.7252231    1.6738124    0.3097046  0.00   -0.0170668   -0.0065525    0.0064877
c    -2.4643516    2.5348588    0.3146034  0.00    0.0239208    0.1217926    0.0223660
c    -4.9230097    2.4605133   -0.2435120  0.00    0.0143872   -0.0056296    0.0071162
h    -5.0847570    3.3885737    0.3653769  0.00    0.0007511    0.0068119    0.0052090
h    -5.8584077    1.8421213   -0.1993979  0.00   -0.0095016   -0.0066400   -0.0004572
h    -4.7340290    2.7673875   -1.3067240  0.00    0.0029546    0.0033296   -0.0105524
n    -3.5053039    0.4448447   -0.4894890  0.00    0.0255917   -0.0068427   -0.0162732
h    -3.9128911    1.3879154    1.3646782  0.00   -0.0010101   -0.0015569   -0.0069941
h    -4.3438826    0.2184213   -1.0616395  0.00    0.0064252    0.0108586    0.0066047
h    -2.7223022    0.6070227   -1.1614179  0.00    0.0242846    0.0413261    0.0296666
o    -2.4555429    3.7753776    0.7952592  0.00   -0.0045902   -0.0948929   -0.0330481
o    -1.3444000    1.9932194   -0.2786458  0.00   -0.0523230   -0.0791023    0.0333904
h    -1.1886260    2.5512095   -1.1378544  0.00   -0.0138235    0.0170979   -0.0435155
    13
 Energy =       0.0826408389
c    -3.7602522    1.6956397    0.3139500  0.00   -0.0147314   -0.0059734    0.0068863
c    -2.4759189    2.5206762    0.3646841  0.00    0.0230508    0.1149114    0.0208917
c    -4.8982191    2.4942802   -0.3523686  0.00    0.0098275   -0.0031024    0.0070472
h    -5.0709831    3.4526118    0.2066238  0.00   -0.0003521    0.0078940    0.0056456
h    -5.8541733    1.9059880   -0.3377235  0.00   -0.0101972   -0.0064002   -0.0000422
h    -4.6363131    2.7496075   -1.4168591  0.00    0.0036271    0.0041313   -0.0136087
n    -3.5256038    0.4276345   -0.4194850  0.00    0.0252408   -0.0090253   -0.0147738
h    -4.0269392    1.4612731    1.3692560  0.00   -0.0020761   -0.0024056   -0.0025371
h    -4.3491169    0.1763709   -1.0043086  0.00    0.0057543    0.0092820    0.0053951
h    -2.7157790    0.5471921   -1.0709291  0.00    0.0246256    0.0388584    0.0262292
o    -2.4517736    3.7647682    0.8446773  0.00   -0.0040896   -0.0893029   -0.0310079
o    -1.3449977    1.9512358   -0.1845355  0.00   -0.0478206   -0.0755902    0.0319095
h    -1.1526570    2.4979996   -1.0420400  0.00   -0.0128592    0.0167228   -0.0420348
    13
 Energy =       0.0752372876
c    -3.7726775    1.6771871    0.2826309  0.00   -0.0084921   -0.0024877    0.0055912
c    -2.4731068    2.4780989    0.3455315  0.00    0.0137625    0.0755663    0.0121996
c    -4.9149860    2.5210677   -0.3226103  0.00    0.0052486   -0.0009731    0.0041797
h    -5.0559199    3.4633416    0.2676410  0.00   -0.0005219    0.0062041    0.0042949
h    -5.8771370    1.9501155   -0.2999906  0.00   -0.0070827   -0.0042538   -0.0001089
h    -4.6786637    2.8010927   -1.3826443  0.00    0.0025393    0.0027065   -0.0097644
n    -3.5965491    0.4216285   -0.4916052  0.00    0.0187894   -0.0093037    0.0024350
h    -4.0179514    1.4172134    1.3381384  0.00   -0.0013710   -0.0016299   -0.0010933
h    -4.3905395    0.2654263   -1.1630617  0.00   -0.0071848    0.0038224   -0.0050111
h    -2.7195916    0.4796236   -1.0730325  0.00    0.0270252    0.0297600    0.0131270
o    -2.4325553    3.7222249    0.8757686  0.00   -0.0017975   -0.0585715   -0.0191554
o    -1.3248364    1.9071867   -0.1721148  0.00   -0.0381592   -0.0661697    0.0413597
h    -1.0082126    2.5410708   -0.9337093  0.00   -0.0027557    0.0253300   -0.0480541
    13
 Energy =       0.0731194453
c    -3.7692885    1.6835847    0.2963472  0.00   -0.0063663   -0.0009343    0.0052033
c    -2.4787844    2.4970140    0.3594441  0.00    0.0120465    0.0694889    0.0115542
c    -4.8995852    2.4966947   -0.3736586  0.00    0.0035317   -0.0000797    0.0036293
h    -5.0572468    3.4628297    0.1734783  0.00   -0.0007943    0.0067996    0.0045734
h    -5.8611539    1.9262913   -0.3487357  0.00   -0.0066158   -0.0038103   -0.0000230
h    -4.6398348    2.7322118   -1.4393773  0.00    0.0024903    0.0027274   -0.0101868
n    -3.5598342    0.4060250   -0.4304042  0.00    0.0221376   -0.0102792    0.0199798
h    -4.0401096    1.4600539    1.3549476  0.00   -0.0013903   -0.0015799   -0.0000176
h    -4.4140091    0.1413139   -1.0043086  0.00   -0.0228190   -0.0021909   -0.0147047
h    -2.7506923    0.5258910   -1.1081974  0.00    0.0361964    0.0314164    0.0039597
o    -2.4538637    3.7420683    0.8965188  0.00   -0.0016307   -0.0535071   -0.0174646
o    -1.3303152    1.9528373   -0.1881633  0.00   -0.0346754   -0.0622861    0.0388109
h    -1.0080091    2.6184622   -0.9169491  0.00   -0.0021106    0.0242353   -0.0453137
    13
 Energy =       0.0665244029
c    -3.7785955    1.6647080    0.2715808  0.00   -0.0040286   -0.0010117    0.0031815
c    -2.4854925    2.4683123    0.3814782  0.00    0.0064897    0.0388940    0.0031066
c    -4.8923940    2.4985100   -0.3969911  0.00    0.0020950    0.0000867    0.0018601
h    -5.0422568    3.4594558    0.1551216  0.00   -0.0005090    0.0040847    0.0026936
h    -5.8587862    1.9415263   -0.3840327  0.00   -0.0040347   -0.0023616    0.0000137
h    -4.6235999    2.7380880   -1.4552553  0.00    0.0014438    0.0015931   -0.0061028
n    -3.5727696    0.4067647   -0.4827017  0.00    0.0124542   -0.0067263    0.0150433
h    -4.0675912    1.4185689    1.3206869  0.00   -0.0009047   -0.0011017    0.0004322
h    -4.4441239    0.1214347   -1.0094563  0.00   -0.0153877   -0.0014048   -0.0101048
h    -2.8070892    0.5564625   -1.2003708  0.00    0.0254725    0.0206867    0.0005769
o    -2.4649191    3.6897957    1.0079587  0.00   -0.0006586   -0.0273865   -0.0067081
o    -1.3237309    1.9610830   -0.1788806  0.00   -0.0320675   -0.0621390    0.0430719
h    -0.9013780    2.7205678   -0.7581960  0.00    0.0096355    0.0367864   -0.0470641
    13
 Energy =       0.0656407440
c    -3.7876342    1.6549694    0.2633233  0.00   -0.0034310   -0.0018156    0.0024459
c    -2.4988839    2.4567231    0.4270290  0.00    0.0048907    0.0299401   -0.0006496
c    -4.8754734    2.4961572   -0.4377387  0.00    0.0015487    0.0002103    0.0015386
h    -5.0352003    3.4573321    0.1104242  0.00   -0.0004916    0.0037023    0.0024809
h    -5.8454082    1.9455812   -0.4528106  0.00   -0.0040054   -0.0022362    0.0000188
h    -4.5751887    2.7335238   -1.4878371  0.00    0.0013904    0.0015193   -0.0059541
n    -3.5586137    0.4038109   -0.4939393  0.00    0.0111508   -0.0063067    0.0133792
h    -4.1141437    1.4010674    1.3004102  0.00   -0.0010218   -0.0010776    0.0011225
h    -4.4277753    0.1014329   -1.0127386  0.00   -0.0140477   -0.0013192   -0.0091341
h    -2.8017532    0.5708728   -1.2160460  0.00    0.0231034    0.0186311    0.0003021
o    -2.4817836    3.6221243    1.1667118  0.00   -0.0009703   -0.0162293   -0.0002134
o    -1.3362864    2.0041542   -0.1803420  0.00   -0.0276302   -0.0598293    0.0383578
h    -0.9245822    2.7975284   -0.7155043  0.00    0.0095138    0.0348107   -0.0436946
    13
 Energy =       0.0634441206
c    -3.7910543    1.6431865    0.2437280  0.00   -0.0036526   -0.0003954    0.0024208
c    -2.5170125    2.4606857    0.4441103  0.00    0.0017523    0.0220952   -0.0006672
c    -4.8876666    2.4843512   -0.4434151  0.00    0.0014785    0.0002135    0.0014121
h    -5.0643824    3.4309697    0.1239411  0.00   -0.0004078    0.0034639    0.0022778
h    -5.8489644    1.9206059   -0.4761497  0.00   -0.0035579   -0.0020286    0.0000690
h    -4.5853489    2.7495936   -1.4855587  0.00    0.0012976    0.0013424   -0.0053367
n    -3.5346942    0.4202644   -0.5498913  0.00    0.0085162   -0.0071162    0.0113399
h    -4.1223058    1.3531891    1.2700787  0.00   -0.0011098   -0.0010386    0.0015535
h    -4.4008552    0.1038464   -1.0622527  0.00   -0.0119438   -0.0010870   -0.0076503
h    -2.7923952    0.6283783   -1.2764032  0.00    0.0203634    0.0158093   -0.0011397
o    -2.5554423    3.6731569    1.1137736  0.00   -0.0027397   -0.0080847    0.0029172
o    -1.3142464    1.9919784   -0.0742679  0.00   -0.0202499   -0.0551757    0.0318748
h    -0.8483586    2.7850717   -0.5567512  0.00    0.0102535    0.0320019   -0.0390713
    13
 Energy =       0.0623460227
c    -3.7899807    1.6515713    0.2468833  0.00   -0.0052712    0.0013501    0.0058807
c    -2.4594369    2.3934059    0.3989158  0.00    0.0011700    0.0198328    0.0001166
c    -4.8712091    2.5623396   -0.3790256  0.00    0.0002098    0.0006840   -0.0003962
h    -4.9778904    3.5062011    0.2140133  0.00   -0.0008544    0.0054186    0.0035296
h    -5.8618787    2.0478583   -0.3859313  0.00   -0.0051462   -0.0024010   -0.0002237
h    -4.5963387    2.8332477   -1.4272250  0.00    0.0012143    0.0011350   -0.0053890
n    -3.6389786    0.4269649   -0.5758368  0.00    0.0108487   -0.0109302    0.0108459
h    -4.0898710    1.3656236    1.2842739  0.00   -0.0011751   -0.0005455    0.0021197
h    -4.5495334    0.1523703   -1.0376350  0.00   -0.0151375   -0.0028243   -0.0094268
h    -2.9358414    0.6145791   -1.3463972  0.00    0.0201801    0.0138724   -0.0040808
o    -2.4016226    3.6118236    1.0639650  0.00   -0.0020914   -0.0022188    0.0055223
o    -1.3012373    1.8529737   -0.1604247  0.00   -0.0140579   -0.0547659    0.0280838
h    -0.7889079    2.6263186   -0.6246339  0.00    0.0101106    0.0313929   -0.0365820
    13
 Energy =       0.0623947638
c    -3.8132406    1.6339587    0.2116193  0.00   -0.0054905    0.0031920    0.0087268
c    -2.4557415    2.3051221    0.4592603  0.00    0.0002093    0.0211122    0.0030889
c    -4.8429415    2.6349330   -0.3707255  0.00   -0.0006684    0.0019715   -0.0024661
h    -4.9200178    3.5436545    0.2824113  0.00   -0.0005269    0.0072769    0.0046496
h    -5.8546483    2.1628316   -0.4290841  0.00   -0.0066103   -0.0035189   -0.0006645
h    -4.5392813    2.9639929   -1.3956946  0.00    0.0009818    0.0021690   -0.0070757
n    -3.6874046    0.4749278   -0.7093475  0.00    0.0070428   -0.0169675    0.0079880
h    -4.1506376    1.2740635    1.2175287  0.00   -0.0012017   -0.0023748    0.0054190
h    -4.6098404    0.2381038   -1.1679545  0.00   -0.0144949   -0.0032536   -0.0096033
h    -3.0000713    0.7217752   -1.4792422  0.00    0.0191333    0.0122112   -0.0076684
o    -2.3742302    3.5066107    1.1536193  0.00   -0.0005774   -0.0010385    0.0054586
o    -1.2899499    1.7156410   -0.0355679  0.00   -0.0088716   -0.0514369    0.0267415
h    -0.7247219    2.4696629   -0.4658808  0.00    0.0110744    0.0306574   -0.0345944
    13
 Energy =       0.0582980236
c    -3.7883833    1.6482418    0.2373693  0.00   -0.0046294    0.0032974    0.0083029
c    -2.4438668    2.3865790    0.3697820  0.00    0.0008603    0.0170533    0.0033413
c    -4.8737774    2.5737625   -0.3702718  0.00   -0.0011454    0.0025847   -0.0036614
h    -4.9676976    3.5118261    0.2362986  0.00   -0.0001505    0.0067241    0.0042887
h    -5.8680784    2.0624882   -0.3769936  0.00   -0.0066755   -0.0037754   -0.0008132
h    -4.6082811    2.8607745   -1.4182221  0.00    0.0007278    0.0025171   -0.0069015
n    -3.6749958    0.4204581   -0.5956544  0.00    0.0020914   -0.0187928    0.0067318
h    -4.0691975    1.3572654    1.2852046  0.00   -0.0013311   -0.0035970    0.0083274
h    -4.6047201    0.1377482   -1.0092014  0.00   -0.0130073   -0.0039088   -0.0092678
h    -3.0170750    0.6110526   -1.4049930  0.00    0.0160887    0.0092353   -0.0096669
o    -2.3762943    3.6278329    0.9971526  0.00    0.0021632    0.0029867    0.0048534
o    -1.2816312    1.8345776   -0.1728494  0.00   -0.0071454   -0.0436370    0.0220916
h    -0.6887281    2.6126708   -0.5066797  0.00    0.0121531    0.0293125   -0.0276263
    13
 Energy =       0.0540555889
c    -3.7737057    1.6651912    0.2437074  0.00   -0.0016213    0.0035531    0.0058163
c    -2.4436063    2.4296585    0.3103283  0.00   -0.0001705    0.0117657    0.0026408
c    -4.8807318    2.5384021   -0.3917247  0.00   -0.0008035    0.0017431   -0.0022774
h    -4.9848969    3.4990645    0.1710888  0.00    0.0000431    0.0041596    0.0027827
h    -5.8636060    2.0128020   -0.3632628  0.00   -0.0038116   -0.0022020   -0.0005648
h    -4.6310618    2.7810644   -1.4521527  0.00    0.0004009    0.0017472   -0.0043337
n    -3.6631966    0.3928694   -0.5122147  0.00    0.0017816   -0.0121361    0.0074883
h    -4.0322146    1.4350627    1.3097220  0.00   -0.0008437   -0.0025511    0.0059568
h    -4.6035678    0.0543159   -0.8504483  0.00   -0.0118250   -0.0046334   -0.0078201
h    -3.0612507    0.5467443   -1.3678850  0.00    0.0108652    0.0056734   -0.0083283
o    -2.3830602    3.6700562    0.9379590  0.00    0.0010956    0.0015525    0.0019304
o    -1.2934669    1.9173893   -0.2903496  0.00   -0.0108771   -0.0386865    0.0143132
h    -0.6483614    2.7026572   -0.4738261  0.00    0.0157663    0.0300143   -0.0176041
    13
 Energy =       0.0516390225
c    -3.7690810    1.6830220    0.2554312  0.00    0.0004456    0.0043439    0.0046036
c    -2.4469266    2.4551253    0.2947479  0.00   -0.0045551    0.0089524    0.0034270
c    -4.8708450    2.5145233   -0.4384807  0.00   -0.0013125    0.0011814   -0.0013736
h    -4.9837367    3.5042964    0.0687685  0.00   -0.0001269    0.0038986    0.0024434
h    -5.8508512    1.9887230   -0.3898735  0.00   -0.0022322   -0.0013066   -0.0003023
h    -4.6112771    2.6975284   -1.5082224  0.00    0.0003775    0.0014104   -0.0040557
n    -3.6463846    0.3708728   -0.4223695  0.00    0.0025795   -0.0096921    0.0071334
h    -4.0385669    1.5150690    1.3294934  0.00   -0.0005891   -0.0017533    0.0050656
h    -4.5896041   -0.0157827   -0.6916952  0.00   -0.0108282   -0.0052846   -0.0064706
h    -3.0934420    0.4903863   -1.3140174  0.00    0.0078976    0.0040392   -0.0075155
o    -2.3722052    3.6583378    0.9931242  0.00   -0.0010916    0.0042392    0.0035841
o    -1.3269517    2.0024177   -0.4096116  0.00   -0.0021458   -0.0330847    0.0039621
h    -0.6628546    2.7807584   -0.4963531  0.00    0.0115812    0.0230564   -0.0105017
    13
 Energy =       0.0496172433
c    -3.7739627    1.7050143    0.2638525  0.00    0.0024880    0.0045859    0.0034875
c    -2.4587838    2.4813993    0.2997982  0.00   -0.0052526    0.0053329    0.0034956
c    -4.8556740    2.4873975   -0.5132173  0.00   -0.0026778    0.0009491   -0.0010024
h    -4.9873373    3.5056230   -0.0710404  0.00   -0.0005011    0.0040462    0.0022452
h    -5.8341376    1.9617470   -0.4623319  0.00   -0.0011430   -0.0004329   -0.0001394
h    -4.5636164    2.6049930   -1.5840980  0.00    0.0004778    0.0010236   -0.0043317
n    -3.6235603    0.3559278   -0.3263384  0.00    0.0034658   -0.0084056    0.0051473
h    -4.0772372    1.6030707    1.3372036  0.00   -0.0005425   -0.0009439    0.0048801
h    -4.5613444   -0.0756275   -0.5329421  0.00   -0.0085398   -0.0051561   -0.0046638
h    -3.1087716    0.4341680   -1.2430194  0.00    0.0049805    0.0025992   -0.0058876
o    -2.3674870    3.6398370    1.0701021  0.00   -0.0019201    0.0056863    0.0044224
o    -1.3713510    2.0940367   -0.4897636  0.00   -0.0001779   -0.0274183   -0.0030188
h    -0.6794635    2.8476909   -0.4772636  0.00    0.0093427    0.0181337   -0.0046346
    13
 Energy =       0.0480524665
c    -3.7828336    1.7292887    0.2711652  0.00    0.0032888    0.0043230    0.0023968
c    -2.4743042    2.5103857    0.3105542  0.00   -0.0050515    0.0015297    0.0035922
c    -4.8371018    2.4531369   -0.5942401  0.00   -0.0033430    0.0008088   -0.0009528
h    -4.9937455    3.4942394   -0.2203347  0.00   -0.0007298    0.0037023    0.0018405
h    -5.8125393    1.9226739   -0.5516856  0.00   -0.0006085    0.0001229   -0.0001288
h    -4.5018899    2.5082115   -1.6573680  0.00    0.0005451    0.0005209   -0.0040587
n    -3.6000294    0.3492885   -0.2259238  0.00    0.0033504   -0.0070154    0.0031303
h    -4.1278680    1.6928612    1.3359557  0.00   -0.0005552   -0.0002321    0.0043873
h    -4.5282793   -0.1201320   -0.3741889  0.00   -0.0055079   -0.0041185   -0.0027532
h    -3.1129747    0.3786436   -1.1587932  0.00    0.0026657    0.0012868   -0.0042016
o    -2.3567334    3.6082959    1.1635708  0.00   -0.0022963    0.0071718    0.0058162
o    -1.4279502    2.2025388   -0.5647085  0.00    0.0014579   -0.0207639   -0.0088558
h    -0.7064775    2.9158456   -0.4630613  0.00    0.0067842    0.0126638   -0.0002124
    13
 Energy =       0.0469946346
c    -3.7958190    1.7572115    0.2772559  0.00    0.0027784    0.0037392    0.0017396
c    -2.4938383    2.5447150    0.3210753  0.00   -0.0028101   -0.0017459    0.0017460
c    -4.8158457    2.4109368   -0.6785299  0.00   -0.0030980    0.0005340   -0.0009691
h    -5.0015160    3.4701156   -0.3790878  0.00   -0.0008227    0.0030637    0.0012686
h    -5.7856737    1.8698644   -0.6495256  0.00   -0.0004422    0.0002732   -0.0001925
h    -4.4303164    2.4047718   -1.7253550  0.00    0.0005849    0.0000616   -0.0032818
n    -3.5795743    0.3519602   -0.1190463  0.00    0.0020947   -0.0055683    0.0015324
h    -4.1873485    1.7870793    1.3255623  0.00   -0.0005856    0.0001963    0.0034824
h    -4.4963735   -0.1467462   -0.2183811  0.00   -0.0021493   -0.0022936   -0.0011059
h    -3.1039296    0.3239552   -1.0566482  0.00    0.0012290    0.0001698   -0.0027910
o    -2.3403355    3.5701897    1.2542587  0.00   -0.0016918    0.0064701    0.0056464
o    -1.4919767    2.3197763   -0.6245788  0.00    0.0014456   -0.0109717   -0.0086340
h    -0.7401797    2.9814482   -0.4560577  0.00    0.0034671    0.0060717    0.0015588
    13
 Energy =       0.0464658993
c    -3.8110355    1.7857575    0.2836692  0.00    0.0011223    0.0024101    0.0011729
c    -2.5147715    2.5805741    0.3287001  0.00   -0.0018722   -0.0039208   -0.0010491
c    -4.7914454    2.3613246   -0.7570452  0.00   -0.0017690    0.0001254   -0.0006779
h    -5.0029791    3.4336274   -0.5378410  0.00   -0.0006152    0.0019299    0.0005400
h    -5.7543195    1.8077138   -0.7393957  0.00   -0.0002185    0.0001118   -0.0001325
h    -4.3551993    2.2944722   -1.7804840  0.00    0.0004862   -0.0001288   -0.0018739
n    -3.5665203    0.3620092   -0.0072683  0.00    0.0002096   -0.0035512    0.0009166
h    -4.2492359    1.8813251    1.3081816  0.00   -0.0005097    0.0002023    0.0019750
h    -4.4739814   -0.1548824   -0.0761398  0.00    0.0002428   -0.0003017   -0.0001015
h    -3.0810595    0.2731573   -0.9354185  0.00    0.0007861   -0.0004513   -0.0018550
o    -2.3062597    3.5097421    1.3485560  0.00   -0.0009118    0.0060411    0.0068839
o    -1.5668400    2.4483028   -0.6852323  0.00    0.0028211   -0.0030945   -0.0065940
h    -0.7890796    3.0621541   -0.4793404  0.00    0.0002283    0.0006277    0.0007956
    13
 Energy =       0.0463305714
c    -3.8208273    1.8034741    0.2864705  0.00    0.0000008    0.0001852    0.0002298
c    -2.5290358    2.6057190    0.3294536  0.00    0.0007459    0.0007945    0.0000297
c    -4.7763923    2.3247334   -0.8014983  0.00   -0.0001661   -0.0001368   -0.0000485
h    -4.9978279    3.4030132   -0.6375762  0.00   -0.0000485    0.0002731    0.0000398
h    -5.7360182    1.7657838   -0.7833441  0.00    0.0000529   -0.0000274    0.0000261
h    -4.3135585    2.2159744   -1.8078650  0.00    0.0000285    0.0000376   -0.0002008
n    -3.5621074    0.3721364    0.0645722  0.00    0.0000753   -0.0003570    0.0002911
h    -4.2860459    1.9404570    1.2924101  0.00   -0.0000229    0.0000322    0.0001568
h    -4.4655325   -0.1526510   -0.0007075  0.00   -0.0001800   -0.0000224   -0.0000362
h    -3.0565492    0.2465487   -0.8474598  0.00    0.0002198   -0.0000738   -0.0004257
o    -2.2886651    3.4811097    1.3807370  0.00    0.0000482   -0.0012696   -0.0020054
o    -1.6065947    2.5167007   -0.7059597  0.00   -0.0006458    0.0008252    0.0023715
h    -0.8235721    3.1222782   -0.4982911  0.00   -0.0001080   -0.0002607   -0.0004282
    13
 Energy =       0.0463246837
c    -3.8274756    1.8152058    0.2871242  0.00    0.0001792    0.0004825    0.0001896
c    -2.5349962    2.6162622    0.3289352  0.00    0.0001239    0.0001506    0.0000475
c    -4.7672548    2.3117038   -0.8263749  0.00   -0.0003750   -0.0000363   -0.0000973
h    -4.9892291    3.3940606   -0.6915600  0.00   -0.0001363    0.0004543    0.0000437
h    -5.7280448    1.7547079   -0.8081775  0.00   -0.0000062    0.0000025    0.0000083
h    -4.2905987    2.1780403   -1.8235516  0.00    0.0001511   -0.0000353   -0.0004496
n    -3.5675445    0.3785092    0.1028876  0.00    0.0000094   -0.0007761    0.0004710
h    -4.3065219    1.9766949    1.2832208  0.00   -0.0001539    0.0000918    0.0004324
h    -4.4705740   -0.1470750    0.0396851  0.00   -0.0000328   -0.0000541   -0.0000109
h    -3.0513945    0.2304903   -0.7999243  0.00    0.0003171   -0.0001616   -0.0005831
o    -2.2985170    3.5014203    1.3743652  0.00   -0.0000070   -0.0001856   -0.0003300
o    -1.6068543    2.5147217   -0.7015135  0.00   -0.0000491    0.0001162    0.0003657
h    -0.8237214    3.1205355   -0.4941746  0.00   -0.0000204   -0.0000488   -0.0000874
    13
 Energy =       0.0463230113
c    -3.8269260    1.8137370    0.2869613  0.00    0.0000188    0.0000538    0.0000158
c    -2.5338344    2.6136933    0.3300312  0.00   -0.0000562   -0.0000646   -0.0000404
c    -4.7671171    2.3133130   -0.8241848  0.00   -0.0000396   -0.0000040   -0.0000129
h    -4.9879033    3.3951717   -0.6868096  0.00   -0.0000147    0.0000490    0.0000039
h    -5.7283309    1.7570247   -0.8065836  0.00   -0.0000010   -0.0000001    0.0000006
h    -4.2914104    2.1817118   -1.8216625  0.00    0.0000163   -0.0000048   -0.0000470
n    -3.5680950    0.3778666    0.0988111  0.00    0.0000006   -0.0000854    0.0000528
h    -4.3051506    1.9727615    1.2834307  0.00   -0.0000172    0.0000099    0.0000461
h    -4.4714474   -0.1471399    0.0356783  0.00   -0.0000035   -0.0000058   -0.0000013
h    -3.0534632    0.2319799   -0.8048068  0.00    0.0000354   -0.0000185   -0.0000627
o    -2.2891615    3.4848285    1.3857334  0.00    0.0000013    0.0001132    0.0001679
o    -1.6125443    2.5240548   -0.7079345  0.00    0.0000492   -0.0000533   -0.0001297
h    -0.8273428    3.1262747   -0.4977223  0.00    0.0000107    0.0000106    0.0000070
    13
 Energy =       0.0463229817
c    -3.8269208    1.8137323    0.2869309  0.00   -0.0000000    0.0000000    0.0000000
c    -2.5338299    2.6136869    0.3300065  0.00   -0.0000000    0.0000000   -0.0000000
c    -4.7671003    2.3132802   -0.8241573  0.00    0.0000000   -0.0000000   -0.0000000
h    -4.9878392    3.3951013   -0.6867938  0.00   -0.0000000   -0.0000000    0.0000000
h    -5.7283269    1.7570145   -0.8065406  0.00    0.0000000   -0.0000000   -0.0000000
h    -4.2914188    2.1816731   -1.8215947  0.00    0.0000000   -0.0000000    0.0000000
n    -3.5681219    0.3779177    0.0987816  0.00   -0.0000000    0.0000000    0.0000000
h    -4.3051321    1.9727384    1.2833584  0.00   -0.0000000    0.0000000   -0.0000000
h    -4.4714727   -0.1470900    0.0356737  0.00   -0.0000000    0.0000000    0.0000000
h    -3.0535172    0.2320430   -0.8048040  0.00   -0.0000000    0.0000000    0.0000000
o    -2.2891685    3.4847907    1.3855904  0.00    0.0000000   -0.0000000   -0.0000000
o    -1.6125345    2.5240844   -0.7078596  0.00   -0.0000000    0.0000000   -0.0000000
h    -0.8273440    3.1263050   -0.4976499  0.00   -0.0000000    0.0000000    0.0000000
    13
 Energy =       0.0463229817
c    -3.8269208    1.8137322    0.2869308  0.00    0.0000000    0.0000000   -0.0000000
c    -2.5338299    2.6136870    0.3300065  0.00   -0.0000000   -0.0000000   -0.0000000
c    -4.7671004    2.3132803   -0.8241571  0.00   -0.0000000    0.0000000   -0.0000000
h    -4.9878393    3.3951013   -0.6867935  0.00   -0.0000000    0.0000000    0.0000000
h    -5.7283270    1.7570146   -0.8065404  0.00   -0.0000000    0.0000000    0.0000000
h    -4.2914190    2.1816733   -1.8215946  0.00    0.0000000   -0.0000000   -0.0000000
n    -3.5681218    0.3779176    0.0987814  0.00    0.0000000   -0.0000000    0.0000000
h    -4.3051319    1.9727382    1.2833584  0.00   -0.0000000   -0.0000000    0.0000000
h    -4.4714726   -0.1470900    0.0356735  0.00   -0.0000000   -0.0000000    0.0000000
h    -3.0535171    0.2320431   -0.8048042  0.00    0.0000000    0.0000000   -0.0000000
o    -2.2891691    3.4847917    1.3855897  0.00    0.0000000    0.0000000    0.0000000
o    -1.6125340    2.5240838   -0.7078591  0.00    0.0000000   -0.0000000   -0.0000000
h    -0.8273437    3.1263046   -0.4976496  0.00    0.0000000    0.0000000    0.0000000
