    13
 Energy =       0.1025145502
c    -3.7133889    1.6950595    0.3173519  0.00   -0.1143411    0.0621307    0.0036987
c    -2.4962693    2.6345192    0.2419999  0.00    0.3774817   -0.0526917    0.0887510
c    -4.9565486    2.3924193   -0.2155699  0.00    0.0400385    0.0342061   -0.0002118
h    -5.2099685    3.2528291    0.4143399  0.00    0.0020317   -0.0133504   -0.0097757
h    -5.8205883    1.7190695   -0.2147749  0.00    0.0073818    0.0148938    0.0003334
h    -4.8083986    2.7651692   -1.2348596  0.00    0.0004063    0.0028519    0.0192538
n    -3.4097890    0.4519539   -0.4549189  0.00    0.0788467   -0.0570431   -0.0086633
h    -3.8575589    1.4177196    1.3669296  0.00    0.0058399   -0.0110466   -0.0259982
h    -2.5963493    0.6418898   -1.0496997  0.00   -0.0236825    0.0153338    0.0412868
h    -3.0749291   -0.2623099    0.1989099  0.00   -0.0109849    0.0305568   -0.0236035
o    -1.4040496    2.4172293    0.7380088  0.00   -0.2643819    0.0549302   -0.1118732
o    -2.7835192    3.7545589   -0.4737969  0.00   -0.0709608   -0.0616382    0.0022223
h    -2.2118794    3.7013989   -1.2803496  0.00   -0.0276755   -0.0191334    0.0245796
    13
 Energy =       0.0669878173
c    -3.6595982    1.7035381    0.3111531  0.00   -0.0291903    0.0183102    0.0014118
c    -2.5143442    2.7009558    0.2282674  0.00    0.1064089   -0.0220531    0.0126735
c    -4.9683544    2.3415277   -0.1481923  0.00    0.0198051    0.0160419   -0.0021496
h    -5.2665627    3.1618880    0.5378783  0.00   -0.0010367   -0.0014383   -0.0009790
h    -5.7759302    1.5787681   -0.1640798  0.00   -0.0004305   -0.0003642    0.0002020
h    -4.8623481    2.7674277   -1.1664964  0.00    0.0025334    0.0035376    0.0043162
n    -3.4036391    0.5025609   -0.5151964  0.00    0.0197342   -0.0098007   -0.0054244
h    -3.7445358    1.4143813    1.3825022  0.00    0.0019894   -0.0033017   -0.0048648
h    -2.5890893    0.6675291   -1.1451448  0.00   -0.0052494    0.0063248    0.0121240
h    -3.1239153   -0.2964006    0.1005234  0.00   -0.0013067    0.0001919   -0.0028101
o    -1.3269962    2.4506251    0.7962181  0.00   -0.0746870    0.0147755   -0.0290780
o    -2.7372908    3.8814767   -0.4499862  0.00   -0.0548877    0.0051889    0.0689741
h    -2.3706325    3.7072286   -1.4138761  0.00    0.0163174   -0.0274127   -0.0543957
    13
 Energy =       0.0664628728
c    -3.6439059    1.6832578    0.2938942  0.00   -0.0269195    0.0198350    0.0027202
c    -2.5162945    2.7032365    0.2419749  0.00    0.0996262   -0.0197543    0.0118159
c    -4.9761972    2.3307962   -0.0851287  0.00    0.0173970    0.0145225   -0.0017327
h    -5.2618422    3.1078382    0.6582254  0.00   -0.0018603    0.0004540    0.0006921
h    -5.7745229    1.5587062   -0.1186567  0.00   -0.0004950   -0.0006499    0.0003210
h    -4.9095427    2.8169439   -1.0828308  0.00    0.0023728    0.0045318    0.0016129
n    -3.3966951    0.5388877   -0.6169853  0.00    0.0181595   -0.0106818   -0.0104426
h    -3.6921714    1.3245360    1.3500786  0.00    0.0016253   -0.0040138   -0.0014745
h    -2.5790826    0.7398906   -1.2345147  0.00   -0.0040504    0.0061514    0.0103373
h    -3.1298264   -0.3086409   -0.0582297  0.00   -0.0001576   -0.0037416   -0.0001547
o    -1.3235435    2.4563756    0.8074020  0.00   -0.0697025    0.0137471   -0.0271452
o    -2.7496921    3.8935368   -0.4174479  0.00   -0.0513414    0.0052721    0.0644663
h    -2.3899202    3.7361419   -1.3842108  0.00    0.0153460   -0.0256725   -0.0510159
    13
 Energy =       0.0623814245
c    -3.6593243    1.6969813    0.2970934  0.00   -0.0146847    0.0133889    0.0039992
c    -2.5466345    2.7365748    0.2596772  0.00    0.0587963   -0.0116906    0.0059660
c    -4.9905172    2.2921579   -0.1729434  0.00    0.0088112    0.0065496   -0.0011689
h    -5.3099106    3.1241987    0.4994722  0.00   -0.0023346    0.0036341    0.0030553
h    -5.7758625    1.5056235   -0.1748184  0.00   -0.0005141   -0.0011670    0.0000056
h    -4.8911552    2.6976203   -1.2073039  0.00    0.0015179    0.0042855   -0.0029858
n    -3.3585356    0.5185309   -0.5519022  0.00    0.0088906   -0.0068202   -0.0101102
h    -3.7530851    1.3879610    1.3679684  0.00    0.0010916   -0.0026076    0.0014462
h    -2.5047286    0.6884452   -1.1350474  0.00    0.0001093    0.0030434    0.0044825
h    -3.1216935   -0.3029524    0.0592450  0.00    0.0008389   -0.0050029    0.0018544
o    -1.3529960    2.5009758    0.8707182  0.00   -0.0407391    0.0082891   -0.0147618
o    -2.7564018    3.9266608   -0.4142416  0.00   -0.0318170    0.0049400    0.0450446
h    -2.3223918    3.8087286   -1.3443473  0.00    0.0100337   -0.0168421   -0.0368272
    13
 Energy =       0.0606965165
c    -3.6750901    1.6912420    0.2779346  0.00   -0.0102569    0.0090627    0.0064783
c    -2.6056518    2.7820522    0.3288356  0.00    0.0334234   -0.0060517    0.0005368
c    -5.0013750    2.2196700   -0.2860327  0.00    0.0024277    0.0022900   -0.0025579
h    -5.3899708    3.0574880    0.3433412  0.00   -0.0026526    0.0044543    0.0038546
h    -5.7566701    1.4038366   -0.3135701  0.00   -0.0014627   -0.0012853   -0.0004244
h    -4.8527968    2.5978358   -1.3246006  0.00    0.0008010    0.0027196   -0.0034830
n    -3.2673639    0.5289160   -0.5510455  0.00   -0.0029024   -0.0079400   -0.0096544
h    -3.8335378    1.3789186    1.3414830  0.00    0.0001140   -0.0010426    0.0031473
h    -2.3472648    0.7095789   -1.0354574  0.00    0.0102816    0.0025604   -0.0032559
h    -3.0960054   -0.2976205    0.0764553  0.00    0.0008919   -0.0052181    0.0043506
o    -1.4383026    2.5847163    1.0294713  0.00   -0.0187107    0.0062118   -0.0048370
o    -2.8105538    3.9848971   -0.3279424  0.00   -0.0244657    0.0062490    0.0419187
h    -2.2686536    3.9399755   -1.2053020  0.00    0.0125114   -0.0120101   -0.0360738
    13
 Energy =       0.0607221818
c    -3.6717721    1.6938249    0.2787226  0.00   -0.0093821    0.0082170    0.0058440
c    -2.6186982    2.8000500    0.3313866  0.00    0.0281983   -0.0059029   -0.0005613
c    -5.0054500    2.2034028   -0.2838743  0.00    0.0021142    0.0021364   -0.0023136
h    -5.4014312    3.0401773    0.3412287  0.00   -0.0023886    0.0040460    0.0034800
h    -5.7513092    1.3788702   -0.3046841  0.00   -0.0013858   -0.0012291   -0.0003876
h    -4.8639542    2.5770478   -1.3247506  0.00    0.0007134    0.0024713   -0.0031671
n    -3.2487368    0.5380841   -0.5502948  0.00   -0.0026277   -0.0073026   -0.0087307
h    -3.8263081    1.3787694    1.3418671  0.00    0.0000921   -0.0009501    0.0028419
h    -2.3283831    0.7275215   -1.0293835  0.00    0.0093319    0.0023059   -0.0029719
h    -3.0750705   -0.2889967    0.0752124  0.00    0.0008039   -0.0047000    0.0039230
o    -1.4787233    2.6447233    1.0919163  0.00   -0.0138527    0.0047293   -0.0020518
o    -2.8134292    3.9784457   -0.3737400  0.00   -0.0232124    0.0069862    0.0371642
h    -2.2599710    3.9095863   -1.2400360  0.00    0.0115956   -0.0108074   -0.0330692
    13
 Energy =       0.0609630901
c    -3.6686039    1.6941150    0.2756852  0.00   -0.0087672    0.0075757    0.0052596
c    -2.6321326    2.8149159    0.3442979  0.00    0.0241199   -0.0053468   -0.0014007
c    -5.0065484    2.1895737   -0.2880836  0.00    0.0018920    0.0019723   -0.0020985
h    -5.4121977    3.0214230    0.3365351  0.00   -0.0021690    0.0036893    0.0031565
h    -5.7433937    1.3571829   -0.3108351  0.00   -0.0012984   -0.0011558   -0.0003489
h    -4.8671932    2.5652018   -1.3282060  0.00    0.0006472    0.0022273   -0.0028548
n    -3.2265897    0.5517023   -0.5607928  0.00   -0.0027171   -0.0067824   -0.0080887
h    -3.8240266    1.3680569    1.3352832  0.00    0.0000339   -0.0008674    0.0026202
h    -2.2964516    0.7478911   -1.0171038  0.00    0.0088478    0.0021972   -0.0029531
h    -3.0676962   -0.2851019    0.0553508  0.00    0.0007251   -0.0044380    0.0037980
o    -1.5201707    2.6902490    1.1547094  0.00   -0.0103788    0.0039054   -0.0002299
o    -2.8149903    3.9779343   -0.3900002  0.00   -0.0215954    0.0066991    0.0332040
h    -2.2632424    3.8883626   -1.2532697  0.00    0.0106598   -0.0096759   -0.0300636
    13
 Energy =       0.0611629331
c    -3.6672833    1.6934894    0.2716335  0.00   -0.0081467    0.0069808    0.0047130
c    -2.6421003    2.8231069    0.3604096  0.00    0.0211330   -0.0047969   -0.0017483
c    -5.0062781    2.1828224   -0.2937285  0.00    0.0017234    0.0017860   -0.0018919
h    -5.4188992    3.0092533    0.3327206  0.00   -0.0019636    0.0033513    0.0028617
h    -5.7376921    1.3460056   -0.3223770  0.00   -0.0011971   -0.0010692   -0.0003126
h    -4.8659150    2.5633909   -1.3316214  0.00    0.0005913    0.0020066   -0.0025839
n    -3.2108833    0.5649376   -0.5748556  0.00   -0.0028706   -0.0061734   -0.0075858
h    -3.8260624    1.3541822    1.3265035  0.00   -0.0000147   -0.0007978    0.0024565
h    -2.2705871    0.7651641   -1.0074390  0.00    0.0084296    0.0021405   -0.0029217
h    -3.0695302   -0.2836068    0.0292756  0.00    0.0006617   -0.0043314    0.0037692
o    -1.5547625    2.7145018    1.2081414  0.00   -0.0082285    0.0033754    0.0006868
o    -2.8093120    3.9778820   -0.3909301  0.00   -0.0199187    0.0062251    0.0298470
h    -2.2639312    3.8703770   -1.2541623  0.00    0.0098010   -0.0086970   -0.0272899
    13
 Energy =       0.0612743723
c    -3.6672832    1.6926952    0.2679377  0.00   -0.0075006    0.0063962    0.0042109
c    -2.6492812    2.8270087    0.3757308  0.00    0.0187633   -0.0043334   -0.0018142
c    -5.0058138    2.1804960   -0.2987297  0.00    0.0015713    0.0016086   -0.0017031
h    -5.4229555    3.0021543    0.3302574  0.00   -0.0017722    0.0030353    0.0025896
h    -5.7342810    1.3415238   -0.3339623  0.00   -0.0010957   -0.0009828   -0.0002805
h    -4.8633810    2.5664818   -1.3340698  0.00    0.0005383    0.0018099   -0.0023444
n    -3.2009020    0.5762653   -0.5881136  0.00   -0.0028473   -0.0055818   -0.0070621
h    -3.8299660    1.3410548    1.3180877  0.00   -0.0000436   -0.0007358    0.0023001
h    -2.2532475    0.7792913   -1.0020938  0.00    0.0078663    0.0020361   -0.0027827
h    -3.0733182   -0.2823355    0.0045274  0.00    0.0006021   -0.0041491    0.0036320
o    -1.5824660    2.7260311    1.2514952  0.00   -0.0067921    0.0029602    0.0011373
o    -2.7995223    3.9768577   -0.3870048  0.00   -0.0182750    0.0057754    0.0268549
h    -2.2608191    3.8539819   -1.2504917  0.00    0.0089852   -0.0078388   -0.0247377
    13
 Energy =       0.0613228983
c    -3.6682398    1.6918947    0.2647205  0.00   -0.0068609    0.0058321    0.0037580
c    -2.6544627    2.8280924    0.3896678  0.00    0.0167660   -0.0039413   -0.0017455
c    -5.0054164    2.1810533   -0.3029980  0.00    0.0014287    0.0014474   -0.0015337
h    -5.4253056    2.9986661    0.3287425  0.00   -0.0015967    0.0027443    0.0023400
h    -5.7326472    1.3414564   -0.3447957  0.00   -0.0009998   -0.0009014   -0.0002522
h    -4.8603727    2.5723491   -1.3357367  0.00    0.0004878    0.0016339   -0.0021295
n    -3.1951324    0.5857384   -0.5999558  0.00   -0.0027090   -0.0050357   -0.0065212
h    -3.8350169    1.3292828    1.3103954  0.00   -0.0000583   -0.0006791    0.0021438
h    -2.2424817    0.7908716   -1.0001675  0.00    0.0072296    0.0018971   -0.0025866
h    -3.0776316   -0.2810350   -0.0175537  0.00    0.0005470   -0.0039006    0.0034180
o    -1.6048655    2.7297092    1.2872362  0.00   -0.0057427    0.0026102    0.0013535
o    -2.7873275    3.9747407   -0.3813405  0.00   -0.0166993    0.0053661    0.0241480
h    -2.2543368    3.8386868   -1.2446440  0.00    0.0082076   -0.0070731   -0.0223926
    13
 Energy =       0.0613348647
c    -3.6697962    1.6911386    0.2619276  0.00   -0.0062493    0.0052990    0.0033538
c    -2.6582621    2.8274144    0.4021845  0.00    0.0150264   -0.0036012   -0.0016179
c    -5.0051409    2.1833851   -0.3065795  0.00    0.0012951    0.0013033   -0.0013820
h    -5.4265774    2.9975413    0.3279631  0.00   -0.0014373    0.0024792    0.0021126
h    -5.7322324    1.3441359   -0.3546797  0.00   -0.0009115   -0.0008266   -0.0002272
h    -4.8572690    2.5797339   -1.3367669  0.00    0.0004404    0.0014760   -0.0019353
n    -3.1922243    0.5937104   -0.6104704  0.00   -0.0025180   -0.0045398   -0.0059856
h    -3.8406392    1.3188329    1.3034283  0.00   -0.0000645   -0.0006266    0.0019891
h    -2.2362526    0.8005642   -1.0006468  0.00    0.0065851    0.0017439   -0.0023723
h    -3.0819778   -0.2796995   -0.0370219  0.00    0.0004966   -0.0036205    0.0031694
o    -1.6233608    2.7287128    1.3173021  0.00   -0.0049241    0.0023078    0.0014461
o    -2.7739475    3.9717620   -0.3752177  0.00   -0.0152138    0.0049896    0.0216975
h    -2.2455564    3.8242746   -1.2378523  0.00    0.0074750   -0.0063839   -0.0202482
    13
 Energy =       0.0613022719
c    -3.6791279    1.6877034    0.2497816  0.00   -0.0043723    0.0034915    0.0010434
c    -2.6724855    2.8189069    0.4578796  0.00    0.0065123   -0.0032397   -0.0011204
c    -5.0044148    2.2000180   -0.3211059  0.00    0.0007907    0.0006979   -0.0007476
h    -5.4295926    2.9990994    0.3273858  0.00   -0.0007195    0.0014270    0.0011877
h    -5.7340595    1.3653699   -0.3987319  0.00   -0.0007154   -0.0007632   -0.0001386
h    -4.8425852    2.6201407   -1.3390540  0.00    0.0002322    0.0008843   -0.0013898
n    -3.1870525    0.6277509   -0.6573216  0.00   -0.0022983   -0.0023350   -0.0051129
h    -3.8691875    1.2725303    1.2720164  0.00   -0.0002475   -0.0007026    0.0021765
h    -2.2203019    0.8421484   -1.0112089  0.00    0.0043307    0.0013865   -0.0017590
h    -3.1026211   -0.2729034   -0.1229356  0.00    0.0002928   -0.0037231    0.0030108
o    -1.7012689    2.7107725    1.4455401  0.00    0.0015869    0.0003085    0.0051356
o    -2.7053685    3.9538996   -0.3456347  0.00   -0.0107032    0.0062847    0.0096653
h    -2.1951707    3.7560700   -1.2030404  0.00    0.0053105   -0.0037169   -0.0119511
    13
 Energy =       0.0610702339
c    -3.6926453    1.6830275    0.2409404  0.00    0.0014867   -0.0011945   -0.0016763
c    -2.6940289    2.8035227    0.5201060  0.00   -0.0053708   -0.0029181    0.0056370
c    -5.0153084    2.2168643   -0.3089999  0.00   -0.0002461   -0.0005255    0.0005526
h    -5.4421177    2.9868739    0.3684269  0.00    0.0004002   -0.0004610   -0.0005477
h    -5.7427394    1.3855155   -0.4203030  0.00    0.0003124    0.0000885    0.0001137
h    -4.8531817    2.6749813   -1.3083385  0.00   -0.0001331   -0.0004158    0.0002802
n    -3.1938889    0.6763001   -0.7142499  0.00   -0.0041365    0.0041427    0.0011473
h    -3.8920466    1.2121468    1.2349553  0.00   -0.0001197    0.0000767    0.0001923
h    -2.2670227    0.9516254   -1.1242139  0.00    0.0030353   -0.0005689   -0.0014594
h    -3.0251730   -0.2295271   -0.2114645  0.00    0.0002286   -0.0026667    0.0008559
o    -1.7905590    2.6717945    1.5650693  0.00    0.0025800   -0.0013542   -0.0002794
o    -2.5996076    3.9117143   -0.3195420  0.00    0.0019373    0.0046758   -0.0092037
h    -2.1349174    3.6366673   -1.1688159  0.00    0.0000256    0.0011210    0.0043876
    13
 Energy =       0.0610759118
c    -3.6915768    1.6815615    0.2392966  0.00    0.0013372   -0.0010638   -0.0015015
c    -2.6948685    2.8031848    0.5206106  0.00   -0.0048391   -0.0026341    0.0050739
c    -5.0161108    2.2150994   -0.3066338  0.00   -0.0002177   -0.0004799    0.0005027
h    -5.4442373    2.9803985    0.3754287  0.00    0.0003514   -0.0003996   -0.0004794
h    -5.7416783    1.3826291   -0.4219092  0.00    0.0002767    0.0000706    0.0001036
h    -4.8558423    2.6792065   -1.3035969  0.00   -0.0001162   -0.0003639    0.0002340
n    -3.1922066    0.6794140   -0.7206021  0.00   -0.0037413    0.0037338    0.0009996
h    -3.8882826    1.2066604    1.2319335  0.00   -0.0001108    0.0000639    0.0001844
h    -2.2632621    0.9549450   -1.1252655  0.00    0.0027525   -0.0004979   -0.0013238
h    -3.0277880   -0.2298514   -0.2229275  0.00    0.0002101   -0.0024389    0.0007947
o    -1.7930778    2.6726513    1.5670541  0.00    0.0023269   -0.0012169   -0.0002505
o    -2.6031431    3.9130397   -0.3163745  0.00    0.0017137    0.0042395   -0.0082322
h    -2.1311624    3.6425675   -1.1634435  0.00    0.0000568    0.0009871    0.0038944
    13
 Energy =       0.0610807440
c    -3.6907306    1.6804155    0.2379759  0.00    0.0012036   -0.0009507   -0.0013469
c    -2.6954638    2.8029022    0.5208220  0.00   -0.0043587   -0.0023772    0.0045673
c    -5.0167108    2.2137302   -0.3048490  0.00   -0.0001936   -0.0004361    0.0004558
h    -5.4458461    2.9753435    0.3808129  0.00    0.0003111   -0.0003504   -0.0004230
h    -5.7408510    1.3804309   -0.4232582  0.00    0.0002462    0.0000581    0.0000941
h    -4.8578631    2.6825139   -1.2999223  0.00   -0.0001024   -0.0003210    0.0001997
n    -3.1909297    0.6817735   -0.7255333  0.00   -0.0033837    0.0033664    0.0008784
h    -3.8852951    1.2024746    1.2295677  0.00   -0.0001015    0.0000546    0.0001727
h    -2.2600691    0.9570672   -1.1255376  0.00    0.0024935   -0.0004373   -0.0011994
h    -3.0305457   -0.2302895   -0.2319700  0.00    0.0001923   -0.0022232    0.0007328
o    -1.7949500    2.6734051    1.5683859  0.00    0.0020973   -0.0010940   -0.0002250
o    -2.6061713    3.9141131   -0.3139350  0.00    0.0015185    0.0038394   -0.0073698
h    -2.1278105    3.6476262   -1.1589886  0.00    0.0000774    0.0008716    0.0034634
    13
 Energy =       0.0610847520
c    -3.6900601    1.6795027    0.2369003  0.00    0.0010837   -0.0008516   -0.0012095
c    -2.6958782    2.8026430    0.5208531  0.00   -0.0039251   -0.0021448    0.0041116
c    -5.0171578    2.2126743   -0.3035070  0.00   -0.0001728   -0.0003952    0.0004124
h    -5.4470776    2.9713729    0.3849870  0.00    0.0002768   -0.0003096   -0.0003754
h    -5.7402014    1.3787634   -0.4244342  0.00    0.0002198    0.0000489    0.0000852
h    -4.8593866    2.6851620   -1.2970578  0.00   -0.0000909   -0.0002848    0.0001729
n    -3.1899582    0.6835641   -0.7294072  0.00   -0.0030595    0.0030355    0.0007766
h    -3.8829240    1.1992389    1.2276908  0.00   -0.0000923    0.0000475    0.0001595
h    -2.2573526    0.9583500   -1.1253154  0.00    0.0022571   -0.0003853   -0.0010857
h    -3.0333060   -0.2307960   -0.2391829  0.00    0.0001755   -0.0020218    0.0006725
o    -1.7963313    2.6740160    1.5692576  0.00    0.0018895   -0.0009839   -0.0002024
o    -2.6087799    3.9149942   -0.3119918  0.00    0.0013478    0.0034737   -0.0066026
h    -2.1248230    3.6520210   -1.1552219  0.00    0.0000903    0.0007714    0.0030848
    13
 Energy =       0.0610880269
c    -3.6895298    1.6787669    0.2360164  0.00    0.0009760   -0.0007639   -0.0010868
c    -2.6961557    2.8023941    0.5207695  0.00   -0.0035341   -0.0019347    0.0037014
c    -5.0174874    2.2118681   -0.3025070  0.00   -0.0001545   -0.0003573    0.0003726
h    -5.4480229    2.9682487    0.3882329  0.00    0.0002472   -0.0002750   -0.0003343
h    -5.7396896    1.3775106   -0.4254820  0.00    0.0001967    0.0000419    0.0000771
h    -4.8605204    2.6873158   -1.2948218  0.00   -0.0000810   -0.0002537    0.0001514
n    -3.1892221    0.6849163   -0.7324700  0.00   -0.0027654    0.0027371    0.0006895
h    -3.8810463    1.1967214    1.2261907  0.00   -0.0000837    0.0000417    0.0001461
h    -2.2550368    0.9590295   -1.1247738  0.00    0.0020418   -0.0003404   -0.0009822
h    -3.0359939   -0.2313416   -0.2449727  0.00    0.0001598   -0.0018353    0.0006149
o    -1.7973333    2.6744833    1.5697954  0.00    0.0017019   -0.0008851   -0.0001823
o    -2.6110355    3.9157238   -0.3104082  0.00    0.0011979    0.0031405   -0.0059189
h    -2.1221630    3.6558694   -1.1519991  0.00    0.0000975    0.0006841    0.0027514
    13
 Energy =       0.0610906774
c    -3.6891117    1.6781690    0.2352856  0.00    0.0008790   -0.0006859   -0.0009770
c    -2.6963290    2.8021510    0.5206127  0.00   -0.0031817   -0.0017448    0.0033323
c    -5.0177261    2.2112614   -0.3017726  0.00   -0.0001383   -0.0003226    0.0003364
h    -5.4487474    2.9657929    0.3907568  0.00    0.0002213   -0.0002452   -0.0002986
h    -5.7392865    1.3765834   -0.4264272  0.00    0.0001762    0.0000364    0.0000697
h    -4.8613485    2.6890883   -1.2930790  0.00   -0.0000724   -0.0002265    0.0001336
n    -3.1886693    0.6859272   -0.7348996  0.00   -0.0024988    0.0024677    0.0006142
h    -3.8795646    1.1947580    1.2249867  0.00   -0.0000757    0.0000370    0.0001330
h    -2.2530584    0.9592719   -1.1240277  0.00    0.0018459   -0.0003014   -0.0008879
h    -3.0385679   -0.2319059   -0.2496371  0.00    0.0001452   -0.0016636    0.0005606
o    -1.7980405    2.6748209    1.5700877  0.00    0.0015325   -0.0007963   -0.0001642
o    -2.6129911    3.9163318   -0.3090960  0.00    0.0010662    0.0028374   -0.0053089
h    -2.1197958    3.6592566   -1.1492199  0.00    0.0001005    0.0006078    0.0024568
    13
 Energy =       0.0610928092
c    -3.6887835    1.6776805    0.2346786  0.00    0.0007916   -0.0006163   -0.0008786
c    -2.6964228    2.8019129    0.5204099  0.00   -0.0028642   -0.0015731    0.0030001
c    -5.0178943    2.2108134   -0.3012450  0.00   -0.0001239   -0.0002910    0.0003034
h    -5.4493002    2.9638683    0.3927143  0.00    0.0001985   -0.0002192   -0.0002672
h    -5.7389695    1.3759118   -0.4272859  0.00    0.0001581    0.0000319    0.0000630
h    -4.8619368    2.6905602   -1.2917257  0.00   -0.0000648   -0.0002027    0.0001185
n    -3.1882598    0.6866713   -0.7368292  0.00   -0.0022571    0.0022247    0.0005484
h    -3.8784011    1.1932272    1.2240181  0.00   -0.0000683    0.0000330    0.0001207
h    -2.2513651    0.9591980   -1.1231555  0.00    0.0016679   -0.0002673   -0.0008023
h    -3.0410053   -0.2324739   -0.2534023  0.00    0.0001318   -0.0015063    0.0005101
o    -1.7985183    2.6750478    1.5701988  0.00    0.0013798   -0.0007165   -0.0001479
o    -2.6146905    3.9168409   -0.3079956  0.00    0.0009500    0.0025623   -0.0047639
h    -2.1176896    3.6622481   -1.1468102  0.00    0.0001006    0.0005408    0.0021959
    13
 Energy =       0.0610945165
c    -3.6885273    1.6772797    0.2341725  0.00    0.0007129   -0.0005541   -0.0007903
c    -2.6964565    2.8016805    0.5201798  0.00   -0.0025781   -0.0014181    0.0027010
c    -5.0180081    2.2104913   -0.3008779  0.00   -0.0001112   -0.0002624    0.0002736
h    -5.4497188    2.9623670    0.3942258  0.00    0.0001782   -0.0001963   -0.0002394
h    -5.7387209    1.3754404   -0.4280689  0.00    0.0001419    0.0000281    0.0000569
h    -4.8623381    2.6917916   -1.2906808  0.00   -0.0000581   -0.0001817    0.0001056
n    -3.1879629    0.6872068   -0.7383615  0.00   -0.0020382    0.0020053    0.0004905
h    -3.8774929    1.1920367    1.2232379  0.00   -0.0000616    0.0000295    0.0001092
h    -2.2499127    0.9588982   -1.1222124  0.00    0.0015065   -0.0002376   -0.0007247
h    -3.0432949   -0.2330350   -0.2564447  0.00    0.0001195   -0.0013627    0.0004633
o    -1.7988184    2.6751835    1.5701772  0.00    0.0012422   -0.0006448   -0.0001333
o    -2.6161699    3.9172691   -0.3070640  0.00    0.0008474    0.0023128   -0.0042766
h    -2.1158155    3.6648967   -1.1447126  0.00    0.0000985    0.0004819    0.0019643
    13
 Energy =       0.0610958797
c    -3.6883288    1.6769496    0.2337492  0.00    0.0006420   -0.0004983   -0.0007111
c    -2.6964451    2.8014552    0.5199352  0.00   -0.0023206   -0.0012781    0.0024317
c    -5.0180799    2.2102684   -0.3006349  0.00   -0.0000998   -0.0002364    0.0002465
h    -5.4500322    2.9612031    0.3953851  0.00    0.0001602   -0.0001760   -0.0002148
h    -5.7385269    1.3751252   -0.4287842  0.00    0.0001275    0.0000250    0.0000513
h    -4.8625943    2.6928282   -1.2898803  0.00   -0.0000522   -0.0001630    0.0000944
n    -3.1877538    0.6875795   -0.7395766  0.00   -0.0018398    0.0018073    0.0004393
h    -3.8767893    1.1911152    1.2226095  0.00   -0.0000555    0.0000265    0.0000986
h    -2.2486645    0.9584404   -1.1212377  0.00    0.0013602   -0.0002115   -0.0006543
h    -3.0454324   -0.2335812   -0.2589036  0.00    0.0001083   -0.0012319    0.0004202
o    -1.7989820    2.6752463    1.5700593  0.00    0.0011182   -0.0005803   -0.0001201
o    -2.6174602    3.9176304   -0.3062695  0.00    0.0007566    0.0020867   -0.0038404
h    -2.1141474    3.6672461   -1.1428812  0.00    0.0000949    0.0004299    0.0017585
    13
 Energy =       0.0610969661
c    -3.6881763    1.6766772    0.2333941  0.00    0.0005781   -0.0004482   -0.0006398
c    -2.6964007    2.8012383    0.5196854  0.00   -0.0020886   -0.0011518    0.0021892
c    -5.0181195    2.2101230   -0.3004874  0.00   -0.0000896   -0.0002129    0.0002221
h    -5.4502632    2.9603080    0.3962665  0.00    0.0001440   -0.0001580   -0.0001928
h    -5.7383763    1.3749308   -0.4294379  0.00    0.0001145    0.0000222    0.0000463
h    -4.8627389    2.6937054   -1.2892732  0.00   -0.0000469   -0.0001463    0.0000845
n    -3.1876133    0.6878260   -0.7405380  0.00   -0.0016604    0.0016286    0.0003939
h    -3.8762491    1.1904066    1.2221034  0.00   -0.0000499    0.0000238    0.0000890
h    -2.2475897    0.9578764   -1.1202594  0.00    0.0012277   -0.0001885   -0.0005905
h    -3.0474184   -0.2341068   -0.2608904  0.00    0.0000980   -0.0011130    0.0003807
o    -1.7990418    2.6752519    1.5698735  0.00    0.0010066   -0.0005223   -0.0001082
o    -2.6185873    3.9179364   -0.3055879  0.00    0.0006761    0.0018822   -0.0034497
h    -2.1126622    3.6693333   -1.1412780  0.00    0.0000904    0.0003839    0.0015753
    13
 Energy =       0.0610975772
c    -3.6852797    1.6710429    0.2259273  0.00   -0.0007322    0.0007674    0.0010194
c    -2.6946987    2.7960568    0.5134685  0.00    0.0030943    0.0010233   -0.0028795
c    -5.0185027    2.2079923   -0.2986151  0.00    0.0002251    0.0002404   -0.0002611
h    -5.4544277    2.9432742    0.4128215  0.00   -0.0002903    0.0003748    0.0004381
h    -5.7354755    1.3723835   -0.4443726  0.00   -0.0002339   -0.0001614   -0.0000801
h    -4.8642331    2.7123501   -1.2779187  0.00    0.0001210    0.0003470   -0.0003326
n    -3.1854264    0.6915545   -0.7594974  0.00    0.0002993   -0.0012937   -0.0012866
h    -3.8660018    1.1769025    1.2119229  0.00    0.0000492   -0.0000332   -0.0000513
h    -2.2244035    0.9421048   -1.0962106  0.00    0.0000388    0.0011719    0.0001633
h    -3.0933651   -0.2466366   -0.3010006  0.00    0.0000653   -0.0004543    0.0006337
o    -1.7985913    2.6743038    1.5640680  0.00   -0.0014938    0.0008134    0.0001457
o    -2.6432446    3.9244337   -0.2908990  0.00   -0.0037342   -0.0009636    0.0083245
h    -2.0795865    3.7157438   -1.1061236  0.00    0.0025915   -0.0018320   -0.0058334
    13
 Energy =       0.0610909992
c    -3.6924846    1.6738267    0.2249575  0.00   -0.0013693    0.0012289    0.0021596
c    -2.6636802    2.7681294    0.5006496  0.00    0.0052710    0.0020796   -0.0044856
c    -5.0155002    2.2533875   -0.2828325  0.00    0.0001518    0.0006978   -0.0007310
h    -5.4223532    2.9976161    0.4376980  0.00   -0.0006714    0.0009694    0.0009662
h    -5.7590148    1.4399997   -0.4263971  0.00   -0.0007892   -0.0006586   -0.0002283
h    -4.8559934    2.7594299   -1.2607986  0.00    0.0001612    0.0005952   -0.0005549
n    -3.2342817    0.6804726   -0.7684586  0.00   -0.0007973   -0.0017194   -0.0028991
h    -3.8755870    1.1840494    1.2126566  0.00    0.0000048   -0.0000443   -0.0000130
h    -2.2598204    0.8907232   -1.0971284  0.00    0.0015208    0.0021757   -0.0001773
h    -3.1882962   -0.2665839   -0.3183770  0.00    0.0002937   -0.0025151    0.0015507
o    -1.7624185    2.6221032    1.5436169  0.00   -0.0020400    0.0013902    0.0005356
o    -2.5924172    3.8964197   -0.3002145  0.00   -0.0059498   -0.0012538    0.0132691
h    -2.0213893    3.6819329   -1.1118013  0.00    0.0042138   -0.0029456   -0.0093919
    13
 Energy =       0.0610837069
c    -3.7104531    1.6712209    0.2147569  0.00   -0.0009706    0.0002726    0.0015170
c    -2.6584550    2.7317659    0.5369826  0.00    0.0038173    0.0011662   -0.0035870
c    -5.0067249    2.2965754   -0.3094631  0.00   -0.0003712    0.0010110   -0.0005189
h    -5.4079202    3.0384954    0.4162201  0.00   -0.0005502    0.0008372    0.0007859
h    -5.7694069    1.5062605   -0.4830999  0.00   -0.0012595   -0.0011227   -0.0003080
h    -4.8132674    2.8159787   -1.2748183  0.00    0.0001351    0.0008854   -0.0010678
n    -3.2573711    0.6869163   -0.7895454  0.00   -0.0016405   -0.0006749   -0.0028352
h    -3.9284810    1.1652241    1.1879734  0.00   -0.0000850   -0.0005588    0.0006494
h    -2.2705470    0.8772974   -1.0934900  0.00    0.0020910    0.0020338   -0.0003834
h    -3.2461111   -0.2705425   -0.3586121  0.00    0.0002218   -0.0032320    0.0018345
o    -1.7854414    2.5384965    1.5979210  0.00   -0.0003006    0.0008257    0.0020466
o    -2.5321841    3.8722211   -0.2429486  0.00   -0.0044954    0.0009477    0.0094429
h    -1.9568734    3.6515967   -1.0483063  0.00    0.0034078   -0.0023911   -0.0075761
    13
 Energy =       0.0610895973
c    -3.7123310    1.6709184    0.2140150  0.00   -0.0008744    0.0002417    0.0013600
c    -2.6600667    2.7291107    0.5422730  0.00    0.0034346    0.0010413   -0.0032282
c    -5.0056429    2.2990122   -0.3135902  0.00   -0.0003406    0.0009103   -0.0004665
h    -5.4078157    3.0408385    0.4114784  0.00   -0.0004958    0.0007536    0.0007083
h    -5.7690147    1.5102468   -0.4902873  0.00   -0.0011383   -0.0010141   -0.0002775
h    -4.8083322    2.8188289   -1.2777938  0.00    0.0001221    0.0008004   -0.0009682
n    -3.2572603    0.6877935   -0.7903225  0.00   -0.0014854   -0.0006004   -0.0025576
h    -3.9348660    1.1634963    1.1854042  0.00   -0.0000790   -0.0005073    0.0005962
h    -2.2716339    0.8808715   -1.0959347  0.00    0.0018914    0.0018309   -0.0003481