    24
 Energy =       0.1964638814
c     1.6703672    2.6182922    0.2614132  0.00    0.0451506    0.0677804    0.0350433
c     0.3248649    2.9356558    0.1418766  0.00   -0.0082204    0.1015932    0.0371504
c    -0.5827484    1.9945952   -0.3219261  0.00   -0.0875789    0.0441777   -0.0015990
c     2.1038063    1.3347474   -0.0833024  0.00    0.0672114   -0.0109255    0.0083005
c     1.2047783    0.3610782   -0.5608861  0.00    0.0147399   -0.1004509   -0.0314595
c    -0.1441045    0.7159142   -0.6796715  0.00   -0.0286425   -0.0561709   -0.0352599
o    -0.1504797    4.1703171    0.4675790  0.00   -0.0617884   -0.0489089    0.0205800
h    -0.7850651    4.0755150    1.1967033  0.00    0.0570617   -0.0064715   -0.0492544
h    -0.8895274    0.0262790   -1.0546636  0.00    0.0006967   -0.0002042   -0.0107163
h     3.1621727    1.0964802    0.0165124  0.00    0.0028410   -0.0000087   -0.0007001
h     2.3926004    3.3457758    0.6178375  0.00    0.0097807   -0.0073343   -0.0008529
h    -1.6336796    2.2563998   -0.4108671  0.00   -0.0023798   -0.0009295    0.0014471
c     1.7669373   -1.0073413   -0.8964724  0.00   -0.0135157   -0.0241237    0.0292879
c     0.8861134   -2.0194266   -1.6556448  0.00    0.1000964    0.0028168   -0.0486287
h     2.1212937   -1.4658931    0.0371405  0.00   -0.0045405    0.0075269   -0.0136866
h     2.6645729   -0.8285312   -1.5058794  0.00   -0.0099449    0.0055746    0.0114462
c    -0.2550706   -2.4993401   -0.7313897  0.00   -0.0697343   -0.0250857    0.3417968
o    -0.1765299   -2.6781136    0.4736491  0.00   -0.0166256    0.0375981   -0.2887546
o    -1.3862936   -2.7453732   -1.4466837  0.00    0.1729276    0.2020287   -0.2930865
h    -2.0980363   -2.2244565   -0.9952926  0.00    0.0422101    0.0060914   -0.0217402
n     0.2410616   -1.4915667   -2.9017470  0.00   -0.1214556   -0.0121256   -0.0129729
h     1.4642165   -2.9122299   -1.9206526  0.00   -0.0112923    0.0156473   -0.0023151
h    -0.7513888   -1.7528500   -2.8797219  0.00   -0.0722075   -0.1687657    0.2965054
h     0.2327904   -0.4700704   -2.8568985  0.00   -0.0047896   -0.0293300    0.0294688
    24
 Energy =       0.1790845005
c     1.6897702    2.5862435    0.2811723  0.00    0.0384252    0.0577248    0.0298735
c     0.3510520    2.9129366    0.1794781  0.00   -0.0071274    0.0861739    0.0315265
c    -0.5649806    1.9813283   -0.2700288  0.00   -0.0746968    0.0375643   -0.0014968
c     2.1114885    1.3079631   -0.0725397  0.00    0.0572109   -0.0092147    0.0072078
c     1.2048623    0.3480408   -0.5438481  0.00    0.0124678   -0.0851289   -0.0264138
c    -0.1398564    0.7071396   -0.6357778  0.00   -0.0245233   -0.0476381   -0.0299737
o    -0.1004224    4.1606578    0.5063565  0.00   -0.0521543   -0.0414428    0.0167139
h    -0.7256611    4.0915300    1.2553211  0.00    0.0481548   -0.0053328   -0.0410766
h    -0.8923051    0.0226964   -1.0023866  0.00    0.0002409   -0.0005887   -0.0092444
h     3.1701475    1.0647264    0.0090489  0.00    0.0026057   -0.0000411   -0.0005628
h     2.4173389    3.3124719    0.6292878  0.00    0.0083574   -0.0061975   -0.0007029
h    -1.6147322    2.2511677   -0.3457751  0.00   -0.0021486   -0.0007709    0.0012041
c     1.7561071   -1.0162334   -0.9229064  0.00   -0.0115201   -0.0206738    0.0247651
c     0.8540172   -2.0128005   -1.6835840  0.00    0.0852557    0.0017219   -0.0413557
h     2.1331554   -1.4983587   -0.0068928  0.00   -0.0035697    0.0061035   -0.0111366
h     2.6389412   -0.8284835   -1.5550296  0.00   -0.0082065    0.0046648    0.0093890
c    -0.2738009   -2.5154299   -0.7646026  0.00   -0.0599920   -0.0208712    0.2915499
o    -0.1760010   -2.6912522    0.4638812  0.00   -0.0143235    0.0326615   -0.2457002
o    -1.4235205   -2.7540629   -1.4595146  0.00    0.1704693    0.1493577   -0.2672271
h    -2.0837150   -2.0657034   -1.1063773  0.00    0.0162440    0.0297088   -0.0061109
n     0.2101002   -1.4575123   -2.9147811  0.00   -0.1033576   -0.0102400   -0.0114004
h     1.4297720   -2.9040088   -1.9707563  0.00   -0.0094792    0.0131045   -0.0020755
h    -0.7836337   -1.7340654   -2.9026365  0.00   -0.0641402   -0.1459386    0.2572236
h     0.1945286   -0.4331336   -2.8560961  0.00   -0.0041925   -0.0247064    0.0250238
    24
 Energy =       0.1576359888
c     1.7077352    2.5927985    0.2257835  0.00    0.0314914    0.0479078    0.0250033
c     0.3767822    2.9275639    0.1269918  0.00   -0.0045638    0.0661833    0.0263100
c    -0.5513811    1.9857758   -0.2603576  0.00   -0.0625886    0.0293686   -0.0015353
c     2.1166572    1.3083705   -0.0942316  0.00    0.0478464   -0.0079108    0.0060295
c     1.2021038    0.3474481   -0.5276356  0.00    0.0104971   -0.0708846   -0.0222634
c    -0.1409691    0.7026359   -0.5920267  0.00   -0.0206788   -0.0402971   -0.0255194
o    -0.0402176    4.2172998    0.3564790  0.00   -0.0381818   -0.0272230    0.0071854
h    -0.6486432    4.2502831    1.1360539  0.00    0.0341582   -0.0036280   -0.0266374
h    -0.9019300    0.0047583   -0.9191490  0.00   -0.0005366   -0.0015457   -0.0080616
h     3.1758845    1.0642514   -0.0267914  0.00    0.0023106    0.0000739   -0.0004026
h     2.4437001    3.3337522    0.5253292  0.00    0.0076775   -0.0040042   -0.0002089
h    -1.5990434    2.2626635   -0.3344328  0.00   -0.0018507   -0.0006133    0.0009946
c     1.7422332   -1.0254217   -0.8960366  0.00   -0.0097998   -0.0172886    0.0205216
c     0.8325095   -2.0166603   -1.6577429  0.00    0.0709127    0.0012914   -0.0343522
h     2.1075491   -1.5068256    0.0276468  0.00   -0.0029667    0.0050027   -0.0091701
h     2.6325623   -0.8560014   -1.5262394  0.00   -0.0066737    0.0038688    0.0076938
c    -0.2874593   -2.5329331   -0.7484227  0.00   -0.0498022   -0.0169052    0.2420616
o    -0.1777434   -2.7173884    0.5025741  0.00   -0.0116475    0.0269932   -0.2040577
o    -1.4424454   -2.7903472   -1.4344650  0.00    0.1491631    0.1206544   -0.2289935
h    -2.1407511   -2.1758944   -1.0178415  0.00    0.0082430    0.0306980   -0.0025371
n     0.1983844   -1.4528765   -2.8869434  0.00   -0.0853397   -0.0085040   -0.0092985
h     1.4113578   -2.9076267   -1.9487813  0.00   -0.0078702    0.0108792   -0.0017380
h    -0.7946617   -1.7534316   -2.8946612  0.00   -0.0561957   -0.1240335    0.2180386
h     0.1604380   -0.4263366   -2.8240874  0.00   -0.0036041   -0.0200832    0.0209374
    24
 Energy =       0.1439389800
c     1.6982358    2.5795456    0.2610007  0.00    0.0277403    0.0421004    0.0218902
c     0.3664326    2.9051488    0.1865107  0.00   -0.0031440    0.0560131    0.0222680
c    -0.5539310    1.9699344   -0.2243236  0.00   -0.0550424    0.0256815   -0.0015584
c     2.1138926    1.3089705   -0.0915985  0.00    0.0423076   -0.0074094    0.0052840
c     1.2048391    0.3537369   -0.5371394  0.00    0.0090940   -0.0623937   -0.0193978
c    -0.1383722    0.7007096   -0.5874265  0.00   -0.0181639   -0.0359392   -0.0224845
o    -0.0629251    4.1790058    0.4937900  0.00   -0.0329968   -0.0201321    0.0047676
h    -0.6522945    4.1560025    1.2948071  0.00    0.0281698   -0.0033309   -0.0206832
h    -0.8968771    0.0058320   -0.9267047  0.00   -0.0005270   -0.0016000   -0.0071629
h     3.1750107    1.0705432   -0.0363996  0.00    0.0021282   -0.0000215   -0.0003629
h     2.4274113    3.3180249    0.5824417  0.00    0.0068153   -0.0032171   -0.0000685
h    -1.6045679    2.2401984   -0.2795307  0.00   -0.0018227   -0.0003492    0.0009008
c     1.7528470   -1.0068664   -0.9442299  0.00   -0.0087925   -0.0155525    0.0178461
c     0.8358855   -1.9922118   -1.7061108  0.00    0.0624502    0.0009684   -0.0301880
h     2.1406010   -1.5048627   -0.0367047  0.00   -0.0024332    0.0041180   -0.0076984
h     2.6286574   -0.8170496   -1.5914079  0.00   -0.0055740    0.0034052    0.0064166
c    -0.2811366   -2.5155366   -0.8022408  0.00   -0.0439385   -0.0146807    0.2132236
o    -0.1630851   -2.7052156    0.4619227  0.00   -0.0102036    0.0238765   -0.1796307
o    -1.4458270   -2.7678075   -1.4790396  0.00    0.1395155    0.1012689   -0.2087643
h    -2.1684322   -2.2373362   -0.9861662  0.00    0.0001183    0.0330225    0.0027609
n     0.2101334   -1.4144989   -2.9307030  0.00   -0.0751203   -0.0075730   -0.0082515
h     1.4141417   -2.8830197   -2.0040978  0.00   -0.0069168    0.0095580   -0.0015452
h    -0.7837235   -1.7206993   -2.9488027  0.00   -0.0504656   -0.1103099    0.1939539
h     0.1657363   -0.3866908   -2.8568340  0.00   -0.0031979   -0.0175035    0.0184843
    24
 Energy =       0.1234870547
c     1.6888908    2.5714268    0.2812469  0.00    0.0213710    0.0320557    0.0166249
c     0.3582667    2.8855355    0.2379706  0.00   -0.0019402    0.0415734    0.0161219
c    -0.5553091    1.9559102   -0.1821054  0.00   -0.0420184    0.0198300   -0.0014510
c     2.1097896    1.3175467   -0.1009536  0.00    0.0325276   -0.0061592    0.0041056
c     1.2056887    0.3680770   -0.5481817  0.00    0.0070408   -0.0477911   -0.0145182
c    -0.1369617    0.7025180   -0.5730459  0.00   -0.0139605   -0.0277061   -0.0171942
o    -0.0765336    4.1452347    0.6087594  0.00   -0.0243889   -0.0128728    0.0009077
h    -0.6213282    4.0849640    1.4478364  0.00    0.0196260   -0.0028443   -0.0120846
h    -0.8942678    0.0068088   -0.9136831  0.00   -0.0005166   -0.0015495   -0.0056117
h     3.1732595    1.0868974   -0.0645118  0.00    0.0018296   -0.0001522   -0.0002825
h     2.4117553    3.3106357    0.6137968  0.00    0.0051903   -0.0023450    0.0000135
h    -1.6089689    2.2181818   -0.2133561  0.00   -0.0017040   -0.0000521    0.0007036
c     1.7592971   -0.9813890   -0.9902170  0.00   -0.0067324   -0.0121216    0.0134810
c     0.8338365   -1.9613028   -1.7514772  0.00    0.0478850    0.0002545   -0.0230530
h     2.1653237   -1.4940229   -0.0961950  0.00   -0.0017087    0.0029412   -0.0056405
h     2.6230061   -0.7766701   -1.6524425  0.00   -0.0040866    0.0026155    0.0046480
c    -0.2767829   -2.4993516   -0.8570352  0.00   -0.0338805   -0.0106794    0.1630375
o    -0.1440592   -2.6986903    0.4297671  0.00   -0.0075906    0.0184476   -0.1371483
o    -1.4520304   -2.7625776   -1.5201031  0.00    0.1325006    0.0687402   -0.1843805
h    -2.2118140   -2.3960893   -0.9166536  0.00   -0.0228089    0.0374102    0.0206978
n     0.2224334   -1.3693647   -2.9726767  0.00   -0.0572736   -0.0058442   -0.0061844
h     1.4151155   -2.8510651   -2.0556764  0.00   -0.0052691    0.0072936   -0.0012178
h    -0.7719565   -1.6880316   -3.0100494  0.00   -0.0415320   -0.0879604    0.1540941
h     0.1660014   -0.3393241   -2.8900012  0.00   -0.0025600   -0.0130840    0.0143310
    24
 Energy =       0.1044529359
c     1.6880766    2.5638502    0.2884035  0.00    0.0140322    0.0204514    0.0106121
c     0.3604497    2.8679103    0.2857790  0.00   -0.0014092    0.0261430    0.0097573
c    -0.5516560    1.9439682   -0.1282285  0.00   -0.0270921    0.0131408   -0.0012042
c     2.1081975    1.3267125   -0.1231549  0.00    0.0211895   -0.0044506    0.0028308
c     1.2039113    0.3839140   -0.5605284  0.00    0.0050508   -0.0308736   -0.0090021
c    -0.1367396    0.7060025   -0.5460835  0.00   -0.0092329   -0.0178207   -0.0111113
o    -0.0700642    4.1178595    0.7044072  0.00   -0.0121516   -0.0062024   -0.0085684
h    -0.5251515    4.0422106    1.6065895  0.00    0.0084418   -0.0027619    0.0018904
h    -0.8963923    0.0084763   -0.8762609  0.00   -0.0004099   -0.0011010   -0.0037917
h     3.1735994    1.1029332   -0.1144913  0.00    0.0015814   -0.0002743   -0.0001735
h     2.4089741    3.3049109    0.6194610  0.00    0.0033337   -0.0015089    0.0000529
h    -1.6074291    2.1997150   -0.1276834  0.00   -0.0016161    0.0002142    0.0004630
c     1.7541831   -0.9587157   -1.0322495  0.00   -0.0042071   -0.0078536    0.0085662
c     0.8153993   -1.9303986   -1.7919942  0.00    0.0309053   -0.0002046   -0.0147956
h     2.1722005   -1.4849358   -0.1487855  0.00   -0.0009841    0.0017717   -0.0034733
h     2.6094176   -0.7482297   -1.7070008  0.00   -0.0025621    0.0016658    0.0028456
c    -0.2840815   -2.4911076   -0.9057701  0.00   -0.0217951   -0.0060101    0.1040524
o    -0.1296797   -2.7003883    0.4066383  0.00   -0.0042849    0.0116825   -0.0876679
o    -1.4703902   -2.7797464   -1.5482014  0.00    0.1025878    0.0441031   -0.1386177
h    -2.2368840   -2.5547845   -0.8860218  0.00   -0.0281684    0.0296745    0.0240028
n     0.2189807   -1.3224473   -3.0087118  0.00   -0.0365831   -0.0036640   -0.0036758
h     1.4003681   -2.8182657   -2.1051393  0.00   -0.0033427    0.0046466   -0.0008346
h    -0.7755174   -1.6538548   -3.0707966  0.00   -0.0314755   -0.0626617    0.1083482
h     0.1528798   -0.2897312   -2.9191641  0.00   -0.0018076   -0.0081061    0.0094941
    24
 Energy =       0.0928710612
c     1.6818081    2.5564038    0.3050253  0.00    0.0088291    0.0129693    0.0065345
c     0.3563788    2.8508225    0.3349088  0.00   -0.0013233    0.0159303    0.0063356
c    -0.5543063    1.9315489   -0.0767484  0.00   -0.0170920    0.0086020   -0.0007090
c     2.1016414    1.3350556   -0.1376886  0.00    0.0134945   -0.0032751    0.0018102
c     1.1974934    0.3975923   -0.5710689  0.00    0.0036252   -0.0194758   -0.0054135
c    -0.1416779    0.7074799   -0.5213753  0.00   -0.0060116   -0.0111615   -0.0069564
o    -0.0726553    4.0910580    0.7882397  0.00   -0.0008177   -0.0004137   -0.0271008
h    -0.3817362    4.0158580    1.7653427  0.00   -0.0016036   -0.0044325    0.0225623
h    -0.9028033    0.0086671   -0.8441869  0.00   -0.0003168   -0.0006889   -0.0024446
h     3.1683041    1.1186331   -0.1542432  0.00    0.0013266   -0.0003407   -0.0001246
h     2.4015007    3.2983595    0.6355397  0.00    0.0020907   -0.0009428    0.0000656
h    -1.6111606    2.1808414   -0.0490840  0.00   -0.0013859    0.0003568    0.0003380
c     1.7460251   -0.9360668   -1.0728734  0.00   -0.0025379   -0.0050128    0.0052519
c     0.7976046   -1.8995254   -1.8340714  0.00    0.0194912   -0.0002943   -0.0093016
h     2.1759009   -1.4757055   -0.2012630  0.00   -0.0005075    0.0009812   -0.0020072
h     2.5930211   -0.7159150   -1.7571650  0.00   -0.0015306    0.0010289    0.0016459
c    -0.2887048   -2.4858538   -0.9512907  0.00   -0.0133870   -0.0028967    0.0642914
o    -0.1110308   -2.7065826    0.3764059  0.00   -0.0022740    0.0070008   -0.0542924
o    -1.4815679   -2.8059736   -1.5730150  0.00    0.0774098    0.0285143   -0.1021336
h    -2.2374249   -2.7103227   -0.8718899  0.00   -0.0282808    0.0214265    0.0237910
n     0.2094270   -1.2756592   -3.0443888  0.00   -0.0225288   -0.0022491   -0.0021966
h     1.3869413   -2.7826814   -2.1592531  0.00   -0.0020206    0.0028333   -0.0005841
h    -0.7818407   -1.6199329   -3.1314672  0.00   -0.0234276   -0.0437280    0.0745324
h     0.1315143   -0.2422437   -2.9433767  0.00   -0.0012214   -0.0047316    0.0061056
    24
 Energy =       0.0925228464
c     1.6074743    2.5660345    0.3834831  0.00    0.0083595    0.0133899    0.0066027
c     0.2742463    2.8231778    0.4225446  0.00   -0.0014209    0.0145710    0.0069501
c    -0.6112452    1.8902644   -0.0116629  0.00   -0.0168410    0.0085993   -0.0004396
c     2.0601362    1.3714567   -0.0998692  0.00    0.0133720   -0.0036550    0.0015335
c     1.1815166    0.4220455   -0.5595121  0.00    0.0035672   -0.0182744   -0.0051176
c    -0.1663561    0.6890351   -0.4882953  0.00   -0.0063502   -0.0108509   -0.0066578
o    -0.1911541    4.0389195    0.9082454  0.00    0.0011060    0.0043366   -0.0398910
h    -0.3747712    3.9574518    1.9240958  0.00   -0.0038581   -0.0069530    0.0351412
h    -0.9091817   -0.0255400   -0.8207511  0.00   -0.0006154   -0.0007415   -0.0026324
h     3.1331025    1.1872770   -0.1300209  0.00    0.0019154   -0.0005803   -0.0001959
h     2.3073184    3.3186578    0.7328978  0.00    0.0021926   -0.0005005    0.0002455
h    -1.6749007    2.1092011    0.0283840  0.00   -0.0018620    0.0006147    0.0004129
c     1.7712832   -0.8732065   -1.1180902  0.00   -0.0024117   -0.0057636    0.0045607
c     0.8537265   -1.8495096   -1.8999818  0.00    0.0183411   -0.0000813   -0.0088025
h     2.2352076   -1.4273749   -0.2721127  0.00   -0.0001769    0.0000757   -0.0012867
h     2.5995999   -0.5954724   -1.8073570  0.00   -0.0001235    0.0013659    0.0003786
c    -0.2073501   -2.5003140   -1.0325210  0.00   -0.0109695   -0.0022442    0.0608968
o    -0.0172282   -2.7549350    0.2896434  0.00   -0.0028482    0.0059343   -0.0503545
o    -1.3787364   -2.8776653   -1.6654633  0.00    0.0716250    0.0256842   -0.0969415
h    -2.1409590   -2.8214686   -0.9683247  0.00   -0.0278330    0.0203190    0.0231291
n     0.2418783   -1.2165259   -3.0929027  0.00    0.0003010   -0.0138799   -0.0056445
h     1.4755597   -2.7024971   -2.2494002  0.00   -0.0012924    0.0016370   -0.0009143
h    -0.6989185   -1.6907843   -3.2474198  0.00   -0.0384436   -0.0512631    0.0684067
h     0.0124036   -0.2023699   -2.9145966  0.00   -0.0057335    0.0182600    0.0106205
    24
 Energy =       0.0896425552
c     1.5589385    2.5315142    0.4849372  0.00    0.0087448    0.0130027    0.0064940
c     0.2252483    2.7909431    0.4741055  0.00   -0.0006256    0.0129779    0.0072815
c    -0.6424231    1.8783512   -0.0353200  0.00   -0.0162636    0.0060856   -0.0010798
c     2.0293244    1.3567861   -0.0273602  0.00    0.0128226   -0.0020451    0.0019788
c     1.1687013    0.4270896   -0.5584907  0.00    0.0025123   -0.0163634   -0.0048394
c    -0.1809229    0.6942437   -0.5355365  0.00   -0.0068266   -0.0104067   -0.0061649
o    -0.2617394    3.9891733    0.9835462  0.00    0.0021113    0.0071948   -0.0474228
h    -0.3243397    3.9258614    2.0197261  0.00   -0.0040608   -0.0083753    0.0426557
h    -0.9121511   -0.0058824   -0.9252754  0.00   -0.0018761   -0.0018260   -0.0029654
h     3.1030712    1.1725668   -0.0224684  0.00    0.0024148   -0.0001801    0.0000595
h     2.2454088    3.2696984    0.8916509  0.00    0.0031437    0.0008567    0.0009146
h    -1.7069169    2.0991469   -0.0328829  0.00   -0.0024384    0.0003245    0.0001892
c     1.7826567   -0.8410465   -1.1544381  0.00   -0.0028457   -0.0059155    0.0035573
c     0.8759133   -1.8281608   -1.9350465  0.00    0.0156921   -0.0001264   -0.0075471
h     2.2751277   -1.4004389   -0.3271647  0.00    0.0000626   -0.0003805   -0.0007351
h     2.5918338   -0.5272552   -1.8521642  0.00    0.0004952    0.0013728   -0.0003024
c    -0.1770874   -2.4893578   -1.0651330  0.00   -0.0094379   -0.0017565    0.0521261
o     0.0302446   -2.7539292    0.2570150  0.00   -0.0023700    0.0049866   -0.0430248
o    -1.3527964   -2.8751068   -1.6857070  0.00    0.0631547    0.0220752   -0.0850180
h    -2.1011786   -2.8640521   -0.9751227  0.00   -0.0253324    0.0176545    0.0210777
n     0.2663763   -1.2021727   -3.1330053  0.00    0.0008038   -0.0125725   -0.0050418
h     1.5078617   -2.6755864   -2.2805895  0.00   -0.0010708    0.0013487   -0.0007970
h    -0.6839579   -1.6571424   -3.2786103  0.00   -0.0336538   -0.0445767    0.0592601
h     0.0654592   -0.1793860   -2.9756533  0.00   -0.0051561    0.0166449    0.0093438
    24
 Energy =       0.0824663130
c     1.4991115    2.4899500    0.5903056  0.00    0.0060248    0.0104338    0.0052262
c     0.1662277    2.7418257    0.5521457  0.00    0.0006395    0.0086413    0.0061054
c    -0.6774365    1.8508538   -0.0279750  0.00   -0.0116235    0.0031298   -0.0013278
c     1.9921078    1.3473510    0.0329884  0.00    0.0092269   -0.0009139    0.0015725
c     1.1546597    0.4390841   -0.5642079  0.00    0.0004890   -0.0112530   -0.0034140
c    -0.1949128    0.6958782   -0.5688315  0.00   -0.0049505   -0.0083664   -0.0046117
o    -0.3462430    3.9135222    1.1018337  0.00    0.0015685    0.0091786   -0.0434376
h    -0.2847905    3.8765763    2.1374784  0.00   -0.0026410   -0.0078709    0.0400489
h    -0.9101030    0.0094759   -1.0113625  0.00   -0.0021898   -0.0024562   -0.0026372
h     3.0664454    1.1712305    0.0570528  0.00    0.0018723    0.0000895    0.0001725
h     2.1678486    3.2137740    1.0504040  0.00    0.0028997    0.0018893    0.0013426
h    -1.7426134    2.0650661   -0.0466616  0.00   -0.0018805    0.0000785    0.0000375
c     1.7949689   -0.7918541   -1.2106672  0.00   -0.0026835   -0.0050949    0.0014910
c     0.8962488   -1.7873486   -1.9906504  0.00    0.0101443    0.0000029   -0.0051236
h     2.3236499   -1.3587609   -0.4096335  0.00    0.0004710   -0.0009768    0.0001505
h     2.5780889   -0.4349183   -1.9186941  0.00    0.0011902    0.0011999   -0.0011520
c    -0.1330345   -2.4782218   -1.1130534  0.00   -0.0064339    0.0001928    0.0318495
o     0.1220040   -2.7750239    0.2048768  0.00   -0.0008720    0.0022567   -0.0254289
o    -1.3228466   -2.8776840   -1.7000980  0.00    0.0502469    0.0152791   -0.0660023
h    -2.0300028   -2.9825328   -0.9564020  0.00   -0.0251691    0.0111162    0.0222567
n     0.2815004   -1.1587513   -3.1845863  0.00    0.0014545   -0.0089529   -0.0033938
h     1.5415776   -2.6217819   -2.3450203  0.00   -0.0005452    0.0007116   -0.0005634
h    -0.6806147   -1.5833828   -3.3216647  0.00   -0.0235932   -0.0304079    0.0404151
h     0.1208107   -0.1284701   -3.0465646  0.00   -0.0036453    0.0120928    0.0064238
    24
 Energy =       0.0792792967
c     1.4363065    2.4406818    0.6944294  0.00    0.0055773    0.0104037    0.0057789
c     0.1039321    2.6897542    0.6209358  0.00    0.0018060    0.0073704    0.0066312
c    -0.7139815    1.8239485   -0.0314984  0.00   -0.0108672    0.0016482   -0.0021345
c     1.9535934    1.3288194    0.0983728  0.00    0.0087132    0.0000200    0.0019227
c     1.1410396    0.4452657   -0.5676748  0.00   -0.0007099   -0.0097490   -0.0031892
c    -0.2084937    0.6966216   -0.6073645  0.00   -0.0048305   -0.0084269   -0.0046963
o    -0.4374058    3.8334004    1.2052235  0.00   -0.0015483    0.0110871   -0.0470313
h    -0.2626934    3.8343759    2.2305955  0.00    0.0005700   -0.0081610    0.0439133
h    -0.9057706    0.0270194   -1.1040968  0.00   -0.0028549   -0.0033829   -0.0031457
h     3.0279785    1.1579056    0.1470835  0.00    0.0019737    0.0003324    0.0003529
h     2.0866487    3.1457672    1.2091572  0.00    0.0033473    0.0029230    0.0020283
h    -1.7791355    2.0346902   -0.0769663  0.00   -0.0019928   -0.0001131   -0.0001349
c     1.8099510   -0.7438871   -1.2640894  0.00   -0.0031783   -0.0055007    0.0002642
c     0.9234929   -1.7514525   -2.0426881  0.00    0.0083785    0.0001796   -0.0044276
h     2.3785193   -1.3143244   -0.4917916  0.00    0.0009457   -0.0016816    0.0007973
h     2.5627852   -0.3402385   -1.9814133  0.00    0.0019875    0.0014827   -0.0020269
c    -0.0758623   -2.4727296   -1.1523706  0.00   -0.0060031    0.0016512    0.0234621
o     0.2405639   -2.8283303    0.1434798  0.00    0.0006286    0.0003268   -0.0161843
o    -1.2892610   -2.8579360   -1.7011322  0.00    0.0428641    0.0123883   -0.0581205
h    -1.9578923   -3.0183207   -0.9343963  0.00   -0.0231217    0.0088140    0.0211765
n     0.2867448   -1.1238010   -3.2269038  0.00    0.0025444   -0.0082261   -0.0033074
h     1.5829890   -2.5690493   -2.4111686  0.00   -0.0002261    0.0003375   -0.0005084
h    -0.6916076   -1.5173622   -3.3353928  0.00   -0.0209449   -0.0254353    0.0327915
h     0.1702108   -0.0849607   -3.1093177  0.00   -0.0030584    0.0117118    0.0057882
    24
 Energy =       0.0767389554
c     1.4110960    2.4350127    0.7185326  0.00    0.0049265    0.0089552    0.0050902
c     0.0807097    2.6875088    0.6243489  0.00    0.0017190    0.0062707    0.0058976
c    -0.7249603    1.8334905   -0.0562493  0.00   -0.0094727    0.0011888   -0.0020458
c     1.9377077    1.3314772    0.1173389  0.00    0.0075692    0.0001077    0.0017003
c     1.1364455    0.4578088   -0.5727906  0.00   -0.0006070   -0.0084374   -0.0027714
c    -0.2107420    0.7137866   -0.6370137  0.00   -0.0044554   -0.0072911   -0.0040697
o    -0.4725045    3.8221785    1.2162444  0.00   -0.0019811    0.0099398   -0.0425623
h    -0.2498710    3.8544221    2.2290180  0.00    0.0011359   -0.0072780    0.0397639
h    -0.9000063    0.0512560   -1.1528280  0.00   -0.0026386   -0.0030214   -0.0027374
h     3.0105687    1.1577796    0.1841233  0.00    0.0018557    0.0003104    0.0003389
h     2.0531597    3.1312215    1.2543408  0.00    0.0030189    0.0026754    0.0018502
h    -1.7887798    2.0461338   -0.1179385  0.00   -0.0018386   -0.0001238   -0.0001532
c     1.8156196   -0.7261758   -1.2669520  0.00   -0.0026286   -0.0044314    0.0002572
c     0.9357167   -1.7520922   -2.0295199  0.00    0.0071287   -0.0002365   -0.0035327
h     2.3947585   -1.2846806   -0.4940643  0.00    0.0008691   -0.0014761    0.0007561
h     2.5592975   -0.3183627   -1.9907186  0.00    0.0017275    0.0013072   -0.0017373
c    -0.0733406   -2.4568469   -1.1365866  0.00   -0.0031104    0.0050078    0.0108752
o     0.1794545   -2.6695772    0.2155257  0.00    0.0065128   -0.0007485    0.0030406
o    -1.2365807   -2.9524880   -1.7202783  0.00    0.0293671    0.0081698   -0.0571894
h    -1.9187894   -3.1309854   -0.9727514  0.00   -0.0203835    0.0074181    0.0182924
n     0.3136133   -1.1507865   -3.2347714  0.00    0.0021408   -0.0069641   -0.0034873
h     1.5997035   -2.5772404   -2.3731505  0.00   -0.0000431    0.0000297   -0.0005075
h    -0.6579576   -1.5553666   -3.3550281  0.00   -0.0181585   -0.0216610    0.0279689
h     0.1883334   -0.1116166   -3.1378190  0.00   -0.0026536    0.0102887    0.0049624
    24
 Energy =       0.0742842111
c     1.3593455    2.4206265    0.7519526  0.00    0.0035217    0.0079585    0.0046580
c     0.0243938    2.6509417    0.6662963  0.00    0.0018820    0.0047232    0.0053050
c    -0.7623331    1.8068195   -0.0458548  0.00   -0.0078638    0.0014902   -0.0014945
c     1.9083001    1.3512139    0.1103925  0.00    0.0064812   -0.0004738    0.0010294
c     1.1250615    0.4868500   -0.6090724  0.00   -0.0016777   -0.0066956   -0.0022553
c    -0.2258174    0.7193396   -0.6660173  0.00   -0.0032856   -0.0067025   -0.0038499
o    -0.5548628    3.7532926    1.2968602  0.00   -0.0043005    0.0102959   -0.0381830
h    -0.2599425    3.8176872    2.2870151  0.00    0.0026855   -0.0064377    0.0362009
h    -0.9015805    0.0600068   -1.2022016  0.00   -0.0021671   -0.0028478   -0.0024640
h     2.9845766    1.1975605    0.1691345  0.00    0.0017289    0.0000601    0.0001703
h     1.9877366    3.1093503    1.3119922  0.00    0.0024165    0.0025182    0.0017195
h    -1.8300537    2.0004780   -0.1001542  0.00   -0.0016553    0.0000847   -0.0000343
c     1.8279136   -0.6515862   -1.3557968  0.00   -0.0032972   -0.0033516   -0.0001027
c     0.9539361   -1.7260232   -2.0596758  0.00    0.0078241   -0.0006263   -0.0014417
h     2.4878585   -1.1826742   -0.6239308  0.00    0.0033628   -0.0033373    0.0032240
h     2.5022682   -0.1976994   -2.1237485  0.00    0.0040945    0.0029256   -0.0040611
c     0.0175062   -2.4574191   -1.1055627  0.00   -0.0001698    0.0050281    0.0084028
o     0.3382076   -2.6218198    0.2412994  0.00    0.0062235   -0.0012356    0.0068452
o    -1.1425138   -3.0333149   -1.6219922  0.00    0.0211396    0.0043008   -0.0492508
h    -1.7707588   -3.2588573   -0.8416364  0.00   -0.0198638    0.0045887    0.0174005
n     0.2558959   -1.1711105   -3.2500108  0.00    0.0019467   -0.0034253   -0.0070119
h     1.6359369   -2.5301717   -2.4187677  0.00    0.0005125   -0.0003359   -0.0002002
h    -0.7212457   -1.5796615   -3.3078553  0.00   -0.0176393   -0.0179604    0.0209391
h     0.1428232   -0.1279710   -3.1916533  0.00   -0.0018993    0.0094554    0.0044547
    24
 Energy =       0.0720926667
c     1.3302659    2.3739603    0.8355551  0.00    0.0030659    0.0069752    0.0042790
c    -0.0030145    2.6076329    0.7316678  0.00    0.0020607    0.0040091    0.0048667
c    -0.7755790    1.7840071   -0.0183231  0.00   -0.0068449    0.0009848   -0.0016279
c     1.8904850    1.3219421    0.1766269  0.00    0.0057501   -0.0001243    0.0011022
c     1.1206790    0.4781381   -0.5797903  0.00   -0.0015827   -0.0059436   -0.0020780
c    -0.2280666    0.7138884   -0.6572182  0.00   -0.0029631   -0.0058463   -0.0033460
o    -0.5968259    3.6917862    1.3816301  0.00   -0.0050905    0.0092475   -0.0345197
h    -0.2529643    3.7926390    2.3505163  0.00    0.0036103   -0.0055320    0.0328802
h    -0.8934164    0.0705026   -1.2250079  0.00   -0.0022532   -0.0027730   -0.0023501
h     2.9651112    1.1649806    0.2526403  0.00    0.0016138    0.0001494    0.0002394
h     1.9491954    3.0461121    1.4252962  0.00    0.0023082    0.0025315    0.0017657
h    -1.8419786    1.9794968   -0.0876009  0.00   -0.0015092    0.0000001   -0.0000976
c     1.8351676   -0.6450533   -1.3372350  0.00   -0.0026022   -0.0020536    0.0007221
c     0.9717101   -1.6878233   -2.1026669  0.00    0.0071860   -0.0015327   -0.0011117
h     2.4664827   -1.2035736   -0.6008863  0.00    0.0032182   -0.0029456    0.0033288
h     2.5372088   -0.1760105   -2.0704580  0.00    0.0040133    0.0029383   -0.0040449
c     0.0069904   -2.4500496   -1.1989006  0.00   -0.0000724    0.0038761    0.0071406
o     0.2899629   -2.6517242    0.1516478  0.00    0.0054344   -0.0013270    0.0073959
o    -1.1386186   -3.0145734   -1.7598349  0.00    0.0173094    0.0030424   -0.0429280
h    -1.7710950   -3.2881271   -1.0003895  0.00   -0.0176655    0.0033652    0.0160845
n     0.3122206   -1.0833500   -3.2913597  0.00    0.0021487   -0.0022131   -0.0077141
h     1.6579481   -2.4831651   -2.4731226  0.00    0.0003541   -0.0004297   -0.0003820
h    -0.6712983   -1.4659877   -3.3830422  0.00   -0.0158115   -0.0151287    0.0169530
h     0.2220815   -0.0397909   -3.2087322  0.00   -0.0016781    0.0087299    0.0034416
    24
 Energy =       0.0701807096
c     1.2957158    2.3259331    0.9184121  0.00    0.0022863    0.0060188    0.0038449
c    -0.0383910    2.5532406    0.8103005  0.00    0.0022583    0.0031535    0.0043449