    27
 Energy =       0.8963774312
c    -1.4235396    2.6054793   -0.0667700  0.00   -0.0463394    0.0383993    0.0027658
c    -1.3072796    1.2134697   -0.1072300  0.00   -0.0852642   -0.0325849    0.0020260
c    -0.0178900    0.6711998   -0.1697000  0.00   -0.0887700   -0.1879160   -0.0011802
c    -0.2940599    3.4190890   -0.0891300  0.00   -0.0230187    0.0691492    0.0029429
c     0.9872197    2.8590292   -0.1560400  0.00    0.0107329    0.0642640    0.0010613
c     1.1340797    1.4562096   -0.1970299  0.00    0.0531515    0.0514079    0.0020555
n     0.3879399   -0.6395298   -0.2140799  0.00    0.1427163    0.1099015   -0.0029768
c     2.2666594    0.5727398   -0.2659299  0.00    0.1405600   -0.0573452   -0.0205301
c     1.7555995   -0.7123598   -0.2706899  0.00   -0.0940948   -0.0976887    0.0035031
h    -0.2400399   -1.4313496   -0.2047299  0.00    0.0367244    0.0479557   -0.0006151
c     3.7030089    1.0223397   -0.3320099  0.00    1.2397908    1.0044039    0.0419787
c     4.7465686   -0.0024900    0.1378100  0.00   -0.0988806    0.1636819    0.0050959
h     3.7978489    1.9290294    0.2803699  0.00    2.5766864    0.4364526   -1.1914719
h     3.9233889    1.3348996   -1.3618196  0.00    0.1110726    0.0800699    0.1211482
c     6.0911583    0.7171698    0.3515799  0.00    0.3356330   -0.1066396    0.1174327
n     4.9813086   -1.1161597   -0.8485798  0.00    0.0354739   -0.0820746   -0.0342556
h     4.4627987   -0.4486599    1.0982597  0.00    0.0075599   -0.0115484   -0.0275474
h     4.8172486   -1.9976894   -0.3514999  0.00   -0.0052432    0.0383964   -0.0110806
h     4.2259388   -1.0808397   -1.5421496  0.00    0.0130685    0.0077584    0.0361446
h    -2.4108593    3.0588691   -0.0157800  0.00   -0.0006796    0.0001789    0.0000228
h    -2.1896094    0.5822398   -0.0890100  0.00   -0.0035793    0.0038103    0.0000574
h    -0.4052699    4.5000487   -0.0535400  0.00    0.0008615   -0.0000063    0.0002617
h     1.8590495    3.5066790   -0.1715100  0.00   -0.0010866    0.0028038    0.0006234
h     2.2327294   -1.6813195   -0.3062999  0.00   -0.0369598   -0.0109388    0.0010594
o     7.1078880    0.2061599    0.7909508  0.00   -0.2429787    0.1228134   -0.1097207
o     6.0134283    2.0241194   -0.0177607  0.00   -0.1379540   -0.0583360   -0.0182994
h     5.0733186    2.1528494   -0.3079899  0.00   -3.8391828   -1.5963686    1.0794986
    27
 Energy =       0.8472784733
c    -1.4134059    2.6062980   -0.0770482  0.00   -0.0431707    0.0357973    0.0025532
c    -1.2989539    1.2165030   -0.1154519  0.00   -0.0794645   -0.0303568    0.0018627
c    -0.0139541    0.6731182   -0.1776137  0.00   -0.0826834   -0.1751109   -0.0011877
c    -0.2838401    3.4167859   -0.1004207  0.00   -0.0214536    0.0644551    0.0027213
c     0.9939302    2.8548497   -0.1664627  0.00    0.0100113    0.0599113    0.0009670
c     1.1349379    1.4553064   -0.2059314  0.00    0.0495175    0.0479393    0.0018853
n     0.3851459   -0.6430366   -0.2167621  0.00    0.1329104    0.1023953   -0.0026767
c     2.2629139    0.5768245   -0.2742269  0.00    0.1310616   -0.0534913   -0.0191359
c     1.7568409   -0.7073386   -0.2827221  0.00   -0.0875821   -0.0909775    0.0031849
h    -0.2434822   -1.4373082   -0.2020130  0.00    0.0342102    0.0446950   -0.0005582
c     3.7007473    1.0224828   -0.3383900  0.00    1.1566603    0.9383013    0.0397569
c     4.7293358   -0.0061420    0.1437013  0.00   -0.0929536    0.1519906    0.0049581
h     3.8022079    1.9212402    0.2605000  0.00    2.4085812    0.4069520   -1.1127627
h     3.9257292    1.3163584   -1.3721550  0.00    0.1039003    0.0745697    0.1129770
c     6.0573985    0.7156914    0.4289047  0.00    0.3106870   -0.1016016    0.1094627
n     4.9984071   -1.0923596   -0.8632499  0.00    0.0340279   -0.0762798   -0.0325646
h     4.4096497   -0.4770250    1.0842581  0.00    0.0065053   -0.0110398   -0.0246241
h     4.8278242   -1.9918064   -0.3972159  0.00   -0.0051642    0.0347649   -0.0098914
h     4.2691105   -1.0443624   -1.5867180  0.00    0.0111335    0.0070776    0.0326836
h    -2.3999732    3.0613118   -0.0264929  0.00   -0.0006250    0.0001901   -0.0000064
h    -2.1816169    0.5858452   -0.0954591  0.00   -0.0033362    0.0035712    0.0000326
h    -0.3929656    4.4980427   -0.0662943  0.00    0.0008184    0.0000119    0.0002149
h     1.8679103    3.4996166   -0.1827352  0.00   -0.0009918    0.0026186    0.0005541
h     2.2463228   -1.6699646   -0.3247673  0.00   -0.0343268   -0.0102274    0.0009521
o     7.0712131    0.1670084    0.8634693  0.00   -0.2258539    0.1136080   -0.1024722
o     5.9832838    2.0494129    0.1409924  0.00   -0.1010419   -0.0483439   -0.0015378
h     5.0839155    2.1538702   -0.3300039  0.00   -3.6113772   -1.4914204    0.9926511
    27
 Energy =       0.7557355313
c    -1.4066090    2.5889445   -0.0091030  0.00   -0.0369218    0.0306809    0.0021675
c    -1.2897110    1.2041834   -0.0531023  0.00   -0.0680946   -0.0260447    0.0015856
c    -0.0106783    0.6644867   -0.1146324  0.00   -0.0708476   -0.1494396   -0.0006439
c    -0.2805110    3.3984226   -0.0309022  0.00   -0.0183904    0.0552109    0.0023028
c     0.9926380    2.8388558   -0.1000377  0.00    0.0086345    0.0513357    0.0007853
c     1.1287872    1.4463618   -0.1415025  0.00    0.0421551    0.0412745    0.0015218
n     0.3812018   -0.6594268   -0.1851169  0.00    0.1137766    0.0871188   -0.0027047
c     2.2528603    0.5846559   -0.2239719  0.00    0.1115200   -0.0456814   -0.0163464
c     1.7618677   -0.6999440   -0.2477816  0.00   -0.0753896   -0.0772373    0.0030250
h    -0.2442160   -1.4624772   -0.1856922  0.00    0.0292284    0.0380909   -0.0006070
c     3.6877064    1.0400435   -0.3342295  0.00    1.0024026    0.8171156    0.0395310
c     4.7358479   -0.0055666    0.0784104  0.00   -0.0789915    0.1318555    0.0057730
h     3.7964272    1.9219327    0.2136596  0.00    2.0826750    0.3474643   -0.9669976
h     3.8502429    1.3694126   -1.3682564  0.00    0.0876016    0.0651378    0.0953279
c     6.0621606    0.7080146    0.3581562  0.00    0.2662980   -0.0869613    0.0937633
n     4.9740849   -1.0456323   -0.9796095  0.00    0.0310628   -0.0657391   -0.0302099
h     4.4473720   -0.5138407    1.0142329  0.00    0.0055203   -0.0098617   -0.0198058
h     4.8245093   -1.9738700   -0.5559690  0.00   -0.0046614    0.0275461   -0.0075980
h     4.2333263   -0.9629060   -1.6936666  0.00    0.0088479    0.0061502    0.0269271
h    -2.3938350    3.0424158    0.0416054  0.00   -0.0005364    0.0001647   -0.0000059
h    -2.1705255    0.5707571   -0.0415251  0.00   -0.0028890    0.0030338    0.0000172
h    -0.3905558    4.4795797    0.0050998  0.00    0.0007018    0.0000121    0.0001823
h     1.8671679    3.4826979   -0.1189445  0.00   -0.0008353    0.0022257    0.0004603
h     2.2765532   -1.6480934   -0.3232506  0.00   -0.0290135   -0.0095334    0.0007799
o     7.0836691    0.1307369    0.8027712  0.00   -0.1936437    0.0968295   -0.0876599
o     6.0108146    2.0466786    0.0763996  0.00   -0.0858242   -0.0413189   -0.0008715
h     5.0980372    2.1748000   -0.3633496  0.00   -3.1243857   -1.2894298    0.8593004
    27
 Energy =       0.5561841469
c    -1.3544254    2.6227283   -0.0412167  0.00   -0.0205464    0.0166606    0.0012232
c    -1.2571747    1.2495943   -0.0921426  0.00   -0.0380134   -0.0148666    0.0010468
c    -0.0045655    0.6950057   -0.1477402  0.00   -0.0380041   -0.0828404    0.0010971
c    -0.2210610    3.4068111   -0.0533993  0.00   -0.0107026    0.0306661    0.0012381
c     1.0304106    2.8277351   -0.1158505  0.00    0.0048291    0.0289551    0.0003349
c     1.1274290    1.4505974   -0.1599991  0.00    0.0229893    0.0233554    0.0009129
n     0.3369223   -0.6564795   -0.2398306  0.00    0.0622724    0.0475028   -0.0037123
c     2.2233675    0.6040708   -0.2300757  0.00    0.0627588   -0.0249402   -0.0092871
c     1.7407937   -0.6720658   -0.2631840  0.00   -0.0418720   -0.0422007    0.0030542
h    -0.3054686   -1.4619780   -0.2677404  0.00    0.0158038    0.0208770   -0.0008980
c     3.6707769    1.0420380   -0.3354255  0.00    0.6479104    0.5329817    0.0233004
c     4.6918380   -0.0136012    0.1381761  0.00   -0.0457499    0.0785939    0.0040545
h     3.7929415    1.9377697    0.2265298  0.00    1.3501587    0.2260708   -0.6233426
h     3.8768993    1.3063769   -1.3880064  0.00    0.0581746    0.0400598    0.0579419
c     6.0306085    0.6785856    0.3636789  0.00    0.1445267   -0.0519569    0.0554690
n     4.8849102   -1.1045478   -0.8655790  0.00    0.0208644   -0.0389005   -0.0198528
h     4.3914666   -0.4462506    1.1160803  0.00    0.0021640   -0.0065814   -0.0083775
h     4.7252335   -2.0187084   -0.3972159  0.00   -0.0032706    0.0140507   -0.0028298
h     4.1784350   -1.0372787   -1.6255920  0.00    0.0025110    0.0035868    0.0138826
h    -2.3347303    3.0915298    0.0047494  0.00   -0.0004684    0.0001062    0.0000088
h    -2.1449908    0.6257510   -0.0932849  0.00   -0.0016992    0.0015260   -0.0000079
h    -0.3121685    4.4899460   -0.0147657  0.00    0.0003311    0.0002014    0.0001062
h     1.9195404    3.4515862   -0.1275528  0.00   -0.0001060    0.0013171    0.0002653
h     2.2954537   -1.5998184   -0.3228030  0.00   -0.0143437   -0.0056113    0.0001881
o     7.0849033    0.0319155    0.8115311  0.00   -0.1073130    0.0516040   -0.0502136
o     6.0733916    2.0131927    0.0080835  0.00   -0.0397157   -0.0163418   -0.0012715
h     5.1378956    2.2067173   -0.3677334  0.00   -2.0334893   -0.8338756    0.5556689
    27
 Energy =       0.5011358585
c    -1.3422989    2.6251489   -0.0163711  0.00   -0.0172049    0.0137521    0.0010167
c    -1.2484729    1.2532838   -0.0359484  0.00   -0.0314640   -0.0128120    0.0007206
c    -0.0019575    0.6957904   -0.1027670  0.00   -0.0307951   -0.0666667    0.0002167
c    -0.2086283    3.4047461   -0.0667898  0.00   -0.0084447    0.0256386    0.0010938
c     1.0372783    2.8215513   -0.1400209  0.00    0.0041772    0.0242530    0.0003934
c     1.1267570    1.4470291   -0.1557355  0.00    0.0192146    0.0196015    0.0008242
n     0.3309204   -0.6652236   -0.1383434  0.00    0.0495302    0.0377382   -0.0020969
c     2.2166210    0.6047392   -0.2291047  0.00    0.0522739   -0.0200445   -0.0075913
c     1.7386353   -0.6711300   -0.2265825  0.00   -0.0325335   -0.0342036    0.0017902
h    -0.3127558   -1.4750557   -0.1089873  0.00    0.0113810    0.0151379   -0.0004377
c     3.6633357    1.0421260   -0.3611644  0.00    0.5444705    0.4480854    0.0195122
c     4.6917696   -0.0154077    0.1039935  0.00   -0.0380146    0.0652837    0.0032568
h     3.7895868    1.9427083    0.1964812  0.00    1.1332052    0.1897287   -0.5237243
h     3.8551180    1.3106731   -1.4156424  0.00    0.0488396    0.0338160    0.0486674
c     6.0355697    0.6713439    0.3079163  0.00    0.1192740   -0.0426954    0.0458434
n     4.8585862   -1.1140544   -0.8922153  0.00    0.0208034   -0.0298521   -0.0156234
h     4.4061661   -0.4353573    1.0928769  0.00    0.0017278   -0.0053574   -0.0065934
h     4.6300771   -2.0233394   -0.4348131  0.00   -0.0039609    0.0080768   -0.0006074
h     4.1908714   -1.0044855   -1.6867170  0.00   -0.0006170    0.0038438    0.0088697
h    -2.3206081    3.0971151    0.0387516  0.00   -0.0004762    0.0000417    0.0000079
h    -2.1367582    0.6301172    0.0015855  0.00   -0.0019883    0.0007305    0.0000188
h    -0.2960871    4.4889931   -0.0507327  0.00    0.0003725    0.0004539    0.0000916
h     1.9281533    3.4421482   -0.1834604  0.00    0.0003209    0.0014290    0.0002107
h     2.3020610   -1.5931944   -0.2894507  0.00   -0.0113384   -0.0047208   -0.0000724
o     7.0989117    0.0140553    0.7574262  0.00   -0.0884560    0.0424522   -0.0414246
o     6.0916276    2.0073781   -0.0443794  0.00   -0.0324421   -0.0135435   -0.0008875
h     5.1541534    2.2195236   -0.4001139  0.00   -1.7078549   -0.7001668    0.4665246
    27
 Energy =       0.4861919311
c    -1.3290126    2.6413309   -0.0010075  0.00   -0.0163656    0.0131420    0.0009636
c    -1.2454786    1.2700677   -0.0501930  0.00   -0.0296755   -0.0124987    0.0006806
c    -0.0037800    0.7046663   -0.1172722  0.00   -0.0289597   -0.0616810    0.0003873
c    -0.1892188    3.4126358   -0.0250394  0.00   -0.0077525    0.0244534    0.0010025
c     1.0520864    2.8212960   -0.0989387  0.00    0.0040024    0.0232614    0.0003482
c     1.1303480    1.4472916   -0.1425368  0.00    0.0182344    0.0187590    0.0007531
n     0.3152488   -0.6587711   -0.2032994  0.00    0.0468724    0.0342570   -0.0021689
c     2.2132327    0.5994920   -0.2296668  0.00    0.0496394   -0.0179703   -0.0071223
c     1.7253222   -0.6718108   -0.2724926  0.00   -0.0306209   -0.0323685    0.0016683
h    -0.3365543   -1.4642989   -0.2104008  0.00    0.0100504    0.0133291   -0.0004577
c     3.6632927    1.0291818   -0.3519315  0.00    0.5137662    0.4232053    0.0184772
c     4.6893053   -0.0283332    0.1255509  0.00   -0.0367967    0.0618472    0.0030004
h     3.7929815    1.9299376    0.2088267  0.00    1.0695103    0.1790714   -0.4941690
h     3.8591365    1.2955662   -1.4068250  0.00    0.0461034    0.0318664    0.0458386
c     6.0371963    0.6549174    0.3171291  0.00    0.1123441   -0.0402017    0.0432038
n     4.8497743   -1.1442827   -0.8514533  0.00    0.0381620   -0.0182766   -0.0075826
h     4.4056631   -0.4315650    1.1220512  0.00    0.0015534   -0.0049062   -0.0058676
h     4.4713240   -2.0313249   -0.4245417  0.00   -0.0119971   -0.0080383    0.0083789
h     4.2930825   -0.9574310   -1.7288408  0.00   -0.0117078    0.0090528   -0.0078673
h    -2.3042053    3.1197215    0.0541311  0.00   -0.0004811    0.0000496    0.0000091
h    -2.1389940    0.6527929   -0.0396534  0.00   -0.0021604    0.0003701    0.0000159
h    -0.2683140    4.4972333    0.0124550  0.00    0.0003926    0.0007104    0.0000913
h     1.9478990    3.4359976   -0.1227268  0.00    0.0004595    0.0015350    0.0001913
h     2.2803907   -1.5949456   -0.3723176  0.00   -0.0090027   -0.0054872   -0.0001705
o     7.1044563   -0.0068723    0.7612286  0.00   -0.0832855    0.0399850   -0.0390373
o     6.1003456    1.9894910   -0.0414279  0.00   -0.0304752   -0.0127172   -0.0008224
h     5.1631044    2.2092389   -0.3911160  0.00   -1.6118100   -0.6607495    0.4402555
    27
 Energy =       0.4227489998
c    -1.3184244    2.6452203    0.0196445  0.00   -0.0122705    0.0096478    0.0007291
c    -1.2386917    1.2757182    0.0074046  0.00   -0.0217648   -0.0098093    0.0003071
c    -0.0042754    0.7063911   -0.0671608  0.00   -0.0209252   -0.0437541   -0.0004474
c    -0.1785909    3.4105901   -0.0460049  0.00   -0.0051836    0.0182961    0.0008473
c     1.0559121    2.8139702   -0.1276369  0.00    0.0031371    0.0175779    0.0004272
c     1.1255767    1.4432246   -0.1353515  0.00    0.0136243    0.0140413    0.0006869
n     0.3057499   -0.6666308   -0.0966153  0.00    0.0336826    0.0234784   -0.0007777
c     2.2014812    0.5999981   -0.2176744  0.00    0.0366364   -0.0121083   -0.0050776
c     1.7192277   -0.6714908   -0.2107614  0.00   -0.0219918   -0.0235987    0.0006161
h    -0.3465676   -1.4755739   -0.0516477  0.00    0.0059943    0.0079955   -0.0000507
c     3.6502494    1.0300303   -0.3756675  0.00    0.3934622    0.3239034    0.0141590
c     4.6897988   -0.0276160    0.0822964  0.00   -0.0268396    0.0456120    0.0022493
h     3.7833434    1.9433127    0.1739521  0.00    0.8166885    0.1373943   -0.3783743
h     3.8261317    1.2962755   -1.4346647  0.00    0.0353914    0.0246815    0.0351174
c     6.0412545    0.6518653    0.2531855  0.00    0.0816190   -0.0290230    0.0320240
n     4.8249863   -1.1387440   -0.8989333  0.00    0.0290195   -0.0127417   -0.0057698
h     4.4232415   -0.4283502    1.0856460  0.00    0.0011253   -0.0036002   -0.0041067
h     4.4848954   -2.0346275   -0.4621246  0.00   -0.0092624   -0.0068146    0.0067541
h     4.2430482   -0.9652506   -1.7605509  0.00   -0.0088759    0.0068009   -0.0065475
h    -2.2911474    3.1277450    0.0810748  0.00   -0.0004202   -0.0000015    0.0000063
h    -2.1324440    0.6600449    0.0570736  0.00   -0.0021615   -0.0002980    0.0000317
h    -0.2534805    4.4963221   -0.0361521  0.00    0.0004068    0.0009416    0.0000749
h     1.9532780    3.4245405   -0.1852878  0.00    0.0007999    0.0015249    0.0001349
h     2.2849629   -1.5905574   -0.2901821  0.00   -0.0068398   -0.0043364   -0.0001653
o     7.1246080   -0.0280615    0.6786699  0.00   -0.0602640    0.0287510   -0.0288015
o     6.1195688    1.9901878   -0.0940800  0.00   -0.0221583   -0.0093460   -0.0005363
h     5.1849401    2.2326889   -0.4287600  0.00   -1.2326297   -0.5052146    0.3364893
    27
 Energy =       0.3610577623
c    -1.3087099    2.6510745    0.0363463  0.00   -0.0081983    0.0062145    0.0005066
c    -1.2323354    1.2844446    0.0645370  0.00   -0.0139727   -0.0070157    0.0000204
c    -0.0053282    0.7102508   -0.0140882  0.00   -0.0134283   -0.0275162   -0.0008829
c    -0.1694964    3.4086426   -0.0725904  0.00   -0.0027609    0.0121846    0.0006547
c     1.0579588    2.8058553   -0.1582352  0.00    0.0021891    0.0119450    0.0004412
c     1.1198089    1.4392594   -0.1247945  0.00    0.0089905    0.0091561    0.0005803
n     0.2963448   -0.6691658    0.0031634  0.00    0.0214408    0.0139898    0.0000460
c     2.1890475    0.5999949   -0.1977955  0.00    0.0234965   -0.0067510   -0.0031348
c     1.7128422   -0.6696291   -0.1391668  0.00   -0.0143885   -0.0155203   -0.0000147
h    -0.3559601   -1.4785325    0.0900123  0.00    0.0029612    0.0039573    0.0001979
c     3.6357413    1.0292938   -0.3954396  0.00    0.2750001    0.2254553    0.0099913
c     4.6920982   -0.0219254    0.0487993  0.00   -0.0176615    0.0301815    0.0016104
h     3.7701617    1.9644480    0.1315105  0.00    0.5677232    0.0971889   -0.2644193
h     3.7912307    1.2806666   -1.4622886  0.00    0.0251239    0.0175515    0.0244995
c     6.0539027    0.6496282    0.1692472  0.00    0.0487057   -0.0159173    0.0215017
n     4.7858948   -1.1457572   -0.9185350  0.00    0.0206231   -0.0068764   -0.0043349
h     4.4531077   -0.4019655    1.0684071  0.00    0.0006137   -0.0024144   -0.0019484
h     4.4956980   -2.0434022   -0.4523267  0.00   -0.0069113   -0.0064056    0.0056473
h     4.1666807   -1.0016438   -1.7579988  0.00   -0.0067103    0.0045372   -0.0061055
h    -2.2787432    3.1384477    0.1007677  0.00   -0.0003144   -0.0000181    0.0000038
h    -2.1257865    0.6723209    0.1507751  0.00   -0.0018729   -0.0007154    0.0000496
h    -0.2404925    4.4946764   -0.0944942  0.00    0.0003876    0.0011479    0.0000440
h     1.9559321    3.4112397   -0.2509884  0.00    0.0010123    0.0014216    0.0000700
h     2.2889091   -1.5845818   -0.1935208  0.00   -0.0044610   -0.0031934   -0.0001564
o     7.1666162   -0.0610550    0.5199168  0.00   -0.0340519    0.0157998   -0.0186919
o     6.1471152    1.9933616   -0.1596951  0.00   -0.0138774   -0.0061172   -0.0003863
h     5.2163943    2.2652764   -0.4718331  0.00   -0.8596583   -0.3522701    0.2342104
    27
 Energy =       0.3581282990
c    -1.3107670    2.6484474    0.0423348  0.00   -0.0080375    0.0060953    0.0004969
c    -1.2318959    1.2825718    0.0889833  0.00   -0.0136062   -0.0069757    0.0000230
c    -0.0046316    0.7093260    0.0109039  0.00   -0.0130944   -0.0267029   -0.0008712
c    -0.1735925    3.4061825   -0.0839934  0.00   -0.0025937    0.0119607    0.0006288
c     1.0540837    2.8042088   -0.1692657  0.00    0.0021512    0.0117750    0.0004243
c     1.1184591    1.4382735   -0.1172171  0.00    0.0087983    0.0089441    0.0005596
n     0.2992909   -0.6693291    0.0495300  0.00    0.0208970    0.0134179    0.0000593
c     2.1889180    0.6000805   -0.1844641  0.00    0.0228905   -0.0063899   -0.0030598
c     1.7150482   -0.6692827   -0.1023124  0.00   -0.0140838   -0.0152345   -0.0000121
h    -0.3509989   -1.4785307    0.1540857  0.00    0.0027302    0.0036405    0.0002197
c     3.6338798    1.0309659   -0.3978397  0.00    0.2674963    0.2191784    0.0096194
c     4.7001912   -0.0145684    0.0402703  0.00   -0.0178884    0.0300164    0.0016417
h     3.7609120    1.9777181    0.1102591  0.00    0.5522138    0.0946777   -0.2570843
h     3.7808491    1.2726266   -1.4677913  0.00    0.0244919    0.0171396    0.0237856
c     6.0688567    0.6530586    0.1114664  0.00    0.0428363   -0.0124238    0.0202023
n     4.7664462   -1.1559629   -0.9090903  0.00    0.0201187   -0.0068969   -0.0049600
h     4.4857665   -0.3753719    1.0725334  0.00    0.0004885   -0.0024507   -0.0013638
h     4.4817031   -2.0451559   -0.4237640  0.00   -0.0068595   -0.0065560    0.0056661
h     4.1366556   -1.0207717   -1.7421054  0.00   -0.0066257    0.0043614   -0.0061097
h    -2.2811795    3.1351318    0.1062018  0.00   -0.0003076   -0.0000144    0.0000036
h    -2.1236970    0.6701937    0.1899398  0.00   -0.0018987   -0.0007870    0.0000576
h    -0.2464779    4.4917788   -0.1202977  0.00    0.0003977    0.0012288    0.0000372
h     1.9500801    3.4101935   -0.2760867  0.00    0.0010608    0.0014637    0.0000606
h     2.2915476   -1.5842596   -0.1439373  0.00   -0.0043266   -0.0032102   -0.0001609
o     7.2043811   -0.0738277    0.3611637  0.00   -0.0272681    0.0119804   -0.0169810
o     6.1506069    2.0024654   -0.1950033  0.00   -0.0134353   -0.0057443   -0.0004551
h     5.2141970    2.2750608   -0.4848122  0.00   -0.8365457   -0.3424937    0.2275723
    27
 Energy =       0.3539345787
c    -1.3085727    2.6514677    0.0326818  0.00   -0.0078905    0.0059820    0.0004875
c    -1.2323163    1.2850887    0.0665297  0.00   -0.0133096   -0.0068947    0.0000278
c    -0.0058750    0.7104836   -0.0114786  0.00   -0.0128128   -0.0260590   -0.0008444
c    -0.1695167    3.4083614   -0.0811759  0.00   -0.0024892    0.0117463    0.0006070
c     1.0574114    2.8050605   -0.1660204  0.00    0.0021168    0.0115887    0.0004076
c     1.1187726    1.4388436   -0.1267825  0.00    0.0086316    0.0087662    0.0005398
n     0.2952325   -0.6695188    0.0114478  0.00    0.0204419    0.0130121    0.0000545
c     2.1875643    0.5999403   -0.1972250  0.00    0.0223925   -0.0061502   -0.0029974
c     1.7120892   -0.6695918   -0.1323207  0.00   -0.0138072   -0.0149629   -0.0000014
h    -0.3570096   -1.4789640    0.1024946  0.00    0.0025800    0.0034375    0.0002270
c     3.6341604    1.0290107   -0.3979719  0.00    0.2613765    0.2141779    0.0092204
c     4.6914687   -0.0198686    0.0501500  0.00   -0.0181431    0.0299104    0.0016065
h     3.7683200    1.9677005    0.1251231  0.00    0.5400277    0.0925794   -0.2511550
h     3.7892728    1.2755408   -1.4662736  0.00    0.0239464    0.0167836    0.0232003
c     6.0554270    0.6512405    0.1678780  0.00    0.0375602   -0.0093677    0.0184720
n     4.7832125   -1.1475013   -0.9137758  0.00    0.0196655   -0.0069447   -0.0054652
h     4.4523616   -0.3957200    1.0723060  0.00    0.0003689   -0.0024719   -0.0008906
h     4.4988200   -2.0445749   -0.4427133  0.00   -0.0068010   -0.0066037    0.0056273
h     4.1602145   -1.0093713   -1.7512770  0.00   -0.0065095    0.0042326   -0.0060284
h    -2.2784337    3.1392490    0.0964864  0.00   -0.0003027   -0.0000134    0.0000037
h    -2.1256727    0.6732691    0.1567247  0.00   -0.0018983   -0.0008177    0.0000616
h    -0.2403201    4.4944036   -0.1076186  0.00    0.0003999    0.0012555    0.0000333
h     1.9553502    3.4100011   -0.2626671  0.00    0.0010792    0.0014723    0.0000549
h     2.2893326   -1.5842098   -0.1827480  0.00   -0.0042087   -0.0031934   -0.0001645
o     7.1757944   -0.0638693    0.5199168  0.00   -0.0210690    0.0084006   -0.0148007
o     6.1504489    1.9948847   -0.1641776  0.00   -0.0130404   -0.0053247   -0.0005230
h     5.2210957    2.2698671   -0.4778213  0.00   -0.8183050   -0.3345411    0.2222393
    27
 Energy =       0.3373393983
c    -1.3058002    2.6532841    0.0210043  0.00   -0.0069127    0.0052383    0.0004269
c    -1.2314835    1.2874568    0.0527481  0.00   -0.0116571   -0.0060424    0.0000269
c    -0.0067528    0.7112918   -0.0250559  0.00   -0.0112161   -0.0228102   -0.0007283
c    -0.1658444    3.4080624   -0.0907389  0.00   -0.0021820    0.0102901    0.0005300
c     1.0594967    2.8030031   -0.1747726  0.00    0.0018556    0.0101536    0.0003539
c     1.1177773    1.4378354   -0.1373811  0.00    0.0075633    0.0076819    0.0004694
n     0.2915211   -0.6702786   -0.0074842  0.00    0.0178998    0.0113811    0.0000350
c     2.1843896    0.5996758   -0.2074611  0.00    0.0196198   -0.0053790   -0.0026270
c     1.7098898   -0.6692785   -0.1474014  0.00   -0.0120798   -0.0131069    0.0000113
h    -0.3617422   -1.4798383    0.0786968  0.00    0.0022483    0.0029955    0.0001986
c     3.6315487    1.0267040   -0.4038988  0.00    0.2306060    0.1891115    0.0078069
c     4.6827363   -0.0223068    0.0554259  0.00   -0.0165263    0.0267596    0.0013482
h     3.7743988    1.9616789    0.1292562  0.00    0.4777266    0.0817442   -0.2216364
h     3.7908427    1.2721204   -1.4726868  0.00    0.0210919    0.0147982    0.0204061
c     6.0409081    0.6519791    0.2157712  0.00    0.0277371   -0.0051190    0.0137682
n     4.7976413   -1.1389874   -0.9178109  0.00    0.0172921   -0.0061910   -0.0052670
h     4.4210244   -0.4087322    1.0687009  0.00    0.0002181   -0.0021965   -0.0004385
h     4.5281757   -2.0441623   -0.4544361  0.00   -0.0061162   -0.0060387    0.0050238
h     4.1723369   -1.0080359   -1.7539188  0.00   -0.0057329    0.0037444   -0.0053041
h    -2.2749443    3.1424922    0.0844309  0.00   -0.0002665   -0.0000116    0.0000034
h    -2.1256433    0.6768249    0.1404507  0.00   -0.0016655   -0.0007197    0.0000547
h    -0.2348910    4.4941230   -0.1158544  0.00    0.0003502    0.0011022    0.0000288
h     1.9587949    3.4059863   -0.2694811  0.00    0.0009501    0.0012908    0.0000470
h     2.2910196   -1.5819771   -0.1997894  0.00   -0.0036043   -0.0028150   -0.0001516
o     7.1371600   -0.0489498    0.6786699  0.00   -0.0121021    0.0034008   -0.0100128
o     6.1572375    1.9884425   -0.1444208  0.00   -0.0112735   -0.0041823   -0.0005395
h     5.2388348    2.2728089   -0.4828712  0.00   -0.7238244   -0.2950801    0.1961661
    27
 Energy =       0.2946635483
c    -1.3040641    2.6492563    0.0049561  0.00   -0.0040412    0.0030239    0.0002626
c    -1.2288882    1.2863805    0.0639904  0.00   -0.0066287   -0.0037497   -0.0000520
c    -0.0076413    0.7091245   -0.0132782  0.00   -0.0064503   -0.0130296   -0.0005895
c    -0.1662986    3.3999037   -0.1331187  0.00   -0.0010190    0.0060607    0.0003559
c     1.0558147    2.7929955   -0.2152644  0.00    0.0010878    0.0060675    0.0002749
c     1.1118909    1.4320369   -0.1496791  0.00    0.0043681    0.0043686    0.0003295
n     0.2889146   -0.6749162    0.0270969  0.00    0.0101648    0.0062231    0.0001355
c     2.1756571    0.5992238   -0.2099185  0.00    0.0111769   -0.0027619   -0.0014383
c     1.7098856   -0.6682950   -0.1209685  0.00   -0.0069783   -0.0076397   -0.0000940
h    -0.3623277   -1.4852999    0.1322063  0.00    0.0011040    0.0014504    0.0001594
c     3.6201722    1.0253449   -0.4246922  0.00    0.1487103    0.1219420    0.0042343
c     4.6740316   -0.0152890    0.0459401  0.00   -0.0101248    0.0162291    0.0007108
h     3.7769584    1.9683724    0.1068045  0.00    0.3124746    0.0537873   -0.1435989
h     3.7718864    1.2559784   -1.4996278  0.00    0.0136221    0.0095461    0.0128719
c     6.0256815    0.6620517    0.2451853  0.00    0.0088260    0.0006378    0.0029806
n     4.8074371   -1.1239465   -0.9301666  0.00    0.0123336   -0.0013801   -0.0027716
h     4.3932377   -0.4065342    1.0526690  0.00   -0.0000142   -0.0011676    0.0000142
h     4.6035629   -2.0415922   -0.4575652  0.00   -0.0046947   -0.0065140    0.0044523
h     4.1459918   -1.0310569   -1.7425855  0.00   -0.0048085    0.0027985   -0.0050446
h    -2.2724700    3.1399473    0.0671214  0.00   -0.0001547    0.0000027    0.0000005
h    -2.1214828    0.6775360    0.1718783  0.00   -0.0010852   -0.0005803    0.0000363
h    -0.2352814    4.4850626   -0.1803493  0.00    0.0002426    0.0008830    0.0000146
h     1.9546065    3.3925516   -0.3305990  0.00    0.0006834    0.0009127    0.0000165
h     2.3039783   -1.5748518   -0.1573261  0.00   -0.0016071   -0.0018470   -0.0001111
o     7.0820686   -0.0225500    0.8374230  0.00    0.0013533   -0.0037284   -0.0002517
o     6.1850358    1.9877586   -0.1499416  0.00   -0.0057738   -0.0012749   -0.0002788
h     5.2902749    2.3020304   -0.5204992  0.00   -0.4727669   -0.1902603    0.1273806
    27
 Energy =       0.2597025877
c    -1.3202372    2.6220108   -0.0283260  0.00   -0.0023716    0.0021186    0.0001369
c    -1.2310622    1.2646774    0.0986819  0.00   -0.0029245   -0.0035630    0.0000430
c    -0.0078800    0.6950441    0.0298853  0.00   -0.0032431   -0.0056688   -0.0005452
c    -0.1926356    3.3745180   -0.2241011  0.00    0.0005697    0.0040384    0.0000675
c     1.0317521    2.7745479   -0.2955387  0.00    0.0006001    0.0045271    0.0000746
c     1.0995311    1.4202525   -0.1612815  0.00    0.0022578    0.0019746    0.0001926
n     0.3012875   -0.6862149    0.1357999  0.00    0.0048707    0.0008165    0.0003880
c     2.1686130    0.5999052   -0.1938651  0.00    0.0051505    0.0005811   -0.0007140
c     1.7228573   -0.6672317   -0.0315073  0.00   -0.0039179   -0.0048751   -0.0000801
h    -0.3394950   -1.4993010    0.2909594  0.00   -0.0007219   -0.0011521    0.0004088
c     3.6051396    1.0331318   -0.4478849  0.00    0.0818157    0.0663272    0.0022603
c     4.6766507    0.0138805    0.0286817  0.00   -0.0044475    0.0074637    0.0005682
h     3.7685308    1.9973492    0.0599624  0.00    0.1767739    0.0319877   -0.0804806
h     3.7357739    1.2348174   -1.5333124  0.00    0.0077529    0.0054832    0.0064315
c     6.0249654    0.6974853    0.2372333  0.00    0.0027128    0.0001892    0.0006593