    27
 Energy =       0.3057547405
c    -1.4235396    2.6054793   -0.0667700  0.00   -0.0462685    0.0382670    0.0029455
c    -1.3072796    1.2134697   -0.1072300  0.00   -0.0852312   -0.0325653    0.0022424
c    -0.0178900    0.6711998   -0.1697000  0.00   -0.0900433   -0.1873991   -0.0023502
c    -0.2940599    3.4190890   -0.0891300  0.00   -0.0231563    0.0690351    0.0031192
c     0.9872197    2.8590292   -0.1560400  0.00    0.0105940    0.0637561    0.0013642
c     1.1340797    1.4562096   -0.1970299  0.00    0.0531566    0.0519641    0.0017668
n     0.3879399   -0.6395298   -0.2140799  0.00    0.1480523    0.1103085    0.0020603
c     2.2666594    0.5727398   -0.2659299  0.00    0.1808193   -0.0863872    0.0731689
c     1.7555995   -0.7123598   -0.2706899  0.00   -0.0774691   -0.0904288    0.0292523
h    -0.2400399   -1.4313496   -0.2047299  0.00    0.0354416    0.0475868   -0.0020622
c     3.7030089    1.0223397   -0.3320099  0.00   -0.0388952   -0.0381223    0.0542194
c     4.7465686   -0.0024900    0.1378100  0.00   -0.0892564    0.0626376   -0.0975113
h     3.7978489    1.9290294    0.2803699  0.00   -0.0066595   -0.0086908   -0.0111448
h     3.9233889    1.3348996   -1.3618196  0.00   -0.0060100    0.0011479    0.0115969
c     4.2682788   -0.6309508    1.4598596  0.00    0.1739888   -0.2417617    0.2444896
n     6.1061283    0.5956748    0.3870399  0.00    0.0989275   -0.0292851    0.0606051
h     4.8578986   -0.8184518   -0.5859768  0.00    0.0177413    0.0149246    0.0160873
h     6.3010282    0.4926839    1.3882896  0.00   -0.0427048   -0.0221563   -0.0355095
h     6.7998681   -0.0124192   -0.0622002  0.00   -0.0293505    0.0155677    0.0165956
h    -2.4108593    3.0588691   -0.0157800  0.00   -0.0009595    0.0003235   -0.0000722
h    -2.1896094    0.5822398   -0.0890100  0.00   -0.0036420    0.0037193   -0.0001543
h    -0.4052699    4.5000487   -0.0535400  0.00    0.0008433    0.0003975    0.0001694
h     1.8590495    3.5066790   -0.1715100  0.00   -0.0004590    0.0026443    0.0004401
h     2.2327294   -1.6813195   -0.3062999  0.00   -0.0392462   -0.0113300    0.0008887
o     4.8294286   -1.5313296    2.0617994  0.00   -0.1359937    0.2120783   -0.1478965
o     3.1170891   -0.0494250    1.8924795  0.00   -0.0159983    0.0562624   -0.1872627
h     3.3466690    0.3508399    2.7709392  0.00    0.0117788   -0.0024941   -0.0370477
    27
 Energy =       0.2582038637
c    -1.4058300    2.5300225   -0.1092887  0.00   -0.0325618    0.0273048    0.0020846
c    -1.2769336    1.1486463   -0.1364342  0.00   -0.0606887   -0.0232678    0.0014532
c     0.0018080    0.6203419   -0.2054216  0.00   -0.0636123   -0.1313914   -0.0040282
c    -0.2885104    3.3473501   -0.1436983  0.00   -0.0163293    0.0491006    0.0023467
c     0.9854139    2.7985711   -0.2107733  0.00    0.0080472    0.0452846    0.0011406
c     1.1288036    1.4113773   -0.2434495  0.00    0.0369688    0.0378671    0.0013532
n     0.4046203   -0.7080548   -0.1947501  0.00    0.1018827    0.0762932    0.0054329
c     2.2593992    0.5708807   -0.3012703  0.00    0.1312074   -0.0624906    0.0549387
c     1.7896654   -0.7194146   -0.3156828  0.00   -0.0534195   -0.0614495    0.0184290
h    -0.2059199   -1.5256989   -0.1419424  0.00    0.0242596    0.0320274   -0.0006101
c     3.6901713    1.0553704   -0.3188414  0.00   -0.0278223   -0.0278880    0.0414116
c     4.7319108    0.0558303    0.1997922  0.00   -0.0646813    0.0440117   -0.0691024
h     3.7482211    1.9675709    0.2980303  0.00   -0.0049613   -0.0057532   -0.0073321
h     3.9489356    1.3605616   -1.3462302  0.00   -0.0040347    0.0008765    0.0076228
c     4.2386472   -0.5699428    1.5075389  0.00    0.1293637   -0.1706364    0.1747877
n     6.0574168    0.7072923    0.4420400  0.00    0.0692046   -0.0190914    0.0438307
h     4.8685915   -0.7717812   -0.5158926  0.00    0.0125437    0.0100771    0.0111787
h     6.2716166    0.6306323    1.4489915  0.00   -0.0309310   -0.0161469   -0.0245079
h     6.7892649    0.1463339   -0.0256172  0.00   -0.0182689    0.0098562    0.0106554
h    -2.3964705    2.9752408   -0.0534911  0.00   -0.0007312    0.0002552   -0.0000538
h    -2.1507347    0.5064342   -0.0955989  0.00   -0.0028684    0.0024459   -0.0000656
h    -0.4074898    4.4277706   -0.1156455  0.00    0.0006235    0.0003429    0.0001309
h     1.8548155    3.4488934   -0.2346565  0.00   -0.0001524    0.0017396    0.0003740
h     2.3329616   -1.6554441   -0.3404555  0.00   -0.0267413   -0.0098201    0.0003632
o     4.8370780   -1.5156136    2.1018531  0.00   -0.0967471    0.1509913   -0.1059188
o     3.0434236   -0.0633483    1.9464724  0.00   -0.0264755    0.0313665   -0.1558526
h     3.2810575    0.4810728    2.7635332  0.00    0.0169257    0.0080950   -0.0100626
    27
 Energy =       0.2454786358
c    -1.4099580    2.5087157   -0.0949246  0.00   -0.0287182    0.0241610    0.0018489
c    -1.2782341    1.1310796   -0.1487908  0.00   -0.0535510   -0.0210834    0.0013726
c    -0.0016481    0.6071039   -0.2035968  0.00   -0.0544779   -0.1110684   -0.0023773
c    -0.2948643    3.3267215   -0.0987610  0.00   -0.0141171    0.0435017    0.0020000
c     0.9776094    2.7813592   -0.1560484  0.00    0.0072235    0.0400647    0.0009013
c     1.1196065    1.3990105   -0.2069060  0.00    0.0327261    0.0339781    0.0011896
n     0.3942856   -0.7280916   -0.2755731  0.00    0.0857910    0.0637860    0.0033575
c     2.2482010    0.5701227   -0.2655587  0.00    0.1158822   -0.0549462    0.0486614
c     1.7921736   -0.7202738   -0.3040702  0.00   -0.0412972   -0.0513694    0.0179225
h    -0.2182131   -1.5528054   -0.3006955  0.00    0.0184041    0.0242507   -0.0010058
c     3.6780007    1.0582279   -0.3071964  0.00   -0.0244694   -0.0247032    0.0363913
c     4.7218995    0.0579233    0.2042478  0.00   -0.0578022    0.0384793   -0.0613033
h     3.7490837    1.9770952    0.3001212  0.00   -0.0043352   -0.0049410   -0.0063574
h     3.9230728    1.3496641   -1.3432291  0.00   -0.0035045    0.0007883    0.0065059
c     4.2520741   -0.5455349    1.5294149  0.00    0.1143298   -0.1504320    0.1545095
n     6.0531308    0.7082885    0.3972630  0.00    0.0616185   -0.0159512    0.0377207
h     4.8317464   -0.7828494   -0.5033212  0.00    0.0109293    0.0085319    0.0095307
h     6.2979682    0.6601543    1.4012735  0.00   -0.0269100   -0.0142010   -0.0203171
h     6.7713496    0.1327913   -0.0780996  0.00   -0.0158548    0.0084673    0.0091354
h    -2.4023028    2.9513674   -0.0498073  0.00   -0.0007420    0.0001820   -0.0000427
h    -2.1517068    0.4858915   -0.1492372  0.00   -0.0032079    0.0015672   -0.0000713
h    -0.4156912    4.4065422   -0.0551070  0.00    0.0006056    0.0004421    0.0001135
h     1.8468308    3.4325657   -0.1576095  0.00    0.0000737    0.0016987    0.0003142
h     2.3531087   -1.6457347   -0.3414025  0.00   -0.0237034   -0.0090554    0.0004675
o     4.8686645   -1.5006942    2.1200539  0.00   -0.0850489    0.1330132   -0.0933102
o     3.0735456   -0.0258068    2.0032116  0.00   -0.0295011    0.0187926   -0.1489345
h     3.3522002    0.6180617    2.7434602  0.00    0.0196570    0.0160464    0.0017772
    27
 Energy =       0.2443253510
c    -1.4230604    2.4592986   -0.0951857  0.00   -0.0273982    0.0230485    0.0017638
c    -1.2796496    1.0835345   -0.1456626  0.00   -0.0510616   -0.0201141    0.0013013
c    -0.0000682    0.5704453   -0.2011574  0.00   -0.0519524   -0.1057818   -0.0022973
c    -0.3155077    3.2861994   -0.1028615  0.00   -0.0134357    0.0414992    0.0019106
c     0.9600970    2.7516246   -0.1609210  0.00    0.0069366    0.0381895    0.0008605
c     1.1123294    1.3716918   -0.2082504  0.00    0.0311628    0.0324263    0.0011343
n     0.4075086   -0.7636802   -0.2666149  0.00    0.0816217    0.0607207    0.0032624
c     2.2471482    0.5564908   -0.2667174  0.00    0.1104492   -0.0523863    0.0464076
c     1.8068573   -0.7379151   -0.3032170  0.00   -0.0392618   -0.0489406    0.0170341
h    -0.1955407   -1.5966573   -0.2859872  0.00    0.0174512    0.0229675   -0.0009567
c     3.6712051    1.0628651   -0.3133133  0.00   -0.0236713   -0.0235387    0.0348347
c     4.7316453    0.0902316    0.2197288  0.00   -0.0557715    0.0362328   -0.0581010
h     3.7293640    1.9960356    0.2742203  0.00   -0.0041266   -0.0044530   -0.0057053
h     3.9148022    1.3369295   -1.3549720  0.00   -0.0033793    0.0008151    0.0060306
c     4.2594185   -0.5279604    1.5369741  0.00    0.1090386   -0.1423629    0.1479434
n     6.0405913    0.7786276    0.4294531  0.00    0.0589409   -0.0140338    0.0366074
h     4.8751242   -0.7494946   -0.4853206  0.00    0.0104124    0.0076356    0.0087319
h     6.2808430    0.7299571    1.4354734  0.00   -0.0255432   -0.0134326   -0.0193371
h     6.7825800    0.2351683   -0.0499061  0.00   -0.0140936    0.0074564    0.0081261
h    -2.4190895    2.8936030   -0.0493751  0.00   -0.0007473    0.0001930   -0.0000395
h    -2.1473312    0.4306239   -0.1421024  0.00   -0.0031027    0.0014605   -0.0000687
h    -0.4454350    4.3651235   -0.0619751  0.00    0.0005770    0.0004698    0.0001099
h     1.8234314    3.4105259   -0.1664608  0.00    0.0001397    0.0016392    0.0003041
h     2.3823785   -1.6543622   -0.3419550  0.00   -0.0224992   -0.0087417    0.0004264
o     4.9003337   -1.4708073    2.1323088  0.00   -0.0806631    0.1267084   -0.0886545
o     3.0746908   -0.0240185    2.0148139  0.00   -0.0404389   -0.0098771   -0.1634262
h     3.3572672    0.7768148    2.6180944  0.00    0.0304161    0.0422002    0.0217973
    27
 Energy =       0.2163334740
c    -1.3839208    2.4975548   -0.1161056  0.00   -0.0162025    0.0132386    0.0010678
c    -1.2531744    1.1307758   -0.1937935  0.00   -0.0299738   -0.0123980    0.0011380
c     0.0089757    0.6080012   -0.2343241  0.00   -0.0292894   -0.0600007    0.0009873
c    -0.2708935    3.3067490   -0.0871757  0.00   -0.0077294    0.0244978    0.0008952
c     0.9908269    2.7591484   -0.1299088  0.00    0.0042272    0.0227654    0.0001538
c     1.1165734    1.3901799   -0.1993315  0.00    0.0182974    0.0195809    0.0004219
n     0.3821734   -0.7422689   -0.3578884  0.00    0.0462087    0.0341279   -0.0008081
c     2.2305419    0.5843083   -0.2491386  0.00    0.0675970   -0.0310479    0.0318603
c     1.7961994   -0.7024453   -0.3291534  0.00   -0.0200329   -0.0272519    0.0133015
h    -0.2339559   -1.5730910   -0.4407148  0.00    0.0081634    0.0108201   -0.0014607
c     3.6655985    1.0694675   -0.2728107  0.00   -0.0146923   -0.0141349    0.0210639
c     4.6863437    0.0481822    0.2486341  0.00   -0.0372640    0.0190884   -0.0332553
h     3.7461081    1.9849548    0.3458889  0.00   -0.0023343   -0.0020324   -0.0027525
h     3.9294836    1.3567670   -1.3091223  0.00   -0.0019165    0.0007388    0.0033121
c     4.2331335   -0.5162133    1.5934883  0.00    0.0621481   -0.0810332    0.0885623
n     6.0287945    0.6858155    0.3582819  0.00    0.0373769   -0.0015513    0.0195989
h     4.7426663   -0.8169948   -0.4487008  0.00    0.0053154    0.0012643    0.0028698
h     6.3310117    0.6901433    1.3568747  0.00   -0.0138918   -0.0079123   -0.0066472
h     6.7241580    0.0821062   -0.1346769  0.00   -0.0053577    0.0013821    0.0018877
h    -2.3758892    2.9419232   -0.0821038  0.00   -0.0006154    0.0000614   -0.0000101
h    -2.1257394    0.4848944   -0.2289204  0.00   -0.0024158    0.0002772   -0.0000722
h    -0.3882178    4.3864579   -0.0285095  0.00    0.0003943    0.0005404    0.0000582
h     1.8643964    3.4044540   -0.1064827  0.00    0.0005362    0.0013025    0.0001602
h     2.3996008   -1.6021254   -0.3754877  0.00   -0.0124742   -0.0051975    0.0005732
o     4.8854749   -1.5113857    2.1833903  0.00   -0.0470681    0.0723776   -0.0533881
o     3.0611117   -0.0148570    2.1200546  0.00   -0.0278454   -0.0088502   -0.1035976
h     3.3405521    0.7283933    2.7768475  0.00    0.0188387    0.0293469    0.0140795
    27
 Energy =       0.2065202510
c    -1.3501039    2.5442545   -0.1619408  0.00   -0.0112442    0.0087686    0.0007466
c    -1.2346427    1.1810845   -0.2538397  0.00   -0.0204083   -0.0085994    0.0009246
c     0.0156445    0.6442614   -0.2834733  0.00   -0.0198166   -0.0406620    0.0009769
c    -0.2289747    3.3361728   -0.1073580  0.00   -0.0051804    0.0167498    0.0005569
c     1.0221620    2.7727860   -0.1374263  0.00    0.0030080    0.0156005    0.0000102
c     1.1263329    1.4083947   -0.2214784  0.00    0.0124770    0.0132484    0.0001747
n     0.3648555   -0.7155881   -0.4133735  0.00    0.0311936    0.0229776   -0.0008146
c     2.2253107    0.5984091   -0.2602056  0.00    0.0463611   -0.0211765    0.0230996
c     1.7845431   -0.6810388   -0.3670472  0.00   -0.0134189   -0.0185879    0.0095128
h    -0.2620065   -1.5399007   -0.5142440  0.00    0.0052236    0.0070232   -0.0010753
c     3.6692104    1.0652744   -0.2420588  0.00   -0.0096870   -0.0094732    0.0147920
c     4.6623981    0.0193122    0.2879759  0.00   -0.0252256    0.0124115   -0.0221757
h     3.7499167    1.9672240    0.3988337  0.00   -0.0014175   -0.0012044   -0.0015481
h     3.9634264    1.3653409   -1.2683061  0.00   -0.0011541    0.0007396    0.0017391
c     4.1935537   -0.5436170    1.6269046  0.00    0.0422002   -0.0512831    0.0597312
n     6.0096727    0.6380531    0.3927697  0.00    0.0251691   -0.0006634    0.0132069
h     4.7026662   -0.8434118   -0.4146628  0.00    0.0035136    0.0007221    0.0018532
h     6.3271703    0.6367190    1.3886563  0.00   -0.0093325   -0.0054768   -0.0042997
h     6.6965217    0.0349140   -0.1150653  0.00   -0.0034764    0.0007867    0.0011316
h    -2.3367333    3.0008517   -0.1364110  0.00   -0.0005601    0.0000475   -0.0000014
h    -2.1135514    0.5455449   -0.3078175  0.00   -0.0018321    0.0000065   -0.0000490
h    -0.3326117    4.4166477   -0.0373707  0.00    0.0002897    0.0005393    0.0000433
h     1.9045922    3.4048724   -0.0927402  0.00    0.0006496    0.0011015    0.0001136
h     2.3925908   -1.5784302   -0.4113160  0.00   -0.0083258   -0.0034794    0.0004595
o     4.8180330   -1.5954440    2.1949960  0.00   -0.0312969    0.0458700   -0.0359005
o     3.0351950   -0.0310505    2.1795098  0.00   -0.0254651   -0.0174174   -0.0834118
h     3.3267620    0.6092589    2.9356006  0.00    0.0177557    0.0314306    0.0202033
    27
 Energy =       0.2003806875
c    -1.3032098    2.6239483   -0.2180438  0.00   -0.0080144    0.0054140    0.0004877
c    -1.2128741    1.2633724   -0.3326688  0.00   -0.0136472   -0.0060502    0.0007348
c     0.0227402    0.7025736   -0.3450551  0.00   -0.0129343   -0.0264978    0.0009828
c    -0.1684372    3.3896683   -0.1235409  0.00   -0.0030779    0.0114010    0.0003416
c     1.0685721    2.8009091   -0.1353588  0.00    0.0024094    0.0105409   -0.0000701
c     1.1428840    1.4400046   -0.2426427  0.00    0.0084672    0.0085866   -0.0000035
n     0.3404626   -0.6665717   -0.4893966  0.00    0.0197188    0.0146199   -0.0008946
c     2.2220042    0.6151693   -0.2684669  0.00    0.0303993   -0.0135249    0.0160459
c     1.7640497   -0.6526071   -0.4126433  0.00   -0.0083513   -0.0124640    0.0066251
h    -0.3021789   -1.4777087   -0.6192041  0.00    0.0026422    0.0037572   -0.0008798
c     3.6764283    1.0519358   -0.1979552  0.00   -0.0057120   -0.0056991    0.0098762
c     4.6339120   -0.0287900    0.3340938  0.00   -0.0167489    0.0074997   -0.0143066
h     3.7591343    1.9345091    0.4714433  0.00   -0.0005842   -0.0003843   -0.0005797
h     4.0064204    1.3714603   -1.2089703  0.00   -0.0005699    0.0008882    0.0002960
c     4.1346459   -0.6089270    1.6548196  0.00    0.0269624   -0.0248291    0.0372010
n     5.9887815    0.5629191    0.4600274  0.00    0.0164123    0.0004816    0.0082893
h     4.6631117   -0.8783898   -0.3860461  0.00    0.0021076    0.0002283    0.0009875
h     6.3097671    0.5327140    1.4562152  0.00   -0.0056938   -0.0036399   -0.0020757
h     6.6686733   -0.0327230   -0.0675726  0.00   -0.0020705    0.0001918    0.0004759
h    -2.2808431    3.1003734   -0.2056877  0.00   -0.0007265    0.0000734    0.0000004
h    -2.1025887    0.6460726   -0.4171811  0.00   -0.0017563   -0.0004440   -0.0000708
h    -0.2508247    4.4708802   -0.0355067  0.00    0.0002637    0.0007729    0.0000560
h     1.9636078    3.4125953   -0.0582670  0.00    0.0010889    0.0012226    0.0001160
h     2.3657699   -1.5549655   -0.4575984  0.00   -0.0053098   -0.0023066    0.0003554
o     4.6892024   -1.7498496    2.1678769  0.00   -0.0168869    0.0199633   -0.0208394
o     3.0091647   -0.0581835    2.2452352  0.00   -0.0269410   -0.0218824   -0.0715919
h     3.3235579    0.4505058    3.0912059  0.00    0.0185532    0.0320808    0.0284404
    27
 Energy =       0.1994808570
c    -1.2959654    2.6322503   -0.2287181  0.00   -0.0064336    0.0043175    0.0003946
c    -1.2091871    1.2726303   -0.3440366  0.00   -0.0109350   -0.0048424    0.0005995
c     0.0231282    0.7081747   -0.3512879  0.00   -0.0103412   -0.0211910    0.0007898
c    -0.1598289    3.3933725   -0.1283062  0.00   -0.0024651    0.0091330    0.0002729
c     1.0739988    2.8006511   -0.1356834  0.00    0.0019407    0.0084392   -0.0000629
c     1.1432005    1.4411561   -0.2439449  0.00    0.0067961    0.0068638   -0.0000066
n     0.3354554   -0.6637750   -0.4918092  0.00    0.0157955    0.0116575   -0.0007023
c     2.2186277    0.6161722   -0.2678182  0.00    0.0244179   -0.0110137    0.0132577
c     1.7606192   -0.6498616   -0.4160279  0.00   -0.0065618   -0.0099294    0.0055678
h    -0.3089483   -1.4742936   -0.6211398  0.00    0.0021046    0.0030093   -0.0007045
c     3.6744455    1.0507358   -0.1956600  0.00   -0.0045717   -0.0045140    0.0078427
c     4.6296977   -0.0302700    0.3411548  0.00   -0.0140422    0.0063742   -0.0116616
h     3.7570707    1.9334772    0.4738854  0.00   -0.0004713   -0.0003190   -0.0004618
h     4.0076582    1.3683902   -1.2062440  0.00   -0.0004517    0.0007084    0.0002356
c     4.1142240   -0.6283813    1.6470378  0.00    0.0202055   -0.0075958    0.0246899
n     5.9784776    0.5675740    0.4889350  0.00    0.0132205    0.0008605    0.0067191
h     4.6708698   -0.8715767   -0.3889637  0.00    0.0016073    0.0000688    0.0006701
h     6.2951749    0.5213267    1.4862717  0.00   -0.0045936   -0.0029959   -0.0014125
h     6.6668542   -0.0090036   -0.0496986  0.00   -0.0014299   -0.0001299    0.0001098
h    -2.2719775    3.1118363   -0.2199477  0.00   -0.0005944    0.0000608    0.0000015
h    -2.1000914    0.6580382   -0.4321456  0.00   -0.0014146   -0.0003610   -0.0000550
h    -0.2389473    4.4746369   -0.0393817  0.00    0.0002105    0.0006239    0.0000452
h     1.9705671    3.4090790   -0.0545431  0.00    0.0008873    0.0009806    0.0000933
h     2.3650586   -1.5506260   -0.4656336  0.00   -0.0042279   -0.0018345    0.0002906
o     4.5572801   -1.8709018    2.0660928  0.00   -0.0059047   -0.0020983   -0.0127930
o     3.0531766   -0.0091583    2.2966974  0.00   -0.0286875   -0.0138421   -0.0593827
h     3.4212946    0.4592419    3.1400266  0.00    0.0159402    0.0275694    0.0256628
    27
 Energy =       0.1981120659
c    -1.2473440    2.7200323   -0.2748665  0.00   -0.0070715    0.0041605    0.0003344
c    -1.1856006    1.3616452   -0.4208702  0.00   -0.0112154   -0.0053571    0.0004800
c     0.0350688    0.7723330   -0.4135360  0.00   -0.0103855   -0.0208961    0.0007620
c    -0.0980146    3.4553850   -0.1298911  0.00   -0.0018741    0.0096531    0.0003687
c     1.1237672    2.8374206   -0.1215143  0.00    0.0024895    0.0088311    0.0000289
c     1.1674448    1.4793263   -0.2607382  0.00    0.0070415    0.0068465    0.0000203
n     0.3215884   -0.6024439   -0.5820130  0.00    0.0143495    0.0110682   -0.0008079
c     2.2259176    0.6323141   -0.2744098  0.00    0.0235239   -0.0103936    0.0125020
c     1.7449801   -0.6206022   -0.4645040  0.00   -0.0060203   -0.0102060    0.0053109
h    -0.3369559   -1.3955964   -0.7504469  0.00    0.0009712    0.0016939   -0.0009511
c     3.6885457    1.0323602   -0.1426723  0.00   -0.0037061   -0.0036295    0.0074539
c     4.6044988   -0.0889086    0.3834008  0.00   -0.0137784    0.0049396   -0.0112769
h     3.7705881    1.8898371    0.5603681  0.00    0.0000067    0.0003194    0.0001030
h     4.0583558    1.3779617   -1.1324651  0.00   -0.0002355    0.0012645   -0.0008906
c     4.0578967   -0.7019218    1.6711036  0.00    0.0194093   -0.0066983    0.0235494
n     5.9678806    0.4689229    0.5604295  0.00    0.0137496    0.0016387    0.0061270
h     4.6327087   -0.9154431   -0.3641047  0.00    0.0013202   -0.0002934    0.0004870
h     6.2706565    0.3929501    1.5610894  0.00   -0.0039740   -0.0029431   -0.0005753
h     6.6474806   -0.1165758    0.0201305  0.00   -0.0012055   -0.0002049    0.0001087
h    -2.2137374    3.2193724   -0.2774895  0.00   -0.0009290    0.0001096   -0.0000135
h    -2.0869298    0.7673530   -0.5448974  0.00   -0.0021347   -0.0009140   -0.0001641
h    -0.1570481    4.5361525   -0.0171410  0.00    0.0003448    0.0011313    0.0001074
h     2.0311612    3.4250588   -0.0037568  0.00    0.0016500    0.0015499    0.0001932
h     2.3309337   -1.5337532   -0.5124605  0.00   -0.0039774   -0.0020185    0.0002498
o     4.5455545   -1.9162059    2.1259446  0.00   -0.0041254   -0.0041167   -0.0122917
o     2.9559511   -0.1165678    2.2865448  0.00   -0.0315509   -0.0145758   -0.0612422
h     3.2765847    0.3004887    3.1778771  0.00    0.0173275    0.0290406    0.0300268
    27
 Energy =       0.1974950906
c    -1.1966033    2.7867676   -0.3449587  0.00   -0.0074829    0.0036659    0.0002120
c    -1.1509099    1.4317525   -0.5249812  0.00   -0.0110472   -0.0056577    0.0003181
c     0.0601226    0.8240380   -0.4981340  0.00   -0.0101274   -0.0198394    0.0006808
c    -0.0406662    3.5006549   -0.1471455  0.00   -0.0010328    0.0097262    0.0004886
c     1.1710761    2.8637789   -0.1174966  0.00    0.0030041    0.0088411    0.0001521
c     1.1979654    1.5091646   -0.2910120  0.00    0.0070574    0.0065775    0.0000633
n     0.3298305   -0.5508334   -0.6954757  0.00    0.0121119    0.0102513   -0.0009427
c     2.2429070    0.6461780   -0.2892286  0.00    0.0212585   -0.0090875    0.0111427
c     1.7491373   -0.5940479   -0.5283933  0.00   -0.0053941   -0.0100765    0.0047410
h    -0.3356060   -1.3287937   -0.9092000  0.00   -0.0003515    0.0002019   -0.0012650
c     3.7064286    1.0165744   -0.0822675  0.00   -0.0023070   -0.0026100    0.0072687
c     4.5791784   -0.1348292    0.4552186  0.00   -0.0133721    0.0037843   -0.0113553
h     3.7732555    1.8546463    0.6461684  0.00    0.0004167    0.0006621    0.0005945
h     4.1257305    1.3802842   -1.0471847  0.00    0.0002710    0.0018336   -0.0022611
c     3.9739153   -0.7674255    1.7093502  0.00    0.0181160   -0.0073078    0.0227959
n     5.9462757    0.3938002    0.6936938  0.00    0.0146614    0.0027646    0.0044563
h     4.6200473   -0.9453857   -0.3093726  0.00    0.0009870   -0.0004936    0.0001004
h     6.2135423    0.2864713    1.7029864  0.00   -0.0029318   -0.0028052    0.0012760
h     6.6344178   -0.1898035    0.1620441  0.00   -0.0009192   -0.0002290    0.0000657
h    -2.1553261    3.3007530   -0.3628092  0.00   -0.0011881    0.0000826   -0.0000425
h    -2.0573660    0.8542534   -0.6909918  0.00   -0.0028532   -0.0014695   -0.0003143
h    -0.0866652    4.5793329   -0.0081435  0.00    0.0005244    0.0015165    0.0001766
h     2.0838228    3.4342360    0.0435385  0.00    0.0024552    0.0020961    0.0003398
h     2.3223274   -1.5156123   -0.5722587  0.00   -0.0036536   -0.0020087    0.0002046
o     4.4548746   -1.9789870    2.1787829  0.00   -0.0037155   -0.0039607   -0.0114142
o     2.8431250   -0.1968990    2.2876535  0.00   -0.0311154   -0.0140368   -0.0567298
h     3.1270959    0.2008263    3.1987281  0.00    0.0166280    0.0275785    0.0292478
    27
 Energy =       0.1968429582
c    -1.2275052    2.7717084   -0.2811176  0.00   -0.0079735    0.0036663    0.0001898
c    -1.1806211    1.4144200   -0.4450517  0.00   -0.0115656   -0.0059694    0.0002999
c     0.0331481    0.8110979   -0.4325765  0.00   -0.0106047   -0.0205659    0.0006838
c    -0.0702014    3.4921297   -0.1134853  0.00   -0.0008665    0.0101971    0.0005366
c     1.1445402    2.8599321   -0.0996549  0.00    0.0033204    0.0092251    0.0001838
c     1.1728929    1.5031393   -0.2570156  0.00    0.0073947    0.0068481    0.0000682
n     0.3042842   -0.5650643   -0.6181508  0.00    0.0120115    0.0106504   -0.0010089
c     2.2217857    0.6445929   -0.2692636  0.00    0.0214102   -0.0090713    0.0112687
c     1.7274766   -0.6006241   -0.4827221  0.00   -0.0055334   -0.0104922    0.0047888
h    -0.3627961   -1.3486080   -0.8063792  0.00   -0.0007367   -0.0001888   -0.0013971
c     3.6893817    1.0273349   -0.1115447  0.00   -0.0025200   -0.0023145    0.0076436
c     4.5950191   -0.1186228    0.3846555  0.00   -0.0142940    0.0038891   -0.0125238
h     3.7730573    1.8607320    0.6209099  0.00    0.0003865    0.0007692    0.0007967
h     4.0702530    1.4031737   -1.0887359  0.00    0.0005321    0.0021464   -0.0031081
c     4.0500267   -0.7561966    1.6653336  0.00    0.0184243   -0.0070249    0.0235270
n     5.9682241    0.4208104    0.5652488  0.00    0.0159072    0.0038632    0.0037309
h     4.6091031   -0.9279269   -0.3825802  0.00    0.0010710   -0.0006328   -0.0003436
h     6.2796486    0.3142364    1.5629100  0.00   -0.0023411   -0.0029700    0.0029036
h     6.6381188   -0.1566505    0.0032910  0.00   -0.0000797   -0.0006929   -0.0004266
h    -2.1883318    3.2822243   -0.2876878  0.00   -0.0013205    0.0000671   -0.0000524
h    -2.0882458    0.8318105   -0.5874454  0.00   -0.0031877   -0.0016770   -0.0003613
h    -0.1172976    4.5723831    0.0132328  0.00    0.0006018    0.0016459    0.0001955
h     2.0586744    3.4354568    0.0364841  0.00    0.0028123    0.0023305    0.0003899
h     2.3035806   -1.5199741   -0.5337454  0.00   -0.0037743   -0.0021058    0.0001884
o     4.5819916   -1.9482924    2.1325321  0.00   -0.0033510   -0.0056895   -0.0107951
o     2.9251888   -0.2085952    2.2767129  0.00   -0.0328819   -0.0144249   -0.0580151
h     3.2205369    0.1662680    3.1949573  0.00    0.0171587    0.0285215    0.0306366
    27
 Energy =       0.1960363977
c    -1.2421476    2.7888985   -0.2209955  0.00   -0.0078329    0.0035644    0.0001793
c    -1.2004782    1.4314402   -0.3840799  0.00   -0.0113331   -0.0058206    0.0002867
c     0.0115327    0.8247839   -0.3816317  0.00   -0.0103800   -0.0200719    0.0006593
c    -0.0814205    3.5061395   -0.0642514  0.00   -0.0008511    0.0099814    0.0005284
c     1.1315883    2.8705992   -0.0614714  0.00    0.0032989    0.0089892    0.0001837
c     1.1545560    1.5138767   -0.2181160  0.00    0.0072088    0.0066975    0.0000514
n     0.2772448   -0.5521633   -0.5692041  0.00    0.0115694    0.0104240   -0.0009936
c     2.2014509    0.6537349   -0.2432668  0.00    0.0205846   -0.0086227    0.0108412
c     1.7021839   -0.5903797   -0.4516590  0.00   -0.0054296   -0.0102399    0.0045856
h    -0.3935834   -1.3346831   -0.7483413  0.00   -0.0007739   -0.0002370   -0.0013749
c     3.6715505    1.0376280   -0.1109494  0.00   -0.0036297   -0.0018528    0.0072120
c     4.6014124   -0.1190947    0.3177623  0.00   -0.0133506    0.0037197   -0.0126589
h     3.7689953    1.8462353    0.6483191  0.00    0.0001929    0.0013326    0.0013198
h     4.0230705    1.4504265   -1.0853966  0.00    0.0007211    0.0024603   -0.0040470
c     4.1117107   -0.7936400    1.6037369  0.00    0.0182289   -0.0061774    0.0224666
n     5.9785114    0.4231439    0.4591599  0.00    0.0136159    0.0056432    0.0027661
h     4.5892356   -0.9076773   -0.4716947  0.00    0.0013169   -0.0010389   -0.0010733
h     6.3352602    0.2797584    1.4387878  0.00   -0.0012623   -0.0033061    0.0056362
h     6.6279729   -0.1266886   -0.1554621  0.00    0.0020469   -0.0022472   -0.0022270
h    -2.2015679    3.3021262   -0.2196012  0.00   -0.0013263    0.0000746   -0.0000530
h    -2.1108817    0.8512609   -0.5181907  0.00   -0.0031482   -0.0016526   -0.0003581
h    -0.1243629    4.5866126    0.0619472  0.00    0.0005887    0.0016154    0.0001916
h     2.0489567    3.4432707    0.0652130  0.00    0.0028081    0.0022847    0.0003879
h     2.2761152   -1.5104934   -0.5131042  0.00   -0.0036900   -0.0021188    0.0001647
o     4.7033458   -1.9687308    2.0465697  0.00   -0.0021173   -0.0078751   -0.0095464
o     2.9853561   -0.2940242    2.2531432  0.00   -0.0338147   -0.0137256   -0.0559382
h     3.2863256    0.0485350    3.1818882  0.00    0.0167589    0.0281997    0.0308101
    27
 Energy =       0.1968921171
c    -1.2241934    2.8472033   -0.1921027  0.00   -0.0076531    0.0035001    0.0001723
c    -1.1962107    1.4926960   -0.3807565  0.00   -0.0108851   -0.0058492    0.0002238
c     0.0085899    0.8725801   -0.3798493  0.00   -0.0099471   -0.0190946    0.0006469
c    -0.0569673    3.5482282   -0.0117810  0.00   -0.0006257    0.0097716    0.0005464
c     1.1485666    2.8988268   -0.0098176  0.00    0.0032773    0.0088718    0.0002225
c     1.1573430    1.5452888   -0.1922934  0.00    0.0069896    0.0063953    0.0000474
n     0.2601347   -0.5035026   -0.5935806  0.00    0.0109142    0.0096032   -0.0010231
c     2.1945877    0.6746014   -0.2240161  0.00    0.0194398   -0.0078978    0.0099768
c     1.6837391   -0.5595328   -0.4638936  0.00   -0.0053358   -0.0101442    0.0041678
h    -0.4172683   -1.2751161   -0.7957235  0.00   -0.0010816   -0.0006485   -0.0014073
c     3.6665901    1.0412145   -0.0638595  0.00   -0.0040615   -0.0012072    0.0061001
c     4.5940113   -0.1442512    0.2950797  0.00   -0.0116146    0.0032189   -0.0125338
h     3.7649247    1.8048725    0.7431740  0.00    0.0003925    0.0027863    0.0026965
h     4.0215087    1.5101491   -1.0131584  0.00    0.0009402    0.0032264   -0.0054575
c     4.1101889   -0.8944012    1.5438705  0.00    0.0179344   -0.0054817    0.0213713