13
UFF-Energy = 0.0367705
C    -5.2962738    2.1289314   -0.1031495 
C    -3.9773779    1.3513887   -0.0168820 
H    -5.2732923    2.8431932   -0.9560227 
H    -5.4714764    2.7034120    0.8320937 
H    -6.1432466    1.4246508   -0.2492510 
C    -2.7760139    2.2772849    0.1517298 
N    -4.1030762    0.3629822    1.0672995 
H    -3.8080733    0.8228937   -0.9844685 
H    -3.2011442   -0.1674379    1.1473632 
H    -4.1936790    0.8711903    1.9798725 
O    -2.5537607    3.3007988   -0.7608123 
O    -1.8613915    2.0776328    1.1784010 
H    -1.1411743    2.7859381    1.1093367 
