13
UFF-Energy = 0.0457808
C    -5.2337659    2.3363945    0.1214383 
C    -4.0213158    1.4459381   -0.1809719 
H    -6.1750433    1.8242469   -0.1689076 
H    -5.1641020    3.2994736   -0.4291970 
H    -5.2716474    2.5565360    1.2124476 
C    -2.7033581    2.1641738    0.0829725 
N    -4.1434789    0.2204055    0.6227735 
H    -4.0099751    1.1937936   -1.2684330 
H    -4.9686614   -0.3308093    0.2883138 
H    -3.3030538   -0.3848701    0.4562430 
O    -2.5849882    3.1065517    1.1001923 
O    -1.5923274    1.8647362   -0.6946906 
H    -0.8095327    2.4139725   -0.3631294 
