13
UFF-Energy = 0.0461487
C    -5.1847819    2.3403742   -0.2167517 
C    -3.9792049    1.3864823   -0.0385752 
H    -4.9170085    3.4028716   -0.0255368 
H    -6.0106067    2.0905358    0.4843824 
H    -5.5801288    2.2724918   -1.2519679 
C    -2.6749746    2.1125125    0.3065644 
N    -4.3360593    0.3778305    0.9732615 
H    -3.7721666    0.8791184   -1.0095893 
H    -5.0737206   -0.2518807    0.5793310 
H    -3.5057521   -0.2343951    1.1651541 
O    -2.4634066    3.4297555   -0.0902506 
O    -1.6274574    1.4252359    0.9090393 
H    -0.8514519    2.0630305    1.0297712 
