13
UFF-Energy = 0.0560937
C    -5.0725625    2.2722581    0.6345331 
C    -4.1094852    1.3997175   -0.1779904 
H    -4.7315314    2.3415043    1.6909629 
H    -6.0923427    1.8323172    0.6266688 
H    -5.1302878    3.2975416    0.2065761 
C    -2.7296821    2.0538343   -0.2844790 
N    -4.0537569    0.0711695    0.4518939 
H    -4.4899846    1.3105263   -1.2248690 
H    -4.9954993   -0.3859127    0.3861364 
H    -3.4069624   -0.5418152   -0.1015445 
O    -2.4250633    2.8064215   -1.4112518 
O    -1.7939530    1.9751436    0.7454969 
H    -2.1317989    1.3784099    1.4865698 
