13
UFF-Energy = 0.0830692
C    -5.1787997    2.1391583   -0.3998318 
C    -3.9174828    1.3568266    0.0604331 
H    -6.0631498    1.9912242    0.2530885 
H    -5.4718485    1.8133882   -1.4217695 
H    -4.9918860    3.2345692   -0.4490463 
C    -2.7006585    2.2679573    0.2104490 
N    -4.1860596    0.5401433    1.2694400 
H    -3.6229333    0.6545152   -0.7564439 
H    -3.5583960    0.8133264    2.0658485 
H    -5.1620856    0.6276084    1.6321727 
O    -1.8296094    2.4390478   -0.8562922 
O    -2.4976565    3.0008546    1.3735963 
H    -3.0835142    3.8219195    1.3495669 
