13
UFF-Energy = 0.0622123
C    -5.0127955    2.3752891    0.7589048 
C    -4.0844691    1.5501226   -0.1575106 
H    -5.5095626    1.7330326    1.5190730 
H    -5.8163339    2.8525884    0.1575655 
H    -4.4690479    3.1862683    1.2922149 
C    -2.6487972    2.0819537   -0.1983671 
N    -4.1566730    0.1343933    0.2416501 
H    -4.4584714    1.6433020   -1.2072113 
H    -3.6569906   -0.4487515   -0.4734441 
H    -3.6502928   -0.0162517    1.1463808 
O    -2.0960511    2.4414674   -1.4193003 
O    -1.8733175    2.2095836    0.9543114 
H    -2.3694774    1.9159391    1.7808652 
