13
UFF-Energy = 0.0283639
C    -5.1848597    2.4450894   -0.0235955 
C    -4.0223568    1.4582880   -0.1525290 
H    -6.1410977    1.9368417   -0.2709421 
H    -5.0453735    3.3051177   -0.7132789 
H    -5.2452004    2.8291994    1.0184900 
C    -2.6904218    2.1234464    0.1638091 
N    -4.2987679    0.3063525    0.7192446 
H    -3.9616786    1.1137992   -1.2124308 
H    -3.5688391   -0.4266347    0.5520075 
H    -4.1909676    0.5980310    1.7220830 
O    -1.7199286    2.2468718   -0.8217498 
O    -2.4398540    2.6321603    1.4319966 
H    -1.5090042    3.0301145    1.4403035 
