13
UFF-Energy = 0.0750499
C    -5.2202846    2.3300684    0.0318816 
C    -4.0106317    1.4042239   -0.1463034 
H    -6.1575894    1.8018551   -0.2434570 
H    -5.1241180    3.2388789   -0.6004393 
H    -5.2958885    2.6454603    1.0979901 
C    -2.6961680    2.1346775    0.1166902 
N    -4.1828356    0.2550770    0.7538722 
H    -3.9704935    1.0537374   -1.2049218 
H    -4.9929220   -0.3230176    0.4277243 
H    -3.3383088   -0.3643263    0.6941426 
O    -2.5450696    2.9541140    1.2286405 
O    -1.6296956    1.9822404   -0.7607358 
H    -1.7772347    2.5715142   -1.5665879 
