13
UFF-Energy = 0.028788
C    -5.2055490    2.2488292    0.7075280 
C    -4.1439185    1.5800920   -0.1689277 
H    -6.1597212    1.6839639    0.6408257 
H    -5.3828611    3.2945961    0.3749140 
H    -4.8750680    2.2633354    1.7691396 
C    -2.8272895    2.3424804   -0.1281124 
N    -4.0064266    0.1805314    0.2633964 
H    -4.4853849    1.6071722   -1.2313992 
H    -3.3552007   -0.3137609   -0.3920857 
H    -3.5427043    0.1512118    1.2050438 
O    -2.0180451    2.3000118    1.0012997 
O    -2.4490246    3.1309422   -1.2045153 
H    -1.5584464    3.5621514   -0.9902715 
