13
UFF-Energy = 0.0616837
C    -5.1368594    1.8174180   -0.4723581 
C    -3.7574317    1.4135933    0.0611005 
H    -5.6215611    2.5175156    0.2444343 
H    -5.7882382    0.9255441   -0.5833890 
H    -5.0517313    2.3215299   -1.4580250 
C    -2.8356068    2.6206147    0.2505271 
N    -3.9731274    0.6797803    1.3185772 
H    -3.2484125    0.7569166   -0.6830811 
H    -4.3385704   -0.2776476    1.1044870 
H    -3.0548368    0.5344307    1.8075463 
O    -1.6494507    2.4786421    0.9581909 
O    -3.0894756    3.8293922   -0.3881253 
H    -2.8675980    3.7393572   -1.3679054 
