13
UFF-Energy = 0.066379
C    -4.6522326    2.6078915    0.8908664 
C    -4.2765392    1.4540588   -0.0639430 
H    -5.5341060    3.1582534    0.4979882 
H    -3.8248882    3.3408454    1.0165978 
H    -4.9275594    2.2242093    1.8982224 
C    -2.8841822    1.6145077   -0.6826161 
N    -4.4444354    0.1749467    0.6455863 
H    -4.9848499    1.4720939   -0.9280449 
H    -4.3411135   -0.6157244   -0.0365318 
H    -3.6913874    0.0498591    1.3628277 
O    -2.7618495    1.6913761   -2.0636837 
O    -1.7330923    1.7040880    0.1009358 
H    -1.9387545    1.6171044    1.0843482 
