    27
 Energy =       0.3571708280
c    -1.4235396    2.6054793   -0.0667700  0.00   -0.0463133    0.0382938    0.0027268
c    -1.3072796    1.2134697   -0.1072300  0.00   -0.0853949   -0.0324936    0.0020528
c    -0.0178900    0.6711998   -0.1697000  0.00   -0.0890001   -0.1879889   -0.0009583
c    -0.2940599    3.4190890   -0.0891300  0.00   -0.0232877    0.0690778    0.0029369
c     0.9872197    2.8590292   -0.1560400  0.00    0.0102399    0.0640263    0.0011120
c     1.1340797    1.4562096   -0.1970299  0.00    0.0525656    0.0514312    0.0019149
n     0.3879399   -0.6395298   -0.2140799  0.00    0.1472962    0.1086863   -0.0037197
c     2.2666594    0.5727398   -0.2659299  0.00    0.1893572   -0.1397257   -0.0821819
c     1.7555995   -0.7123598   -0.2706899  0.00    0.0122912   -0.0955732   -0.1785883
h    -0.2400399   -1.4313496   -0.2047299  0.00    0.0369263    0.0479736   -0.0004989
c     3.7030089    1.0223397   -0.3320099  0.00   -0.0346435   -0.0197468   -0.0640996
c     4.2197688    1.4064496   -1.7267995  0.00   -0.0706349    0.0302599    0.1221116
h     4.3261788    0.2093419    0.0639454  0.00   -0.0078912    0.0139536   -0.0031987
h     3.8370289    1.8640295    0.3610799  0.00   -0.0036276   -0.0120735   -0.0046329
c     3.7734089    0.3331939   -2.7369592  0.00    0.0145227   -0.0466785   -0.3810788
n     5.7205784    1.5052196   -1.8052095  0.00    0.0842597    0.0149533   -0.0406131
h     3.7949889    2.3605393   -2.0604594  0.00    0.0265272   -0.0108273   -0.0006664
h     5.9422883    2.4421693   -2.1574494  0.00   -0.0177806   -0.0289186    0.0201269
h     6.0817983    1.5118596   -0.8448278  0.00   -0.0267915    0.0019945   -0.0260192
h    -2.4108593    3.0588691   -0.0157800  0.00   -0.0009365    0.0003122    0.0000928
h    -2.1896094    0.5822398   -0.0890100  0.00   -0.0036527    0.0037215    0.0001045
h    -0.4052699    4.5000487   -0.0535400  0.00    0.0008862    0.0003790    0.0003492
h     1.8590495    3.5066790   -0.1715100  0.00   -0.0008724    0.0030346    0.0006483
h     2.2327294   -1.6813195   -0.3062999  0.00   -0.0365449   -0.0011059   -0.0147631
o     3.9573089    0.3724499   -3.9421789  0.00   -0.0311590   -0.0134182    0.2931299
o     3.1342991   -0.6931888   -2.1135494  0.00   -0.1138186    0.1146497    0.2822353
h     2.2354394   -0.7274878   -2.5324693  0.00    0.0174771    0.0258030    0.0714771
    27
 Energy =       0.2716717536
c    -1.3475881    2.6314695   -0.1061740  0.00   -0.0255032    0.0206679    0.0016796
c    -1.2512524    1.2539394   -0.1384481  0.00   -0.0475251   -0.0184436    0.0013383
c     0.0064700    0.6975912   -0.1902947  0.00   -0.0474823   -0.1044041    0.0005716
c    -0.2123338    3.4177688   -0.1274032  0.00   -0.0136332    0.0381353    0.0018975
c     1.0437738    2.8380350   -0.1816973  0.00    0.0055794    0.0360737    0.0007767
c     1.1448944    1.4554165   -0.2106423  0.00    0.0281635    0.0295929    0.0015422
n     0.3570321   -0.6488307   -0.2215189  0.00    0.0777392    0.0595611   -0.0055711
c     2.2424595    0.5927800   -0.2431723  0.00    0.1114629   -0.0828809   -0.0596961
c     1.7560153   -0.6764616   -0.2072501  0.00    0.0155881   -0.0447898   -0.1108156
h    -0.2833808   -1.4508318   -0.2336328  0.00    0.0204105    0.0265676   -0.0008801
c     3.6895408    0.9908525   -0.2923951  0.00   -0.0213630   -0.0152808   -0.0393672
c     4.1480072    1.3976127   -1.6980331  0.00   -0.0415128    0.0166683    0.0683717
h     4.3026690    0.1342527    0.0492825  0.00   -0.0036807    0.0056118   -0.0015310
h     3.8663200    1.8149331    0.4226846  0.00   -0.0015120   -0.0061486   -0.0014568
c     3.7064839    0.3346162   -2.7079991  0.00    0.0024401   -0.0224752   -0.2066494
n     5.6321508    1.5609444   -1.7820979  0.00    0.0486043    0.0066764   -0.0270204
h     3.6604104    2.3423981   -2.0002869  0.00    0.0135995   -0.0046193   -0.0006149
h     5.8257668    2.5204868   -2.1207313  0.00   -0.0103186   -0.0146833    0.0110204
h     6.0490747    1.5190077   -0.8330883  0.00   -0.0136915    0.0005851   -0.0107138
h    -2.3277467    3.1007551   -0.0633370  0.00   -0.0007170    0.0002028    0.0000740
h    -2.1396336    0.6313389   -0.1213063  0.00   -0.0020250    0.0019497    0.0000754
h    -0.3043535    4.5009847   -0.0995481  0.00    0.0003951    0.0004329    0.0002176
h     1.9330319    3.4619366   -0.1921965  0.00   -0.0001044    0.0018438    0.0002553
h     2.3122532   -1.6096649   -0.1611911  0.00   -0.0161416   -0.0041565   -0.0063734
o     3.9756089    0.4327876   -3.9734459  0.00   -0.0101770   -0.0042356    0.1603752
o     3.0834444   -0.7704678   -2.1663138  0.00   -0.0724177    0.0662200    0.1749602
h     2.1917071   -0.8862409   -2.6041193  0.00    0.0038225    0.0113284    0.0475341
    27
 Energy =       0.2383972271
c    -1.3153387    2.6463728   -0.1108783  0.00   -0.0139979    0.0112229    0.0009705
c    -1.2350819    1.2756107   -0.1132760  0.00   -0.0260045   -0.0106494    0.0004555
c     0.0025180    0.7056104   -0.1679881  0.00   -0.0245787   -0.0549309   -0.0021783
c    -0.1743028    3.4125584   -0.1586161  0.00   -0.0075166    0.0210518    0.0013229
c     1.0638983    2.8160564   -0.2128924  0.00    0.0031826    0.0200994    0.0007068
c     1.1346835    1.4443655   -0.2174404  0.00    0.0152871    0.0165022    0.0008661
n     0.3204647   -0.6629705   -0.1376759  0.00    0.0397502    0.0309050    0.0002617
c     2.2106714    0.5942607   -0.2459980  0.00    0.0630464   -0.0480352   -0.0369013
c     1.7361020   -0.6722448   -0.2047489  0.00    0.0186281   -0.0233203   -0.0760362
h    -0.3301218   -1.4690416   -0.0853670  0.00    0.0090463    0.0120503    0.0005313
c     3.6657526    0.9818966   -0.2888866  0.00   -0.0122650   -0.0094120   -0.0225759
c     4.1315571    1.3858490   -1.6981413  0.00   -0.0238963    0.0089187    0.0389373
h     4.2748809    0.1196428    0.0548878  0.00   -0.0021548    0.0029420   -0.0009314
h     3.8464821    1.8109415    0.4236328  0.00   -0.0008176   -0.0033454   -0.0008303
c     3.7313886    0.3239322   -2.7211273  0.00   -0.0029879   -0.0098561   -0.1115876
n     5.6046110    1.5999900   -1.7419046  0.00    0.0284336    0.0027738   -0.0163620
h     3.6123923    2.3165881   -2.0064900  0.00    0.0070222   -0.0021909   -0.0004282
h     5.7889241    2.5764283   -2.0539498  0.00   -0.0052903   -0.0070577    0.0061062
h     6.0277475    1.5206066   -0.7926109  0.00   -0.0074542    0.0001209   -0.0046527
h    -2.2888190    3.1289379   -0.0663288  0.00   -0.0005156    0.0001476    0.0000369
h    -2.1286998    0.6615262   -0.0651577  0.00   -0.0014991    0.0006580    0.0000795
h    -0.2505653    4.4975926   -0.1519578  0.00    0.0002324    0.0006214    0.0001383
h     1.9638298    3.4239386   -0.2451337  0.00    0.0003239    0.0012215    0.0001192
h     2.3250804   -1.5867838   -0.1709743  0.00   -0.0083560   -0.0023241   -0.0041589
o     4.0875122    0.4334005   -4.0105272  0.00   -0.0002694   -0.0016740    0.0843745
o     3.0565662   -0.7916993   -2.2519332  0.00   -0.0434214    0.0372243    0.1106936
h     2.1986914   -0.9059557   -2.7628724  0.00   -0.0039275    0.0063364    0.0310423
    27
 Energy =       0.2307084117
c    -1.3004457    2.6512815   -0.0736711  0.00   -0.0117284    0.0093653    0.0007989
c    -1.2266295    1.2818269   -0.0775645  0.00   -0.0217518   -0.0089075    0.0003611
c     0.0055317    0.7063505   -0.1373143  0.00   -0.0205733   -0.0457941   -0.0018235
c    -0.1566058    3.4107213   -0.1260456  0.00   -0.0063109    0.0176089    0.0010974
c     1.0763512    2.8081336   -0.1864410  0.00    0.0026744    0.0168091    0.0005785
c     1.1380739    1.4385779   -0.1921779  0.00    0.0127183    0.0138018    0.0006998
n     0.3135215   -0.6671007   -0.1199748  0.00    0.0331532    0.0257283    0.0002612
c     2.2077108    0.5886309   -0.2336558  0.00    0.0526409   -0.0403730   -0.0311793
c     1.7315583   -0.6768668   -0.2002218  0.00    0.0161335   -0.0195745   -0.0662505
h    -0.3403501   -1.4720789   -0.0655198  0.00    0.0075508    0.0100779    0.0004425
c     3.6648995    0.9727304   -0.2982766  0.00   -0.0102952   -0.0079579   -0.0188084
c     4.1090854    1.3900971   -1.7135656  0.00   -0.0203497    0.0070641    0.0327450
h     4.2791097    0.1063318    0.0274383  0.00   -0.0016768    0.0023309   -0.0007511
h     3.8584157    1.7961416    0.4183682  0.00   -0.0006746   -0.0027391   -0.0005974
c     3.7274725    0.3249742   -2.7408686  0.00   -0.0052314   -0.0073565   -0.0910955
n     5.5747708    1.6431757   -1.7624758  0.00    0.0246135    0.0017933   -0.0138243
h     3.5629877    2.3089151   -2.0141478  0.00    0.0056351   -0.0014787   -0.0004635
h     5.7344262    2.6290084   -2.0628663  0.00   -0.0043208   -0.0052328    0.0048758
h     6.0121268    1.5552515   -0.8194624  0.00   -0.0061757    0.0000537   -0.0036307
h    -2.2712889    3.1386242   -0.0252213  0.00   -0.0004531    0.0001305    0.0000317
h    -2.1226619    0.6715581   -0.0284134  0.00   -0.0012597    0.0005402    0.0000657
h    -0.2270937    4.4960697   -0.1189371  0.00    0.0001898    0.0005368    0.0001164
h     1.9794663    3.4107765   -0.2240357  0.00    0.0003012    0.0010322    0.0000973
h     2.3235715   -1.5902880   -0.1927596  0.00   -0.0067828   -0.0021782   -0.0035548
o     4.1606136    0.4006798   -4.0208028  0.00    0.0019524   -0.0009815    0.0664064
o     3.0107450   -0.7741474   -2.2941176  0.00   -0.0200655    0.0327598    0.1084885
h     2.2354624   -0.9619650   -2.9216255  0.00   -0.0199134    0.0029412    0.0149128
    27
 Energy =       0.2242227874
c    -1.2781118    2.7099453   -0.0653533  0.00   -0.0105386    0.0082893    0.0007066
c    -1.2305206    1.3403483   -0.0765487  0.00   -0.0192393   -0.0079830    0.0003309
c    -0.0110610    0.7418106   -0.1364532  0.00   -0.0179472   -0.0398781   -0.0015671
c    -0.1198955    3.4466752   -0.1113585  0.00   -0.0055515    0.0156980    0.0009497
c     1.1003920    2.8204571   -0.1719626  0.00    0.0025370    0.0149077    0.0004833
c     1.1342077    1.4513072   -0.1848615  0.00    0.0112344    0.0120675    0.0005779
n     0.2663081   -0.6394997   -0.1330629  0.00    0.0288692    0.0220429    0.0002409
c     2.1858181    0.5832645   -0.2305646  0.00    0.0461613   -0.0352713   -0.0274790
c     1.6862047   -0.6733392   -0.2097407  0.00    0.0144949   -0.0173807   -0.0591312
h    -0.4045899   -1.4321730   -0.0856274  0.00    0.0063250    0.0085221    0.0003882
c     3.6521957    0.9375748   -0.2895578  0.00   -0.0088074   -0.0068443   -0.0164536
c     4.1106894    1.3568960   -1.7013667  0.00   -0.0174658    0.0059866    0.0287044
h     4.2484868    0.0567783    0.0322821  0.00   -0.0013254    0.0018320   -0.0005682
h     3.8597785    1.7527482    0.4332679  0.00   -0.0005030   -0.0022676   -0.0004599
c     3.7362583    0.3001398   -2.7403489  0.00   -0.0051684   -0.0047355   -0.0808368
n     5.5761005    1.6085924   -1.7321142  0.00    0.0215826    0.0015330   -0.0121973
h     3.5686249    2.2784286   -2.0024966  0.00    0.0049117   -0.0012844   -0.0004269
h     5.7427818    2.5963785   -2.0241663  0.00   -0.0037307   -0.0044719    0.0042427
h     6.0069466    1.5088341   -0.7866472  0.00   -0.0053303    0.0000326   -0.0030230
h    -2.2395837    3.2158175   -0.0170369  0.00   -0.0006007    0.0002144    0.0000380
h    -2.1382116    0.7467605   -0.0344743  0.00   -0.0012971    0.0003218    0.0000658
h    -0.1690965    4.5333016   -0.0991932  0.00    0.0001533    0.0007233    0.0001035
h     2.0155727    3.4051075   -0.2051625  0.00    0.0004679    0.0010558    0.0000767
h     2.2639187   -1.5959851   -0.2177241  0.00   -0.0058245   -0.0021292   -0.0031454
o     4.2298930    0.3561518   -4.0068147  0.00    0.0028357   -0.0000926    0.0555687
o     2.9572906   -0.7715375   -2.3268907  0.00    0.0004186    0.0333639    0.1242876
h     2.3104272   -1.0473734   -3.0803787  0.00   -0.0366617   -0.0042522   -0.0114765
    27
 Energy =       0.2175420083
c    -1.2619065    2.7503653   -0.0686534  0.00   -0.0082656    0.0063657    0.0005484
c    -1.2362735    1.3819189   -0.0872120  0.00   -0.0148389   -0.0062602    0.0002825
c    -0.0289179    0.7645095   -0.1444481  0.00   -0.0135849   -0.0303129   -0.0011071
c    -0.0922890    3.4671496   -0.1055060  0.00   -0.0042724    0.0122032    0.0007114
c     1.1158799    2.8213426   -0.1632008  0.00    0.0020827    0.0115507    0.0003384
c     1.1250030    1.4544403   -0.1831253  0.00    0.0086945    0.0091812    0.0003986
n     0.2222944   -0.6242851   -0.1554866  0.00    0.0219527    0.0164512    0.0001175
c     2.1605821    0.5749509   -0.2295913  0.00    0.0355370   -0.0271186   -0.0215345
c     1.6453759   -0.6741164   -0.2214815  0.00    0.0119785   -0.0133929   -0.0465226
h    -0.4618638   -1.4083036   -0.1196851  0.00    0.0045974    0.0062870    0.0002747
c     3.6336067    0.9078275   -0.2778431  0.00   -0.0067423   -0.0051761   -0.0124975
c     4.1084455    1.3304044   -1.6853540  0.00   -0.0146927    0.0041901    0.0231505
h     4.2179861    0.0185946    0.0443782  0.00   -0.0009491    0.0013078   -0.0004047
h     3.8457491    1.7178290    0.4503718  0.00   -0.0003224   -0.0016824   -0.0003593
c     3.7833096    0.2644160   -2.7332446  0.00   -0.0063070   -0.0008296   -0.0594066
n     5.5654266    1.6239535   -1.6824735  0.00    0.0180152    0.0009922   -0.0092461
h     3.5464265    2.2365384   -1.9999505  0.00    0.0033861   -0.0007309   -0.0003572
h     5.7142968    2.6183782   -1.9653356  0.00   -0.0026593   -0.0030244    0.0031995
h     5.9859393    1.5225670   -0.7316200  0.00   -0.0040053    0.0001000   -0.0021721
h    -2.2152183    3.2717025   -0.0227177  0.00   -0.0006098    0.0002303    0.0000371
h    -2.1534201    0.8024218   -0.0545917  0.00   -0.0011498    0.0001207    0.0000564
h    -0.1233637    4.5544025   -0.0883321  0.00    0.0001105    0.0007402    0.0000804
h     2.0411057    3.3903444   -0.1894839  0.00    0.0005231    0.0009258    0.0000537
h     2.2160485   -1.6009301   -0.2458181  0.00   -0.0043848   -0.0017481   -0.0025104
o     4.3886462    0.2780250   -3.9669210  0.00    0.0078153    0.0007141    0.0339557
o     2.9288786   -0.7734640   -2.3765301  0.00    0.0033903    0.0249337    0.1129456
h     2.3890774   -1.0835729   -3.2005002  0.00   -0.0352990   -0.0060177   -0.0200321
    27
 Energy =       0.2168172943
c    -1.2762603    2.7342146   -0.0786789  0.00   -0.0076724    0.0059007    0.0005094
c    -1.2457820    1.3662833   -0.1016457  0.00   -0.0137596   -0.0058111    0.0002670
c    -0.0366437    0.7533295   -0.1563350  0.00   -0.0125920   -0.0280726   -0.0010143
c    -0.1092129    3.4548807   -0.1088727  0.00   -0.0039436    0.0113225    0.0006568
c     1.1007862    2.8134594   -0.1638244  0.00    0.0019512    0.0107110    0.0003103
c     1.1141441    1.4473103   -0.1879852  0.00    0.0080620    0.0085178    0.0003639
n     0.2193200   -0.6353320   -0.1727458  0.00    0.0202869    0.0152189    0.0001040
c     2.1528002    0.5734426   -0.2327368  0.00    0.0328830   -0.0251079   -0.0199860
c     1.6437748   -0.6778757   -0.2315028  0.00    0.0111527   -0.0124327   -0.0431662
h    -0.4615929   -1.4228932   -0.1434411  0.00    0.0042272    0.0057820    0.0002514
c     3.6247336    0.9148530   -0.2706973  0.00   -0.0063519   -0.0048005   -0.0115368
c     4.1087740    1.3392925   -1.6753294  0.00   -0.0152410    0.0035991    0.0225926
h     4.2136538    0.0311628    0.0587999  0.00   -0.0008321    0.0011709   -0.0003771
h     3.8244631    1.7279290    0.4579376  0.00   -0.0002896   -0.0014921   -0.0002805
c     3.8362596    0.2518082   -2.7182311  0.00   -0.0095351    0.0000892   -0.0496636
n     5.5552464    1.6820367   -1.6493255  0.00    0.0181511    0.0005627   -0.0084012
h     3.5215181    2.2234490   -2.0083749  0.00    0.0026091   -0.0001832   -0.0004498
h     5.6765943    2.6788750   -1.9387826  0.00   -0.0023227   -0.0021479    0.0028269
h     5.9644749    1.6014083   -0.6910779  0.00   -0.0033015    0.0002037   -0.0016244
h    -2.2314980    3.2521230   -0.0347693  0.00   -0.0005750    0.0002163    0.0000353
h    -2.1609387    0.7834262   -0.0748131  0.00   -0.0010858    0.0000974    0.0000534
h    -0.1439905    4.5419295   -0.0884637  0.00    0.0001060    0.0006985    0.0000747
h     2.0241857    3.3855880   -0.1849364  0.00    0.0005059    0.0008659    0.0000498
h     2.2202962   -1.6008542   -0.2608866  0.00   -0.0040471   -0.0016487   -0.0023438
o     4.5473993    0.2043191   -3.9031493  0.00    0.0131014    0.0006335    0.0221229
o     2.9328137   -0.7564865   -2.3971400  0.00    0.0025006    0.0221599    0.1097817
h     2.4455056   -1.0802691   -3.2473483  0.00   -0.0339877   -0.0060533   -0.0211563
    27
 Energy =       0.2140536521
c    -1.2410721    2.7863620   -0.0597909  0.00   -0.0074723    0.0056823    0.0004898
c    -1.2338598    1.4183350   -0.0832818  0.00   -0.0132107   -0.0056120    0.0002554
c    -0.0358462    0.7850268   -0.1420453  0.00   -0.0119479   -0.0265509   -0.0009631
c    -0.0619707    3.4869005   -0.0935779  0.00   -0.0037445    0.0109489    0.0006246
c     1.1366590    2.8248790   -0.1528840  0.00    0.0020333    0.0102555    0.0002873
c     1.1262832    1.4589870   -0.1777433  0.00    0.0076929    0.0080677    0.0003380
n     0.1949599   -0.6082736   -0.1614269  0.00    0.0190438    0.0142243    0.0001078
c     2.1491185    0.5676291   -0.2284455  0.00    0.0311402   -0.0237050   -0.0189489
c     1.6187927   -0.6746584   -0.2268472  0.00    0.0107183   -0.0119145   -0.0408482
h    -0.5001299   -1.3838321   -0.1300127  0.00    0.0038024    0.0052543    0.0002467
c     3.6271029    0.8808255   -0.2768752  0.00   -0.0059450   -0.0045122   -0.0110318
c     4.1051770    1.3093005   -1.6823043  0.00   -0.0158543    0.0032186    0.0225060
h     4.2014028   -0.0184839    0.0371603  0.00   -0.0005709    0.0008474   -0.0002859
h     3.8506120    1.6829381    0.4575975  0.00   -0.0001910   -0.0011553   -0.0000339
c     3.7813121    0.2510317   -2.7414657  0.00   -0.0131547   -0.0003823   -0.0380146
n     5.5633439    1.6023360   -1.6715657  0.00    0.0181714   -0.0001752   -0.0081464
h     3.5434663    2.2192631   -1.9923083  0.00    0.0018799    0.0005060   -0.0006079
h     5.7145718    2.6011779   -1.9421447  0.00   -0.0020404   -0.0010364    0.0024491
h     5.9859753    1.4862858   -0.7219086  0.00   -0.0023178    0.0002143   -0.0005536
h    -2.1873227    3.3205227   -0.0127293  0.00   -0.0007090    0.0002948    0.0000416
h    -2.1587790    0.8509647   -0.0540045  0.00   -0.0011810   -0.0000038    0.0000553
h    -0.0781066    4.5745113   -0.0727789  0.00    0.0000955    0.0008457    0.0000745
h     2.0698029    3.3810789   -0.1769775  0.00    0.0006430    0.0009198    0.0000402
h     2.1800127   -1.6071094   -0.2615470  0.00   -0.0037277   -0.0017228   -0.0022212
o     4.3886462    0.2795006   -3.9909755  0.00    0.0176693    0.0008625    0.0091523
o     2.9108590   -0.7821259   -2.4020632  0.00    0.0013117    0.0203988    0.1052690
h     2.4098134   -1.1059631   -3.2434104  0.00   -0.0321346   -0.0057706   -0.0202820
    27
 Energy =       0.2074501434
c    -1.1842527    2.8636965   -0.0245457  0.00   -0.0061520    0.0045352    0.0003770
c    -1.2181420    1.4972449   -0.0625489  0.00   -0.0102652   -0.0045624    0.0002036
c    -0.0414192    0.8289754   -0.1288699  0.00   -0.0087510   -0.0192673   -0.0006229
c     0.0152757    3.5278645   -0.0522367  0.00   -0.0028134    0.0088204    0.0004479
c     1.1920921    2.8302836   -0.1195779  0.00    0.0020324    0.0080119    0.0001649
c     1.1386081    1.4671951   -0.1589705  0.00    0.0058745    0.0058855    0.0001981
n     0.1441409   -0.5729575   -0.1717484  0.00    0.0137591    0.0095577    0.0000223
c     2.1325295    0.5493543   -0.2250819  0.00    0.0233256   -0.0174395   -0.0144724
c     1.5680974   -0.6769922   -0.2410560  0.00    0.0088633   -0.0092413   -0.0311624
h    -0.5748356   -1.3289202   -0.1505159  0.00    0.0021606    0.0032274    0.0001813
c     3.6202267    0.8182286   -0.2820190  0.00   -0.0040707   -0.0032435   -0.0084011
c     4.0940946    1.2683367   -1.6836094  0.00   -0.0123978    0.0024743    0.0175820
h     4.1713727   -0.1065281    0.0023527  0.00    0.0001411   -0.0001734    0.0000524
h     3.8762303    1.5961009    0.4694912  0.00    0.0001654   -0.0002126    0.0006082
c     3.7314655    0.2537965   -2.7722345  0.00   -0.0129784   -0.0018593   -0.0151771
n     5.5575488    1.5243621   -1.6791839  0.00    0.0129082   -0.0013092   -0.0072961
h     3.5524427    2.2016188   -1.9620417  0.00    0.0008534    0.0011312   -0.0006928
h     5.7331756    2.5300556   -1.9124169  0.00   -0.0013242    0.0008556    0.0014313
h     5.9941436    1.3536248   -0.7421181  0.00   -0.0003520   -0.0001985    0.0018863
h    -2.1141307    3.4259970    0.0283502  0.00   -0.0010162    0.0005159    0.0000571
h    -2.1598408    0.9572593   -0.0403398  0.00   -0.0013470   -0.0003254    0.0000504
h     0.0323865    4.6155793   -0.0205833  0.00    0.0000639    0.0012690    0.0000701
h     2.1421192    3.3578827   -0.1394810  0.00    0.0009685    0.0010080    0.0000062
h     2.1066049   -1.6221611   -0.3007556  0.00   -0.0024247   -0.0018782   -0.0017115
o     4.2298930    0.3878146   -4.0717112  0.00    0.0176709    0.0017795   -0.0080529
o     2.8881827   -0.8088860   -2.4542860  0.00   -0.0003979    0.0156867    0.0805051
h     2.4328153   -1.1514162   -3.3086183  0.00   -0.0244964   -0.0050477   -0.0162550
    27
 Energy =       0.2019298424
c    -1.1462370    2.8806936    0.0490040  0.00   -0.0040099    0.0033365    0.0002203
c    -1.2055739    1.5176159   -0.0259389  0.00   -0.0064589   -0.0032573    0.0001313
c    -0.0438553    0.8298011   -0.1141856  0.00   -0.0052960   -0.0110122   -0.0001484
c     0.0645534    3.5219779    0.0351175  0.00   -0.0018349    0.0059913    0.0002135
c     1.2257658    2.8045293   -0.0549304  0.00    0.0014643    0.0054548    0.0000332
c     1.1447949    1.4462506   -0.1315452  0.00    0.0034569    0.0036340    0.0000601
n     0.1137298   -0.5762598   -0.2068306  0.00    0.0086281    0.0044270   -0.0001497
c     2.1198539    0.5175892   -0.2334048  0.00    0.0146203   -0.0106035   -0.0092274
c     1.5380003   -0.6985432   -0.2876432  0.00    0.0061998   -0.0060970   -0.0206325
h    -0.6181152   -1.3218390   -0.2070486  0.00    0.0009141    0.0014800    0.0000685
c     3.6116342    0.7661469   -0.3010385  0.00   -0.0032188   -0.0022605   -0.0047231
c     4.0715637    1.2769998   -1.6900880  0.00   -0.0071888    0.0022215    0.0112014
h     4.1547673   -0.1789321   -0.0676732  0.00    0.0007885   -0.0013638    0.0004387
h     3.8887509    1.5062251    0.4823984  0.00    0.0003710    0.0007398    0.0014504
c     3.7099722    0.3123873   -2.8228156  0.00   -0.0080390   -0.0011639   -0.0040944
n     5.5303209    1.5449556   -1.6829318  0.00    0.0064153   -0.0031279   -0.0073519
h     3.5211716    2.2178774   -1.9246323  0.00    0.0001624    0.0016323   -0.0005915
h     5.6987671    2.5662094   -1.8546375  0.00   -0.0004395    0.0037554    0.0001777
h     5.9820864    1.3113015   -0.7647670  0.00    0.0010266   -0.0011007    0.0044536
h    -2.0650413    3.4589226    0.1193808  0.00   -0.0008733    0.0005805    0.0000515
h    -2.1568083    0.9945830   -0.0175520  0.00   -0.0010290   -0.0004442    0.0000267
h     0.1025044    4.6081115    0.0954120  0.00    0.0000198    0.0014271    0.0000632
h     2.1853442    3.3143715   -0.0646729  0.00    0.0007790    0.0008349   -0.0000168
h     2.0659430   -1.6461283   -0.3982406  0.00   -0.0009075   -0.0023908   -0.0013079
o     4.1549025    0.5465677   -4.1292370  0.00    0.0132887    0.0021610   -0.0123212
o     2.8944815   -0.7876705   -2.5621211  0.00   -0.0012503    0.0103982    0.0559986
h     2.5175479   -1.1463338   -3.4437341  0.00   -0.0175888   -0.0052527   -0.0140241
    27
 Energy =       0.1990479024
c    -1.1136449    2.8637283    0.1742603  0.00   -0.0029534    0.0024838    0.0001344
c    -1.1813995    1.5035291    0.0746118  0.00   -0.0046330   -0.0018949    0.0000870
c    -0.0264740    0.8122349   -0.0553936  0.00   -0.0035185   -0.0068468   -0.0000554
c     0.0992938    3.4986083    0.1429104  0.00   -0.0017104    0.0042801    0.0001566
c     1.2533422    2.7776521    0.0095705  0.00    0.0013679    0.0033524   -0.0000295
c     1.1628338    1.4230864   -0.0919352  0.00    0.0019585    0.0023841    0.0000707
n     0.1216438   -0.5934085   -0.1829684  0.00    0.0050052    0.0026140    0.0000040
c     2.1299804    0.4957222   -0.2429281  0.00    0.0095513   -0.0074438   -0.0059810
c     1.5445305   -0.7166633   -0.3073917  0.00    0.0051333   -0.0037997   -0.0139317
h    -0.6125626   -1.3371972   -0.1785676  0.00    0.0005540    0.0009235    0.0000066
c     3.6198615    0.7425466   -0.3577012  0.00   -0.0022730   -0.0017120   -0.0023751
c     4.0316829    1.3003213   -1.7461504  0.00   -0.0050443    0.0014232    0.0069620
h     4.1706442   -0.2098211   -0.1744397  0.00    0.0013257   -0.0018445    0.0005225
h     3.9249025    1.4566814    0.4397289  0.00    0.0002403    0.0008573    0.0017363
c     3.6597817    0.3670421   -2.9007349  0.00   -0.0050579   -0.0007800   -0.0007126
n     5.4839136    1.5973316   -1.7678614  0.00    0.0042771   -0.0033535   -0.0072420
h     3.4576731    2.2371837   -1.9386435  0.00   -0.0005080    0.0019835   -0.0005720
h     5.6293514    2.6292374   -1.8944629  0.00   -0.0003009    0.0045873   -0.0003773
h     5.9701041    1.3231605   -0.8780358  0.00    0.0017596   -0.0016604    0.0054328
h    -2.0276208    3.4449481    0.2781340  0.00   -0.0010633    0.0006992    0.0000735
h    -2.1346599    0.9850703    0.0955403  0.00   -0.0007962   -0.0002728    0.0000003
h     0.1442711    4.5829361    0.2232123  0.00   -0.0001341    0.0011495    0.0000689
h     2.2149168    3.2827316   -0.0147946  0.00    0.0006365    0.0005268   -0.0000014
h     2.0691986   -1.6594590   -0.4686910  0.00    0.0002900   -0.0025572   -0.0011535
o     4.0610114    0.6612314   -4.2078992  0.00    0.0097222    0.0019876   -0.0110128
o     2.8679927   -0.7565990   -2.6700658  0.00   -0.0015448    0.0071021    0.0387235
h     2.5402567   -1.1244252   -3.5636596  0.00   -0.0122838   -0.0041892   -0.0105346
    27
 Energy =       0.1981711856
c    -1.0539000    2.9052973    0.2789068  0.00   -0.0034565    0.0018904    0.0001895
c    -1.1421463    1.5454480    0.1940947  0.00   -0.0047514   -0.0016719    0.0001303
c    -0.0009942    0.8388923    0.0286587  0.00   -0.0032810   -0.0060285   -0.0000550
c     0.1655592    3.5246334    0.1979591  0.00   -0.0010758    0.0042019    0.0001396
c     1.3052993    2.7883940    0.0286028  0.00    0.0019962    0.0028652   -0.0000832
c     1.1939110    1.4346420   -0.0577773  0.00    0.0021183    0.0021263    0.0000517
n     0.1247728   -0.5698779   -0.0913694  0.00    0.0028197    0.0024752    0.0002227
c     2.1433566    0.4951315   -0.2390104  0.00    0.0080480   -0.0060653   -0.0048026
c     1.5416316   -0.7103728   -0.2701112  0.00    0.0050812   -0.0034246   -0.0115803
h    -0.6180988   -1.3050614   -0.0518427  0.00   -0.0003934    0.0000352    0.0000584
c     3.6307953    0.7227798   -0.4188455  0.00   -0.0009937   -0.0017896   -0.0016592
c     3.9903844    1.2704720   -1.8265127  0.00   -0.0052048    0.0013468    0.0055446
h     4.1785655   -0.2345641   -0.2546938  0.00    0.0014194   -0.0016214    0.0004302
h     3.9771348    1.4367719    0.3625440  0.00    0.0004857    0.0012014    0.0022435
c     3.5739329    0.3338541   -2.9639177  0.00   -0.0043329   -0.0007658   -0.0005023
n     5.4418733    1.5653460   -1.9034027  0.00    0.0046616   -0.0023815   -0.0070351
h     3.4112884    2.2072377   -2.0023372  0.00   -0.0006683    0.0016899   -0.0005732
h     5.5850750    2.5951601   -2.0459788  0.00   -0.0000261    0.0040280   -0.0002928
h     5.9605932    1.2986825   -1.0297404  0.00    0.0021746   -0.0015690    0.0053966
h    -1.9567580    3.4986772    0.4106036  0.00   -0.0014528    0.0007217    0.0001223
h    -2.1009344    1.0389840    0.2542934  0.00   -0.0015004   -0.0005673    0.0000543
h     0.2270054    4.6089407    0.2670335  0.00   -0.0000060    0.0011737    0.0000627
h     2.2721474    3.2812670   -0.0356611  0.00    0.0013830    0.0007949   -0.0000445
h     2.0493885   -1.6589668   -0.4500626  0.00    0.0005594   -0.0023607   -0.0010200
o     3.9365260    0.6208533   -4.2832002  0.00    0.0083192    0.0017481   -0.0101705
o     2.7771442   -0.7814425   -2.7086899  0.00   -0.0016593    0.0054981    0.0321389
h     2.4472717   -1.1637693   -3.5938994  0.00   -0.0102640   -0.0035512   -0.0089666
    27
 Energy =       0.1977894767
c    -1.0101270    2.8889068    0.4033684  0.00   -0.0035133    0.0016006    0.0002252
c    -1.1032006    1.5303119    0.3089599  0.00   -0.0046524   -0.0010479    0.0002089
c     0.0310015    0.8236449    0.1002403  0.00   -0.0029281   -0.0050774   -0.0000210
c     0.2073255    3.5068737    0.2889592  0.00   -0.0011718    0.0039211    0.0001774
c     1.3397836    2.7706252    0.0753438  0.00    0.0023035    0.0020756   -0.0001658
c     1.2231874    1.4184037   -0.0207094  0.00    0.0018187    0.0018633    0.0000756
n     0.1504414   -0.5842127   -0.0389501  0.00    0.0013169    0.0023687    0.0004061
c     2.1643670    0.4804877   -0.2465785  0.00    0.0066908   -0.0054151   -0.0037957
c     1.5609235   -0.7238304   -0.2692415  0.00    0.0050614   -0.0027496   -0.0094662
h    -0.5917049   -1.3190953    0.0189345  0.00   -0.0005680   -0.0001198    0.0000685
c     3.6442200    0.7090821   -0.4838580  0.00   -0.0003139   -0.0016155   -0.0006617
c     3.9483812    1.2862744   -1.8943779  0.00   -0.0049452    0.0012527    0.0041482
h     4.1976336   -0.2516214   -0.3609017  0.00    0.0018453   -0.0019516    0.0004642
h     4.0222792    1.4069432    0.2977151  0.00    0.0004925    0.0012316    0.0025204
c     3.4989878    0.3715737   -3.0376550  0.00   -0.0033065   -0.0004357   -0.0007001