    27
 Energy =       0.2979167089
c    -1.4235396    2.6054793   -0.0667700  0.00   -0.0462744    0.0383117    0.0028874
c    -1.3072796    1.2134697   -0.1072300  0.00   -0.0852275   -0.0325941    0.0021198
c    -0.0178900    0.6711998   -0.1697000  0.00   -0.0888852   -0.1879207   -0.0015667
c    -0.2940599    3.4190890   -0.0891300  0.00   -0.0230890    0.0690399    0.0030855
c     0.9872197    2.8590292   -0.1560400  0.00    0.0105987    0.0640970    0.0012377
c     1.1340797    1.4562096   -0.1970299  0.00    0.0532921    0.0515834    0.0016694
n     0.3879399   -0.6395298   -0.2140799  0.00    0.1428837    0.1100466   -0.0027144
c     2.2666594    0.5727398   -0.2659299  0.00    0.1479815   -0.0621931   -0.0107701
c     1.7555995   -0.7123598   -0.2706899  0.00   -0.0844277   -0.1029608    0.0169783
h    -0.2400399   -1.4313496   -0.2047299  0.00    0.0368764    0.0479735   -0.0007762
c     3.7030089    1.0223397   -0.3320099  0.00   -0.0102562   -0.0178420    0.0186335
c     4.7465686   -0.0024900    0.1378100  0.00   -0.0512815   -0.0320400   -0.1304758
h     3.7978489    1.9290294    0.2803699  0.00   -0.0000075   -0.0101505   -0.0128249
h     3.9233889    1.3348996   -1.3618196  0.00   -0.0047734    0.0011189    0.0136626
c     4.2682788   -0.6309508    1.4598596  0.00   -0.0617988    0.1735201    0.3591305
n     6.1061283    0.5956748    0.3870399  0.00    0.0766900    0.0160049    0.0679588
h     4.8578986   -0.8184518   -0.5859768  0.00    0.0041613    0.0124370    0.0176198
h     6.0567283    1.5811395    0.1086060  0.00   -0.0217781   -0.0342165    0.0109992
h     6.2469182    0.6340138    1.4027096  0.00   -0.0386787   -0.0157655   -0.0351742
h    -2.4108593    3.0588691   -0.0157800  0.00   -0.0007987    0.0002482   -0.0000624
h    -2.1896094    0.5822398   -0.0890100  0.00   -0.0036413    0.0037953   -0.0000471
h    -0.4052699    4.5000487   -0.0535400  0.00    0.0008470    0.0002389    0.0001518
h     1.8590495    3.5066790   -0.1715100  0.00   -0.0005747    0.0028096    0.0004631
h     2.2327294   -1.6813195   -0.3062999  0.00   -0.0251558   -0.0152688    0.0301038
o     4.1136388   -0.0362250    2.5135593  0.00    0.0491393   -0.1429247   -0.2554273
o     4.0295989   -1.9621694    1.3133496  0.00    0.0133512    0.0325698   -0.0456779
h     3.0647291   -2.0733294    1.5165596  0.00    0.0108274    0.0300818   -0.0511843
    27
 Energy =       0.2767464565
c    -1.4378874    2.5682088   -0.0727731  0.00   -0.0412878    0.0342423    0.0026014
c    -1.3135208    1.1803596   -0.1110216  0.00   -0.0761548   -0.0290931    0.0019269
c    -0.0262326    0.6462899   -0.1666363  0.00   -0.0794150   -0.1678891   -0.0011354
c    -0.3147237    3.3859546   -0.0925937  0.00   -0.0206056    0.0616808    0.0027838
c     0.9653455    2.8330633   -0.1529338  0.00    0.0095697    0.0572344    0.0011143
c     1.1143737    1.4364879   -0.1884188  0.00    0.0473892    0.0464086    0.0015559
n     0.3824734   -0.6694439   -0.2121627  0.00    0.1259820    0.0988251   -0.0030626
c     2.2499318    0.5734026   -0.2388507  0.00    0.1319916   -0.0553136   -0.0093558
c     1.7599826   -0.7174727   -0.2190445  0.00   -0.0742472   -0.0918763    0.0159485
h    -0.2372362   -1.4727490   -0.2223404  0.00    0.0326690    0.0424808   -0.0008033
c     3.6807084    1.0516192   -0.3071229  0.00   -0.0104706   -0.0165265    0.0166132
c     4.7528556    0.0258429    0.0996477  0.00   -0.0456968   -0.0295160   -0.1168981
h     3.7701125    1.9295235    0.3519084  0.00   -0.0003386   -0.0079522   -0.0104830
h     3.8789856    1.4179864   -1.3270951  0.00   -0.0039135    0.0016473    0.0106733
c     4.3244291   -0.6142147    1.4272728  0.00   -0.0551138    0.1547512    0.3226575
n     6.1123597    0.6360884    0.2965542  0.00    0.0697073    0.0143432    0.0586451
h     4.8348267   -0.7821953   -0.6400737  0.00    0.0039050    0.0108282    0.0152416
h     6.0497323    1.6247214    0.0218625  0.00   -0.0192840   -0.0303399    0.0096651
h     6.3092123    0.6630635    1.3067033  0.00   -0.0340513   -0.0141129   -0.0288882
h    -2.4278611    3.0162359   -0.0267050  0.00   -0.0007402    0.0002395   -0.0000523
h    -2.1914938    0.5430714   -0.0967103  0.00   -0.0032851    0.0033785   -0.0000399
h    -0.4314642    4.4664366   -0.0596522  0.00    0.0007563    0.0002331    0.0001376
h     1.8353251    3.4832299   -0.1644474  0.00   -0.0004862    0.0024906    0.0004080
h     2.2622199   -1.6765669   -0.1984151  0.00   -0.0195807   -0.0156611    0.0290332
o     4.1661347    0.0035403    2.4893276  0.00    0.0430441   -0.1272550   -0.2285130
o     4.0546566   -1.9424298    1.2909959  0.00    0.0371261    0.0314451   -0.0553473
h     3.1262180   -2.0560788    1.6753127  0.00   -0.0174690    0.0253071   -0.0344266
    27
 Energy =       0.2162405769
c    -1.3838290    2.5752873   -0.1295047  0.00   -0.0168313    0.0139970    0.0011996
c    -1.2670662    1.2051276   -0.1626111  0.00   -0.0323381   -0.0125446    0.0010012
c    -0.0100748    0.6685006   -0.2164027  0.00   -0.0322040   -0.0710119   -0.0021883
c    -0.2629030    3.3738980   -0.1467129  0.00   -0.0092603    0.0257454    0.0013267
c     0.9937060    2.8121311   -0.1974586  0.00    0.0043375    0.0245568    0.0005212
c     1.1061949    1.4399925   -0.2318292  0.00    0.0182152    0.0208482    0.0005385
n     0.3520014   -0.6847894   -0.2284403  0.00    0.0511335    0.0398584    0.0017718
c     2.2143117    0.6192981   -0.2612579  0.00    0.0560080   -0.0246498   -0.0055412
c     1.7606576   -0.6664002   -0.2671840  0.00   -0.0321000   -0.0370588    0.0067631
h    -0.2712360   -1.5079862   -0.2171478  0.00    0.0141172    0.0178803    0.0003720
c     3.6568981    1.1000652   -0.2367341  0.00   -0.0039548   -0.0089332    0.0067611
c     4.7019413    0.0235690    0.1430911  0.00   -0.0212385   -0.0141640   -0.0493909
h     3.7321068    1.9232067    0.5088436  0.00    0.0010862   -0.0003825   -0.0006377
h     3.9061768    1.5342755   -1.2287406  0.00   -0.0006475    0.0029217    0.0014176
c     4.2833269   -0.6703781    1.4342280  0.00   -0.0228352    0.0681637    0.1369971
n     6.0655111    0.6082870    0.2884746  0.00    0.0277631    0.0042402    0.0203055
h     4.7366463   -0.7650805   -0.6355726  0.00    0.0009358    0.0031799    0.0057363
h     6.0633189    1.6111299    0.0124341  0.00   -0.0079991   -0.0104822    0.0039971
h     6.3493138    0.5951397    1.2942089  0.00   -0.0139086   -0.0075062   -0.0057189
h    -2.3703639    3.0305190   -0.0855870  0.00   -0.0003573    0.0000855   -0.0000161
h    -2.1447199    0.5678380   -0.1418580  0.00   -0.0013550    0.0013845    0.0000286
h    -0.3688854    4.4556801   -0.1161332  0.00    0.0002699    0.0001567    0.0000690
h     1.8756628    3.4458687   -0.2046077  0.00   -0.0000253    0.0009914    0.0001798
h     2.3447653   -1.5808506   -0.2530886  0.00   -0.0019017   -0.0088633    0.0188454
o     4.1165787   -0.0113542    2.5709325  0.00    0.0192316   -0.0543498   -0.0992273
o     3.9747001   -2.0081880    1.3371804  0.00    0.0274707    0.0149876   -0.0294116
h     3.0947233   -2.1408122    1.8340658  0.00   -0.0236122    0.0109489   -0.0156999
    27
 Energy =       0.2050162011
c    -1.3928486    2.5425727   -0.1625886  0.00   -0.0107483    0.0088992    0.0008354
c    -1.2686616    1.1776101   -0.2001371  0.00   -0.0207747   -0.0080147    0.0008032
c    -0.0149736    0.6484436   -0.2370006  0.00   -0.0204586   -0.0452399   -0.0009368
c    -0.2772230    3.3432998   -0.1616162  0.00   -0.0058658    0.0164990    0.0008641
c     0.9770892    2.7871656   -0.1961774  0.00    0.0030075    0.0156269    0.0002761
c     1.0898203    1.4220020   -0.2317942  0.00    0.0115592    0.0135928    0.0002658
n     0.3460368   -0.7118026   -0.2653389  0.00    0.0316076    0.0254678    0.0004138
c     2.1966484    0.6210036   -0.2464049  0.00    0.0361185   -0.0156777   -0.0037101
c     1.7640843   -0.6674173   -0.2655987  0.00   -0.0195258   -0.0237301    0.0052821
h    -0.2726959   -1.5447400   -0.2803743  0.00    0.0087090    0.0108984    0.0000491
c     3.6343424    1.1207061   -0.2166459  0.00   -0.0026019   -0.0055570    0.0042175
c     4.6966552    0.0579734    0.1580954  0.00   -0.0141661   -0.0092871   -0.0317598
h     3.6986418    1.9426987    0.5315526  0.00    0.0006436   -0.0001606   -0.0003907
h     3.8787190    1.5561976   -1.2096091  0.00   -0.0003986    0.0018785    0.0009021
c     4.3048464   -0.6472712    1.4494186  0.00   -0.0146419    0.0439959    0.0875274
n     6.0521732    0.6639043    0.2648668  0.00    0.0181242    0.0024270    0.0104905
h     4.7264832   -0.7316617   -0.6226673  0.00    0.0005885    0.0020452    0.0036250
h     6.0329489    1.6768364    0.0157966  0.00   -0.0053866   -0.0058022    0.0022000
h     6.3897510    0.6228337    1.2566752  0.00   -0.0082100   -0.0052636   -0.0007590
h    -2.3819627    2.9932854   -0.1318247  0.00   -0.0003363    0.0000720   -0.0000004
h    -2.1426085    0.5347010   -0.1983047  0.00   -0.0010487    0.0007872    0.0000231
h    -0.3873986    4.4246278   -0.1295838  0.00    0.0001811    0.0001128    0.0000436
h     1.8573538    3.4232366   -0.1896069  0.00    0.0001279    0.0006161    0.0001118
h     2.3730941   -1.5666492   -0.2419246  0.00   -0.0001088   -0.0064994    0.0142605
o     4.1379667    0.0279354    2.6045002  0.00    0.0123050   -0.0344933   -0.0635069
o     4.0159229   -1.9952761    1.3760610  0.00    0.0315668    0.0121114   -0.0291859
h     3.2152586   -2.1682409    1.9928189  0.00   -0.0302667    0.0046955   -0.0019415
    27
 Energy =       0.2005550278
c    -1.4153515    2.5089309   -0.1681378  0.00   -0.0081456    0.0068103    0.0006528
c    -1.2799011    1.1465647   -0.1946887  0.00   -0.0157459   -0.0060930    0.0006037
c    -0.0247214    0.6276670   -0.2243991  0.00   -0.0155362   -0.0342219   -0.0007911
c    -0.3069004    3.3171982   -0.1712537  0.00   -0.0044184    0.0125438    0.0006880
c     0.9494394    2.7705954   -0.1992128  0.00    0.0023514    0.0118558    0.0002301
c     1.0702923    1.4087168   -0.2233801  0.00    0.0087105    0.0103209    0.0001962
n     0.3446205   -0.7336539   -0.2413560  0.00    0.0237770    0.0191744    0.0003591
c     2.1811228    0.6228558   -0.2317736  0.00    0.0272734   -0.0118672   -0.0027863
c     1.7657353   -0.6692658   -0.2436811  0.00   -0.0146929   -0.0180506    0.0040902
h    -0.2666878   -1.5746721   -0.2502813  0.00    0.0065476    0.0081177    0.0000598
c     3.6131902    1.1406366   -0.2134227  0.00   -0.0021583   -0.0040291    0.0031657
c     4.6960358    0.0911505    0.1423620  0.00   -0.0111322   -0.0069534   -0.0242578
h     3.6743702    1.9593906    0.5387427  0.00    0.0004494   -0.0000881   -0.0002866
h     3.8410274    1.5830021   -1.2076070  0.00   -0.0002674    0.0015008    0.0005454
c     4.3413421   -0.6255843    1.4380996  0.00   -0.0106084    0.0344511    0.0661609
n     6.0442257    0.7167380    0.2137005  0.00    0.0142858    0.0015756    0.0064726
h     4.7185355   -0.6969560   -0.6414717  0.00    0.0005035    0.0015899    0.0026287
h     6.0051132    1.7360832   -0.0120155  0.00   -0.0042697   -0.0036088    0.0013512
h     6.4242160    0.6570821    1.1905277  0.00   -0.0056544   -0.0042446    0.0012055
h    -2.4080197    2.9520795   -0.1429453  0.00   -0.0002980    0.0000885    0.0000022
h    -2.1481468    0.4960403   -0.1895423  0.00   -0.0008319    0.0005621    0.0000191
h    -0.4252025    4.3979600   -0.1482550  0.00    0.0001302    0.0001622    0.0000364
h     1.8250831    3.4130217   -0.1969301  0.00    0.0001341    0.0004862    0.0000829
h     2.3913189   -1.5575048   -0.2180355  0.00    0.0001951   -0.0051720    0.0112919
o     4.1632915    0.0551922    2.6003905  0.00    0.0092274   -0.0258437   -0.0480032
o     4.1014234   -1.9870555    1.3824404  0.00    0.0307167    0.0098337   -0.0283242
h     3.3740117   -2.2022383    2.0747136  0.00   -0.0305429    0.0010993    0.0046066
    27
 Energy =       0.1990352142
c    -1.4464079    2.4635007   -0.1557256  0.00   -0.0072651    0.0060394    0.0005753
c    -1.2950132    1.1030390   -0.1624656  0.00   -0.0138204   -0.0055392    0.0005044
c    -0.0349998    0.5986343   -0.1922504  0.00   -0.0136461   -0.0297983   -0.0007724
c    -0.3477926    3.2842158   -0.1780579  0.00   -0.0037367    0.0111729    0.0006169
c     0.9137376    2.7518714   -0.2063475  0.00    0.0021704    0.0105654    0.0002180
c     1.0492824    1.3921185   -0.2108128  0.00    0.0076612    0.0090678    0.0001759
n     0.3497873   -0.7601384   -0.1872265  0.00    0.0205877    0.0164280    0.0003898
c     2.1685264    0.6222493   -0.2162915  0.00    0.0237219   -0.0101470   -0.0023907
c     1.7714552   -0.6751718   -0.2047796  0.00   -0.0128134   -0.0159574    0.0035210
h    -0.2509654   -1.6100010   -0.1764374  0.00    0.0054558    0.0066770    0.0000799
c     3.5930259    1.1622920   -0.2205904  0.00   -0.0020827   -0.0031962    0.0028214
c     4.7014267    0.1308052    0.1108914  0.00   -0.0100443   -0.0058991   -0.0213599
h     3.6533009    1.9793833    0.5335794  0.00    0.0003574   -0.0000551   -0.0002381
h     3.7960035    1.6116908   -1.2174185  0.00   -0.0001816    0.0014668    0.0001870
c     4.3904425   -0.5951514    1.4131452  0.00   -0.0087125    0.0314296    0.0577222
n     6.0396892    0.7802962    0.1481054  0.00    0.0132781    0.0012908    0.0047833
h     4.7181603   -0.6561602   -0.6747845  0.00    0.0005136    0.0014421    0.0021710
h     5.9768193    1.8025065   -0.0623263  0.00   -0.0038191   -0.0025026    0.0009350
h     6.4541045    0.7137217    1.1109876  0.00   -0.0045216   -0.0038685    0.0021204
h    -2.4440714    2.8953867   -0.1305693  0.00   -0.0003365    0.0001115    0.0000037
h    -2.1553227    0.4421224   -0.1409490  0.00   -0.0008870    0.0003227    0.0000203
h    -0.4784143    4.3639447   -0.1705097  0.00    0.0001266    0.0003512    0.0000337
h     1.7820831    3.4042926   -0.2198469  0.00    0.0002682    0.0005773    0.0000688
h     2.4113310   -1.5532490   -0.1720462  0.00    0.0001623   -0.0047005    0.0098827
o     4.1859324    0.0881301    2.5747464  0.00    0.0079870   -0.0218473   -0.0416446
o     4.2145781   -1.9692249    1.3721891  0.00    0.0286055    0.0068991   -0.0266212
h     3.5327648   -2.2171296    2.0983790  0.00   -0.0290286   -0.0003302    0.0061961
    27
 Energy =       0.1990556366
c    -1.4818702    2.4081850   -0.1307725  0.00   -0.0074301    0.0059152    0.0005641
c    -1.3113515    1.0498138   -0.1062092  0.00   -0.0135308   -0.0059319    0.0004929
c    -0.0448573    0.5624617   -0.1421974  0.00   -0.0133235   -0.0285858   -0.0007923
c    -0.3952685    3.2437490   -0.1891002  0.00   -0.0032538    0.0113294    0.0005745
c     0.8729947    2.7284961   -0.2236170  0.00    0.0023278    0.0107691    0.0001929
c     1.0273693    1.3708268   -0.1971907  0.00    0.0076593    0.0089535    0.0001464
n     0.3599366   -0.7910730   -0.1011820  0.00    0.0196291    0.0151601    0.0004591
c     2.1575474    0.6181415   -0.2006948  0.00    0.0229008   -0.0090752   -0.0023197
c     1.7804378   -0.6850094   -0.1466812  0.00   -0.0124226   -0.0158987    0.0033412
h    -0.2278187   -1.6499032   -0.0554073  0.00    0.0046013    0.0054384    0.0001369
c     3.5726504    1.1833499   -0.2410077  0.00   -0.0020938   -0.0025973    0.0028622
c     4.7102381    0.1756012    0.0665766  0.00   -0.0100860   -0.0054289   -0.0207535
h     3.6346841    2.0043416    0.5088949  0.00    0.0003708   -0.0000331   -0.0001927
h     3.7433950    1.6334432   -1.2441150  0.00   -0.0001316    0.0016645   -0.0002855
c     4.4480976   -0.5527736    1.3788282  0.00   -0.0079523    0.0317716    0.0555602
n     6.0357911    0.8527666    0.0668924  0.00    0.0138560    0.0013392    0.0039411
h     4.7222309   -0.6138275   -0.7169230  0.00    0.0005312    0.0014474    0.0019563
h     5.9458427    1.8748055   -0.1369579  0.00   -0.0037072   -0.0017869    0.0006925
h     6.4810686    0.7901609    1.0165777  0.00   -0.0039409   -0.0038400    0.0028852
h    -2.4852304    2.8266087   -0.1009164  0.00   -0.0004632    0.0001250    0.0000082
h    -2.1618998    0.3772417   -0.0538500  0.00   -0.0012881   -0.0001433    0.0000482
h    -0.5409446    4.3218102   -0.2055600  0.00    0.0001822    0.0007777    0.0000221
h     1.7320374    3.3927233   -0.2657157  0.00    0.0006429    0.0009604    0.0000426
h     2.4339294   -1.5526935   -0.0980253  0.00    0.0000204   -0.0048609    0.0094462
o     4.1990725    0.1343005    2.5315958  0.00    0.0075917   -0.0195075   -0.0394640
o     4.3498631   -1.9374219    1.3557185  0.00    0.0280827    0.0030320   -0.0262741
h     3.6915180   -2.2121499    2.0936270  0.00   -0.0287725   -0.0009942    0.0067091
    27
 Energy =       0.1975422596
c    -1.4550440    2.4530717   -0.1696181  0.00   -0.0074375    0.0053650    0.0005218
c    -1.2991691    1.0927392   -0.1836125  0.00   -0.0126721   -0.0063030    0.0004788
c    -0.0376969    0.5934993   -0.2060012  0.00   -0.0123382   -0.0257834   -0.0006290
c    -0.3585855    3.2786975   -0.1779151  0.00   -0.0023200    0.0111318    0.0004961
c     0.9046948    2.7512402   -0.1984713  0.00    0.0024962    0.0106895    0.0001414
c     1.0436761    1.3917882   -0.2099609  0.00    0.0075294    0.0085886    0.0000848
n     0.3500729   -0.7667622   -0.2113753  0.00    0.0174996    0.0128559    0.0003640
c     2.1649350    0.6276869   -0.2117759  0.00    0.0210639   -0.0070464   -0.0021876
c     1.7734453   -0.6727299   -0.2156145  0.00   -0.0114291   -0.0151902    0.0030507
h    -0.2485890   -1.6211393   -0.2141604  0.00    0.0030522    0.0033052    0.0000946
c     3.5881176    1.1751965   -0.2007532  0.00   -0.0015977   -0.0019936    0.0028071
c     4.7017033    0.1442131    0.1198379  0.00   -0.0095863   -0.0046724   -0.0190773
h     3.6413856    1.9811776    0.5662718  0.00    0.0005159    0.0001462    0.0000647
h     3.7930905    1.6406275   -1.1911000  0.00   -0.0000434    0.0018706   -0.0009383
c     4.3967003   -0.6006303    1.4144375  0.00   -0.0072364    0.0294202    0.0507947
n     6.0377259    0.8004713    0.1596252  0.00    0.0134859    0.0014035    0.0030968
h     4.7200469   -0.6334807   -0.6756017  0.00    0.0004145    0.0012690    0.0015745
h     5.9700698    1.8267367   -0.0330812  0.00   -0.0032865   -0.0011069    0.0005271
h     6.4608113    0.7188427    1.1185476  0.00   -0.0031917   -0.0035420    0.0033282
h    -2.4547161    2.8810247   -0.1504555  0.00   -0.0005877    0.0000645    0.0000104
h    -2.1578544    0.4272084   -0.1743804  0.00   -0.0019184   -0.0008675    0.0000537
h    -0.4925913    4.3587331   -0.1653127  0.00    0.0003123    0.0012575    0.0000200
h     1.7716961    3.4075497   -0.2011029  0.00    0.0012211    0.0015066    0.0000309
h     2.4188343   -1.5475125   -0.1891955  0.00   -0.0002032   -0.0048714    0.0085151
o     4.1902233    0.0737582    2.5864701  0.00    0.0069679   -0.0163802   -0.0351428
o     4.2372983   -1.9806860    1.3643634  0.00    0.0258127   -0.0002854   -0.0243598
h     3.5891825   -2.2473468    2.1125228  0.00   -0.0265235   -0.0008318    0.0062794
    27
 Energy =       0.1955817714
c    -1.4351289    2.4925827   -0.2075125  0.00   -0.0068421    0.0042910    0.0004232
c    -1.2891048    1.1326451   -0.2610471  0.00   -0.0107973   -0.0061026    0.0004293
c    -0.0322729    0.6246846   -0.2675448  0.00   -0.0103593   -0.0210412   -0.0003165
c    -0.3325710    3.3091508   -0.1622953  0.00   -0.0011761    0.0099738    0.0003956
c     0.9262008    2.7724201   -0.1661335  0.00    0.0024910    0.0096799    0.0000841
c     1.0538889    1.4135838   -0.2167465  0.00    0.0068183    0.0075185    0.0000178
n     0.3431747   -0.7394972   -0.3190522  0.00    0.0139100    0.0097500    0.0001101
c     2.1677351    0.6425926   -0.2150683  0.00    0.0174736   -0.0046171   -0.0018762
c     1.7684550   -0.6536136   -0.2799187  0.00   -0.0094893   -0.0132089    0.0025734
h    -0.2623791   -1.5894337   -0.3729135  0.00    0.0012637    0.0009568   -0.0000604
c     3.5950566    1.1767266   -0.1460734  0.00   -0.0007387   -0.0014763    0.0024334
c     4.6907739    0.1236169    0.1663712  0.00   -0.0082265   -0.0036415   -0.0159345
h     3.6358847    1.9553718    0.6504768  0.00    0.0007069    0.0006928    0.0006863
h     3.8299605    1.6735465   -1.1152657  0.00    0.0001207    0.0020848   -0.0017533
c     4.3556502   -0.6599890    1.4313287  0.00   -0.0060491    0.0241676    0.0419995
n     6.0320108    0.7653977    0.2463690  0.00    0.0114866    0.0007916    0.0016568
h     4.7154140   -0.6298697   -0.6530127  0.00    0.0001881    0.0006870    0.0008098
h     5.9795034    1.7994106    0.0889996  0.00   -0.0025499    0.0003335    0.0002905
h     6.4440756    0.6460914    1.2068008  0.00   -0.0020365   -0.0029932    0.0038965
h    -2.4319023    2.9276720   -0.2009078  0.00   -0.0006598   -0.0000224    0.0000069
h    -2.1527379    0.4733632   -0.2972372  0.00   -0.0023897   -0.0014895    0.0000191
h    -0.4584553    4.3896708   -0.1199701  0.00    0.0004328    0.0015666    0.0000298
h     1.7984732    3.4215030   -0.1265131  0.00    0.0017198    0.0019185    0.0000460
h     2.4102073   -1.5313837   -0.2768007  0.00   -0.0003338   -0.0044245    0.0069715
o     4.1637675   -0.0218427    2.6314365  0.00    0.0056118   -0.0127372   -0.0276917
o     4.1714633   -2.0357636    1.3372961  0.00    0.0225473   -0.0019053   -0.0219088
h     3.5623202   -2.3246623    2.1075220  0.00   -0.0231225   -0.0007525    0.0066618
    27
 Energy =       0.1936469135
c    -1.4220270    2.5533858   -0.1807479  0.00   -0.0055740    0.0033073    0.0002909
c    -1.2938349    1.1943195   -0.2677081  0.00   -0.0082984   -0.0052232    0.0003103
c    -0.0456929    0.6692121   -0.2695539  0.00   -0.0078630   -0.0154852   -0.0000850
c    -0.3093724    3.3520922   -0.0991309  0.00   -0.0005274    0.0080854    0.0002747
c     0.9407296    2.7975017   -0.0992242  0.00    0.0020667    0.0079294    0.0000367
c     1.0488906    1.4399000   -0.1832611  0.00    0.0054284    0.0059475   -0.0000517
n     0.3094901   -0.6993809   -0.3621683  0.00    0.0105629    0.0065123   -0.0000800
c     2.1504393    0.6556779   -0.1939049  0.00    0.0134335   -0.0025564   -0.0013870
c     1.7366748   -0.6314325   -0.3073062  0.00   -0.0073964   -0.0102732    0.0020035
h    -0.3072873   -1.5394647   -0.4498433  0.00    0.0003379   -0.0001966   -0.0001780
c     3.5838893    1.1679739   -0.1053759  0.00   -0.0018327   -0.0009941    0.0013907
c     4.6707243    0.0860958    0.1410001  0.00   -0.0060066   -0.0032929   -0.0120925
h     3.6408090    1.9068482    0.7290364  0.00    0.0006526    0.0016086    0.0017057
h     3.8162435    1.7086524   -1.0522441  0.00    0.0000458    0.0022019   -0.0023483
c     4.3669484   -0.7315300    1.3928396  0.00   -0.0054976    0.0138337    0.0215016
n     6.0238139    0.7047372    0.1915708  0.00    0.0087643   -0.0005829   -0.0005282
h     4.6562209   -0.6429603   -0.7022490  0.00    0.0001926   -0.0002363   -0.0004432
h     5.9836137    1.7454155    0.0741614  0.00   -0.0021321    0.0017124    0.0000834
h     6.4743028    0.5449743    1.1300599  0.00   -0.0002477   -0.0025949    0.0055215
h    -2.4126221    3.0024083   -0.1777611  0.00   -0.0006364    0.0000042   -0.0000214
h    -2.1654643    0.5482295   -0.3355196  0.00   -0.0022426   -0.0015895   -0.0000476
h    -0.4206336    4.4330255   -0.0315687  0.00    0.0003879    0.0016387    0.0000356
h     1.8217405    3.4323881   -0.0325058  0.00    0.0016635    0.0018419    0.0000594
h     2.3701112   -1.5145069   -0.3429127  0.00   -0.0000039   -0.0041035    0.0052242
o     4.3225206   -0.1346615    2.6435457  0.00    0.0046960   -0.0016434   -0.0065201
o     4.1156693   -2.0953831    1.2625461  0.00    0.0222989   -0.0042918   -0.0270587
h     3.5935662   -2.3995432    2.0908132  0.00   -0.0222722   -0.0015596    0.0124032
    27
 Energy =       0.1924181037
c    -1.4087523    2.5317161   -0.2569495  0.00   -0.0049670    0.0027340    0.0002437
c    -1.2738733    1.1746113   -0.3540159  0.00   -0.0072752   -0.0045467    0.0002750
c    -0.0244718    0.6541009   -0.3391631  0.00   -0.0067735   -0.0132976   -0.0000450
c    -0.3008218    3.3331605   -0.1496041  0.00   -0.0003359    0.0070627    0.0002429
c     0.9506883    2.7830979   -0.1330502  0.00    0.0019806    0.0068280    0.0000307
c     1.0648702    1.4273992   -0.2264374  0.00    0.0048102    0.0051716   -0.0000728
n     0.3368544   -0.7127160   -0.4408161  0.00    0.0087417    0.0055785   -0.0000989
c     2.1684700    0.6480781   -0.2242772  0.00    0.0114754   -0.0017318   -0.0011388
c     1.7633879   -0.6385161   -0.3612506  0.00   -0.0065350   -0.0088900    0.0015797
h    -0.2750369   -1.5542649   -0.5486171  0.00    0.0000757   -0.0004428   -0.0001901
c     3.5997255    1.1608181   -0.1107444  0.00   -0.0034289   -0.0004012    0.0009258
c     4.6697832    0.0833863    0.2251027  0.00   -0.0036740   -0.0025269   -0.0107907
h     3.6330383    1.9360108    0.6925238  0.00    0.0002188    0.0023716    0.0024928
h     3.8667619    1.6567700   -1.0739943  0.00    0.0001510    0.0025914   -0.0035461
c     4.3072520   -0.6828999    1.4962806  0.00   -0.0041078    0.0118593    0.0184543
n     6.0240022    0.6954984    0.3045410  0.00    0.0074897   -0.0033693   -0.0034963
h     4.6867695   -0.6795227   -0.5891307  0.00    0.0006542   -0.0009383   -0.0017169
h     5.9980931    1.7295294    0.1248576  0.00   -0.0023313    0.0047187   -0.0007154
h     6.4303997    0.5849890    1.2720788  0.00    0.0013025   -0.0029806    0.0085717
h    -2.4009332    2.9771561   -0.2668789  0.00   -0.0006536   -0.0000025   -0.0000217
h    -2.1416695    0.5261615   -0.4429126  0.00   -0.0021188   -0.0014895   -0.0000523
h    -0.4171597    4.4129113   -0.0747533  0.00    0.0003635    0.0014477    0.0000318
h     1.8277970    3.4206592   -0.0464518  0.00    0.0016554    0.0016538    0.0000662
h     2.4048480   -1.5165579   -0.3950073  0.00   -0.0001315   -0.0035614    0.0041221
o     4.2368218   -0.0386667    2.7242203  0.00    0.0037202   -0.0008084   -0.0033966
o     4.0185810   -2.0429715    1.4074710  0.00    0.0192353   -0.0053192   -0.0231574
h     3.5040384   -2.3159635    2.2495663  0.00   -0.0195417   -0.0017112    0.0114026
    27
 Energy =       0.1906024388
c    -1.3944471    2.5185537   -0.3299673  0.00   -0.0034371    0.0013885    0.0001252
c    -1.2543406    1.1651723   -0.4483341  0.00   -0.0047144   -0.0030173    0.0002036
c    -0.0062184    0.6464770   -0.4110018  0.00   -0.0041517   -0.0080870    0.0000922
c    -0.2915465    3.3183024   -0.1804998  0.00    0.0002127    0.0046067    0.0001611
c     0.9589628    2.7697681   -0.1427118  0.00    0.0015701    0.0043232    0.0000010
c     1.0767969    1.4178154   -0.2569215  0.00    0.0033184    0.0032916   -0.0000858
n     0.3585567   -0.7186180   -0.5317737  0.00    0.0047472    0.0032842   -0.0001913
c     2.1799080    0.6427686   -0.2436687  0.00    0.0070559   -0.0001093   -0.0006354
c     1.7842921   -0.6399927   -0.4194219  0.00   -0.0040050   -0.0056519    0.0008913
h    -0.2489781   -1.5591823   -0.6709915  0.00   -0.0004383   -0.0009139   -0.0002099
c     3.6086501    1.1528023   -0.0985652  0.00   -0.0028397    0.0002004    0.0005304
c     4.6586591    0.0788148    0.3029077  0.00   -0.0010391   -0.0012918   -0.0065350
h     3.6230501    1.9493875    0.6828458  0.00   -0.0000860    0.0018484    0.0019863
h     3.9088070    1.6176415   -1.0667195  0.00    0.0001892    0.0019456   -0.0030190
c     4.2529836   -0.6462333    1.5849036  0.00   -0.0022225    0.0072506    0.0113288
n     6.0138005    0.6832411    0.3970048  0.00    0.0044127   -0.0037788   -0.0035447
h     4.6935438   -0.7093596   -0.4859884  0.00    0.0006721   -0.0009664   -0.0017528
h     6.0062530    1.7084118    0.1703056  0.00   -0.0016522    0.0048595   -0.0009038
h     6.3922268    0.6112161    1.3783572  0.00    0.0014659   -0.0022265    0.0069032
h    -2.3868055    2.9627426   -0.3568355  0.00   -0.0005828   -0.0000470   -0.0000225
h    -2.1179953    0.5174101   -0.5714374  0.00   -0.0017570   -0.0012520   -0.0000672
h    -0.4114715    4.3960487   -0.0893797  0.00    0.0003182    0.0010260    0.0000251
h     1.8321368    3.4068588   -0.0240315  0.00    0.0014689    0.0012718    0.0000722
h     2.4343389   -1.5115849   -0.4592104  0.00    0.0001095   -0.0023117    0.0024893
o     4.1719676    0.0347136    2.7941878  0.00    0.0019984   -0.0000364   -0.0009157
o     3.9299950   -1.9994474    1.5312152  0.00    0.0131016   -0.0036894   -0.0169065
h     3.4763379   -2.2597537    2.4083194  0.00   -0.0137149   -0.0019171    0.0099796
    27
 Energy =       0.1894502511
c    -1.3827989    2.5027059   -0.4081423  0.00   -0.0020484    0.0002661    0.0000058
c    -1.2354766    1.1534148   -0.5467958  0.00   -0.0024989   -0.0015703    0.0000990
c     0.0110935    0.6368395   -0.4822811  0.00   -0.0018469   -0.0036488    0.0001270
c    -0.2872447    3.3007789   -0.2129157  0.00    0.0005650    0.0024152    0.0001139
c     0.9621439    2.7543088   -0.1502751  0.00    0.0011368    0.0020760    0.0000054
c     1.0859230    1.4062850   -0.2846493  0.00    0.0019587    0.0016011   -0.0000514
n     0.3812647   -0.7257527   -0.6188987  0.00    0.0014452    0.0013850   -0.0002149
c     2.1892655    0.6356981   -0.2585689  0.00    0.0032992    0.0008405   -0.0002045
c     1.8047924   -0.6427952   -0.4714282  0.00   -0.0016275   -0.0026962    0.0003362
h    -0.2203018   -1.5650708   -0.7889191  0.00   -0.0006621   -0.0010150   -0.0001916
c     3.6145561    1.1444582   -0.0848383  0.00   -0.0019113    0.0004755    0.0001697
c     4.6447097    0.0777991    0.3783173  0.00    0.0007099   -0.0003338   -0.0027801
h     3.6122125    1.9622727    0.6728912  0.00   -0.0002572    0.0012259    0.0013260
h     3.9459163    1.5779389   -1.0561816  0.00    0.0001832    0.0011803   -0.0021297
c     4.2039343   -0.6019261    1.6721965  0.00   -0.0008849    0.0032618    0.0052184