13
UFF-Energy = 0.0426675
C    -5.2451169    2.0600722   -0.4493481 
C    -3.9521743    1.3446697   -0.0363575 
H    -5.0917202    2.6327419   -1.3898842 
H    -5.5428991    2.7776688    0.3468671 
H    -6.0664957    1.3290859   -0.6001465 
C    -2.7654140    2.3013532    0.0666629 
N    -4.2055240    0.6519327    1.2360027 
H    -3.6768948    0.6057297   -0.8246068 
H    -4.8836527   -0.1290162    1.0729804 
H    -3.3179484    0.1994625    1.5653822 
O    -1.4998297    1.8014979    0.3536394 
O    -2.9133942    3.6645525   -0.1705243 
H    -2.0159359    4.1140621   -0.0426768 
