13
UFF-Energy = 0.0622228
C    -5.2199521    2.3663609   -0.0461693 
C    -4.0207549    1.4198484   -0.1496204 
H    -6.1548254    1.8058734   -0.2646024 
H    -5.1281024    3.1985695   -0.7774883 
H    -5.3043515    2.7842353    0.9799253 
C    -2.6912707    2.1456367    0.0281907 
N    -4.2083634    0.3376442    0.8283733 
H    -4.0021166    0.9869393   -1.1792986 
H    -3.4808014   -0.3986046    0.6620976 
H    -4.0296772    0.7024556    1.7962744 
O    -1.8025543    2.2322968   -1.0334220 
O    -2.3567160    2.7345409    1.2417194 
H    -2.8590541    3.6038406    1.3376166 
