13
UFF-Energy = 0.0735269
C    -5.2237237    2.2724578   -0.0097084 
C    -3.9586198    1.3928962   -0.0062857 
H    -5.3314913    2.8007290    0.9629232 
H    -6.1275956    1.6522424   -0.1914221 
H    -5.1637778    3.0395116   -0.8138366 
C    -2.6830949    2.2254218    0.1652164 
N    -4.1033332    0.3065815    0.9932204 
H    -3.8556277    0.9280982   -1.0139497 
H    -3.3303392    0.3299633    1.7038471 
H    -4.9892026    0.3810395    1.5470267 
O    -2.6028495    3.5011448   -0.3768589 
O    -1.5471678    1.6774410    0.7475345 
H    -1.0769868    1.1005920    0.0652195 
