13
UFF-Energy = 0.0496418
C    -5.1135531    2.5012155    0.4389995 
C    -4.1177533    1.4160372   -0.0561684 
H    -5.6638180    2.2198064    1.3593534 
H    -5.8699746    2.7095982   -0.3478153 
H    -4.5934533    3.4604350    0.6613319 
C    -2.7008369    1.9677193   -0.1921609 
N    -4.1884507    0.1843114    0.7692372 
H    -4.3952742    1.1363797   -1.1004551 
H    -3.2504316   -0.0423270    1.1842948 
H    -4.8286220    0.2714723    1.5900283 
O    -2.2709882    2.4877378   -1.4060208 
O    -1.8471459    2.0111081    0.9028673 
H    -0.9740382    2.4337653    0.6128055 
