13
UFF-Energy = 0.0759272
C    -5.3730948    2.1364399    0.1020780 
C    -3.9901411    1.4594833   -0.1253357 
H    -5.9962166    1.6361800    0.8706572 
H    -5.9597056    2.1346585   -0.8418446 
H    -5.2739252    3.1981535    0.4214989 
C    -2.8070416    2.4295021    0.0267120 
N    -3.8338745    0.2392949    0.7019182 
H    -3.9594659    1.1394495   -1.1925104 
H    -2.9794725    0.2939611    1.3092457 
H    -4.6286705    0.0729713    1.3608246 
O    -2.8750637    3.4804483    0.9338891 
O    -1.6206071    2.2355510   -0.6797388 
H    -1.6375709    1.3835157   -1.2210260 
