13
UFF-Energy = 0.0476772
C    -5.2518002    2.1087246   -0.2594928 
C    -3.9599943    1.3201091    0.0169876 
H    -5.4759145    2.7900914    0.5921622 
H    -6.1094754    1.4188963   -0.4072969 
H    -5.1368881    2.7256025   -1.1773734 
C    -2.7607879    2.2432019    0.1881915 
N    -4.1537752    0.4628409    1.1962989 
H    -3.7231035    0.6782861   -0.8642837 
H    -4.3448891    1.0587770    2.0385130 
H    -4.9805960   -0.1632875    1.0537149 
O    -1.6914239    2.1746174   -0.6976829 
O    -2.7400796    3.1915285    1.2052874 
H    -1.8625223    3.6924569    1.1571457 
