13
UFF-Energy = 0.0730741
C    -5.1650563    2.4111124    0.7348735 
C    -4.1896067    1.5331595   -0.0699224 
H    -6.1366077    1.8877942    0.8724487 
H    -5.3593869    3.3698931    0.2056142 
H    -4.7387641    2.6457796    1.7365140 
C    -2.8754451    2.2774147   -0.3462799 
N    -3.9990272    0.2292626    0.6086983 
H    -4.6418583    1.3259940   -1.0670778 
H    -2.9955943    0.0698322    0.8740694 
H    -4.5378498    0.1574203    1.5044266 
O    -1.8584655    2.2596299    0.6011540 
O    -2.6966882    3.0351523   -1.5039701 
H    -3.5170500    3.0448142   -2.0903203 
