13
UFF-Energy = 0.0416511
C    -5.1053624    2.4257014    0.6151423 
C    -4.1327680    1.4808460   -0.1118665 
H    -4.7729317    2.5846901    1.6650136 
H    -6.1307767    1.9979318    0.6171805 
H    -5.1391313    3.4136906    0.1048203 
C    -2.7388568    2.0931744   -0.2008637 
N    -4.1482715    0.1396091    0.5198287 
H    -4.4664257    1.3730342   -1.1711930 
H    -3.1915274   -0.1227044    0.8654505 
H    -4.7599286    0.1076303    1.3688198 
O    -2.3643226    2.8067788   -1.3319671 
O    -1.8499773    1.9923105    0.8623490 
H    -1.0002600    2.4855162    0.6177907 
