13
UFF-Energy = 0.0688747
C    -4.9571466    1.5326764    1.1512286 
C    -4.2956227    1.8829142   -0.1897001 
H    -5.9344549    1.0331353    0.9837941 
H    -5.1320743    2.4495621    1.7571255 
H    -4.3013581    0.8463578    1.7305020 
C    -2.9990146    2.6733185   -0.0010175 
N    -4.0753345    0.6285274   -0.9255692 
H    -4.9778396    2.5477700   -0.7692532 
H    -5.0012154    0.1837846   -1.1309324 
H    -3.6625697    0.8540745   -1.8634354 
O    -2.8311408    3.4977631    1.1057122 
O    -2.0136439    2.6596553   -0.9800385 
H    -1.4258850    1.8525737   -0.8287009 
