13
UFF-Energy = 0.0607685
C    -5.2246636    2.3502275   -0.0858274 
C    -4.0030772    1.4247724   -0.1432309 
H    -5.1073578    3.1998920   -0.7942773 
H    -5.3800586    2.7547390    0.9362778 
H    -6.1369634    1.7801042   -0.3687676 
C    -2.6867769    2.1544844    0.1388798 
N    -4.2404819    0.2868547    0.7591620 
H    -3.9116112    1.0413542   -1.1893907 
H    -3.4597072   -0.4064976    0.6569188 
H    -4.2346629    0.5988378    1.7591470 
O    -1.6962059    2.1548811   -0.8336890 
O    -2.4439034    2.8142620    1.3433822 
H    -3.2328301    2.7635253    1.9670458 
