    13
 Energy =       0.1152655435
c    -3.7133889    1.6950595    0.3173519  0.00   -0.0789973    0.0309034    0.0956137
c    -2.4962693    2.6345192    0.2419999  0.00    0.2045990    0.1668384   -0.3002999
c    -4.9565486    2.3924193   -0.2155699  0.00    0.0200118    0.0081005    0.0054700
h    -5.8072983    1.7014095   -0.2223689  0.00    0.0132069    0.0088009   -0.0025330
h    -4.8071186    2.7393792   -1.2437896  0.00   -0.0074273   -0.0045348    0.0184468
h    -5.2375685    3.2516891    0.4029209  0.00   -0.0008100   -0.0137117   -0.0117315
n    -3.4097890    0.4519539   -0.4549189  0.00    0.0257282   -0.0684623   -0.0109349
h    -3.8575589    1.4177196    1.3669296  0.00    0.0083331   -0.0084372   -0.0279408
h    -3.2072391   -0.2948399    0.2179739  0.00   -0.0176926    0.0297019   -0.0190521
h    -4.2689788    0.1396900   -0.9176007  0.00    0.0227081    0.0220293    0.0253127
o    -1.9513094    3.0041591   -0.7839488  0.00   -0.1296066   -0.1032477    0.2466697
o    -2.1005994    3.0267291    1.4825496  0.00   -0.0448877   -0.0307641   -0.0101126
h    -2.2705794    4.0015489    1.5135996  0.00   -0.0151655   -0.0372166   -0.0089082
    13
 Energy =       0.0940106204
c    -3.7228202    1.6901463    0.3269602  0.00   -0.0470966    0.0178825    0.0576507
c    -2.4867294    2.5939893    0.2832180  0.00    0.1199513    0.1033285   -0.1785348
c    -4.9403801    2.4218341   -0.2469009  0.00    0.0149688    0.0040350    0.0075227
h    -5.7967012    1.7291482   -0.3811221  0.00    0.0021419    0.0001499   -0.0032462
h    -4.7019279    2.8642085   -1.2382528  0.00   -0.0016815    0.0010272    0.0036883
h    -5.2683569    3.2301109    0.4325509  0.00   -0.0010530   -0.0058904   -0.0034217
n    -3.4439742    0.4430120   -0.4334031  0.00    0.0179537   -0.0403824   -0.0057759
h    -3.9027617    1.4354496    1.3857405  0.00    0.0050577   -0.0049062   -0.0161556
h    -3.2488738   -0.3166302    0.2409203  0.00   -0.0109281    0.0176781   -0.0111595
h    -4.2892146    0.1381239   -0.9459363  0.00    0.0119060    0.0129917    0.0138705
o    -1.9253728    2.9573970   -0.8174077  0.00   -0.0781727   -0.0630892    0.1461999
o    -2.0220695    3.0088204    1.5038842  0.00   -0.0152495   -0.0397954   -0.0036387
h    -2.3350639    3.9658266    1.5948773  0.00   -0.0177979   -0.0030293   -0.0069996
    13
 Energy =       0.0891918720
c    -3.7073402    1.6882866    0.3244067  0.00   -0.0324586    0.0120618    0.0399131
c    -2.4656746    2.5801668    0.2894763  0.00    0.0822694    0.0726181   -0.1236790
c    -4.9199665    2.4294996   -0.2509134  0.00    0.0154251   -0.0011320    0.0071794
h    -5.8168831    1.7629238   -0.2634178  0.00   -0.0044272   -0.0054895   -0.0016949
h    -4.7070964    2.7558156   -1.3010979  0.00    0.0014158    0.0023574   -0.0051950
h    -5.1630839    3.3294107    0.3629077  0.00   -0.0019538    0.0034459    0.0030802
n    -3.4508963    0.4405952   -0.4358782  0.00    0.0134879   -0.0271699   -0.0037407
h    -3.8928579    1.4418032    1.3883028  0.00    0.0034673   -0.0033557   -0.0110749
h    -3.2770040   -0.3337658    0.2342894  0.00   -0.0076225    0.0116402   -0.0073834
h    -4.2906640    0.1571909   -0.9789955  0.00    0.0070793    0.0091396    0.0087680
o    -1.9028868    2.9558869   -0.8429322  0.00   -0.0544889   -0.0429665    0.1007073
o    -1.9960755    3.0321198    1.5015820  0.00    0.0092644   -0.0621787   -0.0057570
h    -2.4938170    3.9215031    1.6773986  0.00   -0.0314582    0.0310295   -0.0011230
    13
 Energy =       0.0845030453
c    -3.7210321    1.6775902    0.3243047  0.00   -0.0201199    0.0081535    0.0259565
c    -2.4447421    2.5165396    0.2971145  0.00    0.0497389    0.0455987   -0.0754245
c    -4.9140557    2.4820660   -0.2186705  0.00    0.0093325    0.0001842    0.0032420
h    -5.8421667    1.8613710   -0.2062379  0.00   -0.0042127   -0.0042386   -0.0012060
h    -4.7123416    2.7981320   -1.2719671  0.00    0.0010448    0.0013765   -0.0033787
h    -5.0950225    3.3927242    0.4007386  0.00   -0.0016811    0.0037008    0.0028182
n    -3.5350632    0.4349559   -0.4623024  0.00    0.0116604   -0.0164023   -0.0029445
h    -3.9026663    1.4243457    1.3910722  0.00    0.0022473   -0.0018689   -0.0065531
h    -3.4065272   -0.3719745    0.1872885  0.00   -0.0046156    0.0043836   -0.0031239
h    -4.3810561    0.2118852   -1.0334974  0.00    0.0013719    0.0047949    0.0032053
o    -1.8588557    2.8739357   -0.8617695  0.00   -0.0324032   -0.0269257    0.0612475
o    -1.9356533    2.9617970    1.5016055  0.00    0.0120659   -0.0457169   -0.0052524
h    -2.3350639    3.8980685    1.6574493  0.00   -0.0244292    0.0269601    0.0014135
    13
 Energy =       0.0842338564
c    -3.7292328    1.6706161    0.3146375  0.00   -0.0175097    0.0087217    0.0257791
c    -2.4137394    2.4491986    0.2834352  0.00    0.0452795    0.0411505   -0.0687659
c    -4.8998705    2.5505552   -0.1667014  0.00    0.0068505    0.0012174    0.0013092
h    -5.8560433    1.9730384   -0.1466047  0.00   -0.0050595   -0.0043164   -0.0013280
h    -4.7142447    2.8905514   -1.2155079  0.00    0.0006982    0.0013441   -0.0035720
h    -5.0199490    3.4494897    0.4868014  0.00   -0.0018225    0.0053147    0.0038954
n    -3.6243489    0.4474625   -0.5203991  0.00    0.0134868   -0.0170142   -0.0045894
h    -3.8926301    1.3886056    1.3783586  0.00    0.0022781   -0.0015153   -0.0050631
h    -3.5205280   -0.3910118    0.0955180  0.00   -0.0038427    0.0018740   -0.0017864
h    -4.4932819    0.2877098   -1.0831248  0.00   -0.0017145    0.0032752    0.0005863
o    -1.8309140    2.8041745   -0.8826736  0.00   -0.0290641   -0.0241612    0.0550747
o    -1.8601766    2.8498910    1.4866848  0.00    0.0130254   -0.0416165   -0.0030457
h    -2.2292871    3.7911557    1.6747045  0.00   -0.0226054    0.0257260    0.0015056
    13
 Energy =       0.0832461346
c    -3.7235004    1.6647127    0.3259319  0.00   -0.0162390    0.0083256    0.0240634
c    -2.4372638    2.4911772    0.3081105  0.00    0.0401913    0.0371965   -0.0649376
c    -4.9168047    2.4957318   -0.1888951  0.00    0.0057460    0.0016498    0.0005423
h    -5.8539524    1.8874857   -0.1707528  0.00   -0.0052563   -0.0042652   -0.0013095
h    -4.7277880    2.8231060   -1.2407832  0.00    0.0005498    0.0012836   -0.0034262
h    -5.0749322    3.4019217    0.4470108  0.00   -0.0018010    0.0056370    0.0040585
n    -3.5619825    0.4321434   -0.4876503  0.00    0.0140119   -0.0170882   -0.0046869
h    -3.8960242    1.3950713    1.3919301  0.00    0.0021230   -0.0013588   -0.0044640
h    -3.4589051   -0.3946933    0.1443903  0.00   -0.0034575    0.0014893   -0.0014018
h    -4.4065826    0.2431758   -1.0794634  0.00   -0.0029996    0.0025234   -0.0006004
o    -1.8117504    2.7997540   -0.8544140  0.00   -0.0264948   -0.0225012    0.0479862
o    -1.9452671    2.9719415    1.5128030  0.00    0.0186121   -0.0475210    0.0022662
h    -2.2694930    3.9499088    1.5969107  0.00   -0.0249858    0.0346292    0.0019098
    13
 Energy =       0.0817370197
c    -3.7245843    1.6624329    0.3465020  0.00   -0.0108248    0.0059365    0.0159971
c    -2.4513418    2.5045115    0.3234960  0.00    0.0189730    0.0244734   -0.0390498
c    -4.9233164    2.4613782   -0.2047430  0.00    0.0035166    0.0012506    0.0000863
h    -5.8517581    1.8438517   -0.1713522  0.00   -0.0036744   -0.0030342   -0.0009416
h    -4.7312630    2.7580238   -1.2642590  0.00    0.0003601    0.0010374   -0.0027804
h    -5.0952138    3.3836558    0.4012375  0.00   -0.0012617    0.0043055    0.0031269
n    -3.5413209    0.4075721   -0.4245545  0.00    0.0135034   -0.0098869   -0.0044826
h    -3.9065649    1.4273324    1.4210863  0.00    0.0014032   -0.0009681   -0.0023295
h    -3.5040219   -0.4078217    0.2339850  0.00   -0.0019230   -0.0019049    0.0021465
h    -4.3423851    0.2256919   -1.0800367  0.00   -0.0059464    0.0016009   -0.0033109
o    -1.7431231    2.6889468   -0.8409115  0.00   -0.0120011   -0.0168427    0.0190792
o    -2.0192148    3.0971992    1.5077295  0.00    0.0216363   -0.0509349    0.0115827
h    -2.2501382    4.1086619    1.4569490  0.00   -0.0237611    0.0449674    0.0008762
    13
 Energy =       0.0822157435
c    -3.7353921    1.6611315    0.3453275  0.00   -0.0103147    0.0046343    0.0147948
c    -2.4387208    2.4679721    0.3641657  0.00    0.0155139    0.0219690   -0.0327638
c    -4.8994974    2.4945597   -0.2305760  0.00    0.0027936    0.0017896    0.0000628
h    -5.8435141    1.8997114   -0.2234438  0.00   -0.0039102   -0.0030941   -0.0008215
h    -4.6743062    2.7937663   -1.2830007  0.00    0.0003758    0.0011651   -0.0030328
h    -5.0631733    3.4164335    0.3774060  0.00   -0.0011601    0.0039436    0.0028031
n    -3.5658797    0.4059574   -0.4273877  0.00    0.0171783   -0.0038807   -0.0041221
h    -3.9514568    1.4246633    1.4140713  0.00    0.0011382   -0.0011468   -0.0015418
h    -3.6175720   -0.4197121    0.2233086  0.00   -0.0018971   -0.0067009    0.0061158
h    -4.3282055    0.2737129   -1.1434930  0.00   -0.0099551    0.0011223   -0.0070659
o    -1.6661446    2.6065732   -0.7702537  0.00   -0.0079646   -0.0145706    0.0136840
o    -2.0374411    3.0637083    1.5577761  0.00    0.0196156   -0.0457307    0.0111126
h    -2.2629427    4.0729590    1.5012282  0.00   -0.0214139    0.0404999    0.0007747
    13
 Energy =       0.0831286373
c    -3.7372742    1.6658141    0.3541264  0.00   -0.0105641    0.0052403    0.0142445
c    -2.4115115    2.4266371    0.3348645  0.00    0.0122369    0.0198536   -0.0274608
c    -4.8855130    2.5283029   -0.2108223  0.00    0.0025827    0.0017431   -0.0000617
h    -5.8459754    1.9606230   -0.1836732  0.00   -0.0041173   -0.0031004   -0.0007255
h    -4.6685582    2.8116228   -1.2691627  0.00    0.0004571    0.0010519   -0.0028973
h    -5.0133389    3.4595495    0.3916301  0.00   -0.0011760    0.0041110    0.0028760
n    -3.6266658    0.3921182   -0.4000169  0.00    0.0170162   -0.0037171   -0.0053560
h    -3.9386134    1.4547332    1.4315674  0.00    0.0007332   -0.0008443   -0.0008683
h    -3.7327705   -0.4236026    0.2581276  0.00   -0.0019107   -0.0083384    0.0067037
h    -4.3807528    0.2929806   -1.1300601  0.00   -0.0098992    0.0010110   -0.0070189
o    -1.6298139    2.4765336   -0.8058887  0.00   -0.0041341   -0.0128233    0.0082329
o    -1.9819722    3.0577642    1.5006619  0.00    0.0181185   -0.0412470    0.0119486
h    -2.2314864    4.0583600    1.4337744  0.00   -0.0193432    0.0370595    0.0003828
    13
 Energy =       0.0839348114
c    -3.7371790    1.6693574    0.3604241  0.00   -0.0103844    0.0054728    0.0134475
c    -2.3886272    2.3893161    0.3141940  0.00    0.0098716    0.0181856   -0.0234921
c    -4.8699122    2.5572692   -0.1962019  0.00    0.0023293    0.0016907   -0.0001686
h    -5.8431480    2.0127170   -0.1557904  0.00   -0.0040781   -0.0029830   -0.0006441
h    -4.6580880    2.8301599   -1.2580485  0.00    0.0004716    0.0009424   -0.0026805
h    -4.9689387    3.4939352    0.4029590  0.00   -0.0011307    0.0040559    0.0028009
n    -3.6753026    0.3837699   -0.3791099  0.00    0.0171679   -0.0027877   -0.0059708
h    -3.9273428    1.4766789    1.4436134  0.00    0.0004953   -0.0006008   -0.0004784
h    -3.8395604   -0.4213108    0.2818155  0.00   -0.0020719   -0.0099351    0.0075311
h    -4.4115793    0.3175339   -1.1310766  0.00   -0.0101209    0.0010531   -0.0072934
o    -1.6012596    2.3671433   -0.8268959  0.00   -0.0017266   -0.0115007    0.0047320
o    -1.9368922    3.0482078    1.4562111  0.00    0.0169663   -0.0383370    0.0124133
h    -2.2264163    4.0366587    1.3930346  0.00   -0.0177891    0.0347438   -0.0001970
    13
 Energy =       0.0843125208
c    -3.7368583    1.6720108    0.3644377  0.00   -0.0097806    0.0053032    0.0124092
c    -2.3731509    2.3617513    0.3021613  0.00    0.0084274    0.0166322   -0.0207745
c    -4.8564860    2.5777019   -0.1894875  0.00    0.0021093    0.0015978   -0.0002044
h    -5.8385936    2.0505311   -0.1408463  0.00   -0.0038585   -0.0027872   -0.0005693
h    -4.6463955    2.8420910   -1.2535723  0.00    0.0004573    0.0008521   -0.0024493
h    -4.9355496    3.5183319    0.4057831  0.00   -0.0010529    0.0038294    0.0026216
n    -3.7085643    0.3791865   -0.3635370  0.00    0.0165175   -0.0021355   -0.0059521
h    -3.9212500    1.4923849    1.4509882  0.00    0.0003700   -0.0004742   -0.0002976
h    -3.9159099   -0.4150627    0.2986563  0.00   -0.0021066   -0.0102728    0.0076564
h    -4.4278229    0.3347453   -1.1331210  0.00   -0.0097847    0.0010659   -0.0071352
o    -1.5844400    2.2928562   -0.8376712  0.00   -0.0007094   -0.0103817    0.0031311
o    -1.9062334    3.0394921    1.4267922  0.00    0.0158593   -0.0357961    0.0121578
h    -2.2329918    4.0154162    1.3745450  0.00   -0.0164481    0.0325670   -0.0005936
    13
 Energy =       0.0843769035
c    -3.7384890    1.6742164    0.3663455  0.00   -0.0089711    0.0048792    0.0113119
c    -2.3640901    2.3414085    0.3003629  0.00    0.0075267    0.0151244   -0.0186585
c    -4.8443975    2.5930152   -0.1929887  0.00    0.0019011    0.0015246   -0.0002020
h    -5.8337424    2.0804996   -0.1415228  0.00   -0.0035867   -0.0025731   -0.0004942
h    -4.6303187    2.8483495   -1.2582908  0.00    0.0004375    0.0007863   -0.0022463
h    -4.9100697    3.5377772    0.3966193  0.00   -0.0009757    0.0035470    0.0024044
n    -3.7307851    0.3768649   -0.3527369  0.00    0.0152227   -0.0018524   -0.0055864
h    -3.9254633    1.5043372    1.4540852  0.00    0.0002934   -0.0004349   -0.0002151
h    -3.9623263   -0.4086358    0.3111356  0.00   -0.0019764   -0.0096905    0.0071891
h    -4.4396747    0.3429004   -1.1316866  0.00   -0.0090036    0.0009943   -0.0065815
o    -1.5738605    2.2477751   -0.8372196  0.00   -0.0003760   -0.0093504    0.0025025
o    -1.8894623    3.0285520    1.4156843  0.00    0.0145447   -0.0329604    0.0113073
h    -2.2415667    3.9943764    1.3753413  0.00   -0.0150367    0.0300059   -0.0007311
    13
 Energy =       0.0839925517
c    -3.7561803    1.6860631    0.3702103  0.00   -0.0058186    0.0018321    0.0066977
c    -2.3345005    2.2510320    0.3263494  0.00    0.0058548    0.0089336   -0.0088850
c    -4.7803362    2.6633116   -0.2503019  0.00    0.0001926    0.0037363   -0.0001694
h    -5.8063256    2.2263762   -0.2015592  0.00   -0.0045943   -0.0024454    0.0005054
h    -4.5226213    2.8619863   -1.3192054  0.00    0.0011729    0.0011830   -0.0031776
h    -4.7910517    3.6338026    0.2994098  0.00   -0.0012271    0.0039809    0.0018046
n    -3.8209985    0.3695240   -0.3066971  0.00    0.0100076   -0.0017494   -0.0053065
h    -3.9887401    1.5635441    1.4575935  0.00   -0.0010119   -0.0011446    0.0018185
h    -4.1210794   -0.3781721    0.3713784  0.00   -0.0017614   -0.0082667    0.0059036
h    -4.5014130    0.3566244   -1.1075658  0.00   -0.0049804    0.0002876   -0.0037514
o    -1.5328207    2.0948960   -0.7990828  0.00    0.0020866   -0.0039921   -0.0009413
o    -1.8409248    2.9552852    1.4208432  0.00    0.0112055   -0.0264440    0.0080722
h    -2.2872542    3.8771631    1.4437559  0.00   -0.0111265    0.0240888   -0.0025708
    13
 Energy =       0.0834384140
c    -3.7781816    1.6949149    0.3584800  0.00   -0.0002366   -0.0008566   -0.0007683
c    -2.3591693    2.2540496    0.3860007  0.00   -0.0050758   -0.0002308    0.0082322
c    -4.7532658    2.6646080   -0.3430567  0.00   -0.0020123    0.0015578    0.0003331
h    -5.7896548    2.2613074   -0.3104149  0.00   -0.0013358   -0.0005734    0.0004449
h    -4.4526764    2.8046401   -1.4098932  0.00    0.0008106    0.0007429   -0.0028841
h    -4.7538080    3.6586675    0.1584240  0.00   -0.0006590    0.0018547    0.0009175
n    -3.8112674    0.3718163   -0.3000189  0.00    0.0109482    0.0055437   -0.0006877
h    -4.0788738    1.5978441    1.4326741  0.00   -0.0006978    0.0001468    0.0030500
h    -4.0055824   -0.3825281    0.4098248  0.00   -0.0027926   -0.0085566    0.0069980
h    -4.5593114    0.2991833   -1.0385743  0.00   -0.0071182   -0.0003280   -0.0078604
o    -1.5712503    2.2536492   -0.7690695  0.00    0.0067909   -0.0018365   -0.0141007
o    -1.8810789    2.8796278    1.5361556  0.00    0.0046466   -0.0022131    0.0073875
h    -2.2901261    3.8036565    1.5945969  0.00   -0.0032680    0.0047488   -0.0010619
    13
 Energy =       0.0831400044
c    -3.7522151    1.7032316    0.3747498  0.00   -0.0011937   -0.0002634    0.0024155
c    -2.3579897    2.3212910    0.3195528  0.00    0.0005735    0.0017544    0.0002458
c    -4.7986442    2.6003750   -0.3187188  0.00   -0.0002041    0.0022852   -0.0015549
h    -5.8120901    2.1459456   -0.2402747  0.00   -0.0021290   -0.0009787   -0.0000544
h    -4.5431821    2.7260110   -1.3966589  0.00    0.0000190    0.0004549   -0.0006573
h    -4.8274275    3.6071114    0.1528099  0.00    0.0003536    0.0006459    0.0000795
n    -3.7605229    0.3507295   -0.2223431  0.00    0.0117394    0.0040780   -0.0002038
h    -3.9979960    1.6373574    1.4638265  0.00   -0.0001402   -0.0007331    0.0015809
h    -4.0818418   -0.3559078    0.4916696  0.00   -0.0016739   -0.0078163    0.0104347
h    -4.4005583    0.2764515   -1.0599543  0.00   -0.0102668    0.0002934   -0.0116904
o    -1.6413367    2.3662500   -0.8715772  0.00    0.0028224    0.0003763   -0.0014291
o    -1.8306173    2.9422951    1.4463458  0.00    0.0018856   -0.0036990    0.0012805
h    -2.2798246    3.8402952    1.5657011  0.00   -0.0017857    0.0036025   -0.0004469
    13
 Energy =       0.0831693885
c    -3.7587806    1.7056160    0.3716210  0.00   -0.0010746   -0.0003547    0.0021286
c    -2.3607443    2.3160686    0.3358884  0.00    0.0005045    0.0015089    0.0001606
c    -4.7898234    2.6076621   -0.3381621  0.00   -0.0002672    0.0021615   -0.0013882
h    -5.8073804    2.1610470   -0.2707433  0.00   -0.0020104   -0.0009072   -0.0000327
h    -4.5196644    2.7271812   -1.4132894  0.00    0.0000461    0.0004349   -0.0007142
h    -4.8174297    3.6163515    0.1291635  0.00    0.0003018    0.0005973    0.0000708
n    -3.7649195    0.3529543   -0.2248398  0.00    0.0106372    0.0037035   -0.0001697
h    -4.0215496    1.6422461    1.4568577  0.00   -0.0001642   -0.0006798    0.0015692
h    -4.0770783   -0.3547437    0.4911639  0.00   -0.0015394   -0.0070889    0.0094333
h    -4.4109306    0.2742087   -1.0563199  0.00   -0.0092687    0.0002477   -0.0105949
o    -1.6335278    2.3695440   -0.8484100  0.00    0.0026136    0.0003448   -0.0014127
o    -1.8395716    2.9216104    1.4740584  0.00    0.0018604   -0.0032531    0.0013560
h    -2.2828461    3.8216905    1.5981400  0.00   -0.0016392    0.0032851   -0.0004061
    13
 Energy =       0.0831787902
c    -3.7637168    1.7076474    0.3691700  0.00   -0.0009654   -0.0003846    0.0018882
c    -2.3630948    2.3122964    0.3476875  0.00    0.0004434    0.0013124    0.0001008
c    -4.7830610    2.6130843   -0.3527449  0.00   -0.0002875    0.0020051   -0.0012431
h    -5.8035309    2.1724091   -0.2934292  0.00   -0.0018613   -0.0008305   -0.0000202
h    -4.5020889    2.7276574   -1.4256524  0.00    0.0000586    0.0004054   -0.0007112
h    -4.8096347    3.6233202    0.1112032  0.00    0.0002620    0.0005476    0.0000634
n    -3.7683461    0.3547634   -0.2264634  0.00    0.0096189    0.0033527   -0.0001408
h    -4.0390438    1.6464948    1.4513379  0.00   -0.0001701   -0.0006229    0.0014933
h    -4.0734709   -0.3534463    0.4911166  0.00   -0.0014054   -0.0064118    0.0085145
h    -4.4189597    0.2724194   -1.0529649  0.00   -0.0083598    0.0002132   -0.0095817
o    -1.6287291    2.3730261   -0.8317401  0.00    0.0023900    0.0003121   -0.0013430
o    -1.8459779    2.9051377    1.4944106  0.00    0.0017735   -0.0028875    0.0013454
h    -2.2845917    3.8066265    1.6231977  0.00   -0.0014969    0.0029889   -0.0003658
    13
 Energy =       0.0831679425
c    -3.7906296    1.7200890    0.3554110  0.00   -0.0001857   -0.0019825   -0.0002845
c    -2.3770890    2.2928027    0.4091638  0.00   -0.0003545   -0.0010976   -0.0016448
c    -4.7460360    2.6422526   -0.4321513  0.00   -0.0014276    0.0024193   -0.0002650
h    -5.7815220    2.2339970   -0.4159397  0.00   -0.0020719   -0.0005941    0.0002112
h    -4.4073316    2.7281870   -1.4926115  0.00    0.0006370    0.0004732   -0.0022038
h    -4.7665147    3.6613547    0.0121807  0.00   -0.0002077    0.0004972   -0.0000002
n    -3.7876575    0.3652955   -0.2335331  0.00    0.0043101    0.0015821    0.0003816
h    -4.1331173    1.6729430    1.4202295  0.00   -0.0008732   -0.0004859    0.0027550
h    -4.0550968   -0.3439142    0.4928341  0.00   -0.0009804   -0.0028522    0.0032627
h    -4.4627977    0.2622837   -1.0319316  0.00   -0.0030993   -0.0002678   -0.0042730
o    -1.6085604    2.3985949   -0.7456509  0.00    0.0017960    0.0001593   -0.0025721
o    -1.8779197    2.8096684    1.6027953  0.00    0.0036684   -0.0000654    0.0046422
h    -2.2899740    3.7178822    1.7643322  0.00   -0.0012113    0.0022143   -0.0000094
    13
 Energy =       0.0831060049
c    -3.7903528    1.7263667    0.3558553  0.00    0.0000279    0.0002891    0.0001188
c    -2.3816683    2.3029573    0.4017440  0.00   -0.0001251   -0.0000341    0.0001283
c    -4.7470146    2.6345925   -0.4386838  0.00    0.0001331   -0.0002186    0.0000082
h    -5.7782666    2.2216199   -0.4211532  0.00    0.0001874    0.0000617   -0.0000307
h    -4.4083697    2.7120803   -1.4974045  0.00   -0.0000586   -0.0000270    0.0001907
h    -4.7724080    3.6570149   -0.0031769  0.00    0.0000283   -0.0000012    0.0000302
n    -3.7839283    0.3654094   -0.2169334  0.00   -0.0002160   -0.0001507   -0.0002356
h    -4.1310058    1.6912132    1.4187003  0.00    0.0000842    0.0000196   -0.0002073
h    -4.0677390   -0.3325300    0.5102494  0.00    0.0001140    0.0000621   -0.0000839
h    -4.4438977    0.2558143   -1.0228698  0.00    0.0000762    0.0000738    0.0002707
o    -1.6279130    2.4293559   -0.7586891  0.00    0.0000149   -0.0000545   -0.0001136
o    -1.8703107    2.7974977    1.5959039  0.00   -0.0001789   -0.0002566   -0.0000926
h    -2.2813718    3.7000444    1.7815861  0.00   -0.0000873    0.0002364    0.0000168
    13
 Energy =       0.0831035393
c    -3.7911951    1.7304075    0.3543808  0.00    0.0000016    0.0000484    0.0000466
c    -2.3831365    2.3096291    0.3960213  0.00   -0.0002066   -0.0001246   -0.0000718
c    -4.7506675    2.6329610   -0.4438243  0.00    0.0000091   -0.0000180   -0.0000024
h    -5.7815323    2.2187856   -0.4220668  0.00    0.0000112   -0.0000004   -0.0000028
h    -4.4138060    2.7049274   -1.5037034  0.00   -0.0000033    0.0000005    0.0000020
h    -4.7764845    3.6579265   -0.0143272  0.00    0.0000053    0.0000189    0.0000116
n    -3.7824398    0.3668144   -0.2119728  0.00    0.0000405    0.0000116   -0.0000286
h    -4.1312204    1.6996246    1.4177386  0.00    0.0000063   -0.0000005   -0.0000093
h    -4.0588077   -0.3288208    0.5204382  0.00   -0.0000062   -0.0000447    0.0000380
h    -4.4470966    0.2503859   -1.0133264  0.00   -0.0000382   -0.0000064   -0.0000289
o    -1.6412381    2.4568685   -0.7698094  0.00    0.0001364   -0.0000022   -0.0003706
o    -1.8588108    2.7815298    1.5941065  0.00    0.0002163   -0.0002669    0.0003352
h    -2.2678110    3.6803970    1.8014734  0.00   -0.0001724    0.0003844    0.0000808
    13
 Energy =       0.0831033153
c    -3.7914542    1.7310982    0.3541360  0.00   -0.0000000   -0.0000043   -0.0000040
c    -2.3834753    2.3106143    0.3955744  0.00    0.0000161    0.0000087    0.0000040
c    -4.7510480    2.6328056   -0.4449205  0.00   -0.0000012    0.0000019    0.0000003
h    -5.7818694    2.2185139   -0.4228604  0.00   -0.0000012    0.0000000    0.0000005
h    -4.4141063    2.7039106   -1.5048362  0.00    0.0000002    0.0000002   -0.0000004
h    -4.7770343    3.6581362   -0.0163610  0.00   -0.0000006   -0.0000014   -0.0000006
n    -3.7822583    0.3671099   -0.2111861  0.00   -0.0000030   -0.0000011    0.0000025
h    -4.1317183    1.7010429    1.4174460  0.00   -0.0000006   -0.0000002    0.0000012
h    -4.0578614   -0.3280706    0.5218931  0.00    0.0000004    0.0000036   -0.0000035
h    -4.4472803    0.2497107   -1.0120563  0.00    0.0000032    0.0000006    0.0000018
o    -1.6431517    2.4611788   -0.7705520  0.00   -0.0000104   -0.0000008    0.0000290
o    -1.8572962    2.7786700    1.5940579  0.00   -0.0000158    0.0000219   -0.0000235
h    -2.2656925    3.6767160    1.8047936  0.00    0.0000130   -0.0000293   -0.0000073
    13
 Energy =       0.0831033143
c    -3.7914553    1.7311207    0.3541356  0.00   -0.0000000    0.0000000    0.0000000
c    -2.3834820    2.3106465    0.3955448  0.00   -0.0000000   -0.0000000   -0.0000000
c    -4.7510565    2.6327890   -0.4449533  0.00   -0.0000000    0.0000000   -0.0000000
h    -5.7818714    2.2184848   -0.4228837  0.00    0.0000000   -0.0000000   -0.0000000
h    -4.4141138    2.7038626   -1.5048705  0.00    0.0000000   -0.0000000   -0.0000000
h    -4.7770524    3.6581358   -0.0164290  0.00    0.0000000    0.0000000   -0.0000000
n    -3.7822531    0.3671072   -0.2111298  0.00    0.0000000    0.0000000   -0.0000000
h    -4.1317142    1.7011065    1.4174469  0.00   -0.0000000    0.0000000    0.0000000
h    -4.0579419   -0.3280372    0.5219554  0.00   -0.0000000   -0.0000000    0.0000000
h    -4.4472097    0.2496965   -1.0120555  0.00   -0.0000000   -0.0000000   -0.0000000
o    -1.6432256    2.4613279   -0.7706302  0.00    0.0000000    0.0000000   -0.0000000
o    -1.8572367    2.7785791    1.5940676  0.00    0.0000000   -0.0000000    0.0000000
h    -2.2656336    3.6766172    1.8049300  0.00   -0.0000000    0.0000000    0.0000000
