    24
 Energy =       0.1396529939
c    -0.7768788    1.7943103   -0.4781535  0.00   -0.0910936    0.0456332   -0.0016493
c     0.0064882    2.8453086   -0.0230448  0.00   -0.0719225    0.0817731    0.0120522
c     1.3700353    2.6765253    0.1685838  0.00    0.0395768    0.0810944    0.0305466
c    -0.1766024    0.5615624   -0.7505246  0.00   -0.0414346   -0.0623542   -0.0301396
c     1.2047783    0.3610782   -0.5608861  0.00    0.1236187   -0.0623432    0.0132827
c     1.9654211    1.4381490   -0.0909449  0.00    0.0530444   -0.0096199    0.0044652
o    -0.5275926    4.0678125    0.2538392  0.00   -0.0269257   -0.0296370   -0.0128683
h    -1.4868688    4.0271510    0.1074010  0.00    0.0741970   -0.0319290    0.0019260
h     3.0286659    1.3541351    0.0943202  0.00   -0.0043522    0.0150280    0.0066680
h    -0.8013460   -0.2557043   -1.1091948  0.00   -0.0040265   -0.1236246   -0.0053794
h    -1.8455634    1.9101661   -0.6277603  0.00   -0.0008935   -0.0026580   -0.0002077
h     1.9718664    3.5079297    0.5256195  0.00    0.0053069   -0.0005825   -0.0000609
c     1.7669373   -1.0073413   -0.8964724  0.00   -0.0369007   -0.0323517   -0.0403266
c     0.8861134   -2.0194266   -1.6556448  0.00   -0.0307491    0.0718530    0.0152326
h     2.1212937   -1.4658931    0.0371405  0.00   -0.0041721    0.0072169   -0.0119146
h     2.6645729   -0.8285312   -1.5058794  0.00   -0.0142185   -0.0045101    0.0064484
c     1.7481012   -3.2276699   -2.0845864  0.00    0.3833902   -0.0599715   -0.1182600
o     2.9166907   -3.1880566   -2.4354089  0.00   -0.2864516   -0.0170111    0.0904405
o     1.0176544   -4.3756256   -2.0624861  0.00   -0.0476724    0.0686460    0.0380311
h     1.6057631   -5.0659834   -2.4615103  0.00   -0.0050668    0.0406623    0.0070699
n    -0.2697763   -2.5678537   -0.8742070  0.00   -0.0547709   -0.0535680   -0.0072187
h     0.4960411   -1.5757973   -2.5789902  0.00   -0.0090136   -0.0087035    0.0229884
h    -0.1377783   -2.3090138    0.1103184  0.00   -0.0003764    0.0064495   -0.0367739
h    -1.1177682   -2.0693246   -1.1533357  0.00    0.0509067    0.0805080    0.0156475
    24
 Energy =       0.1354104590
c    -0.7523847    1.8038294   -0.3826366  0.00   -0.0879657    0.0438957   -0.0016901
c     0.0562254    2.8375056    0.0633180  0.00   -0.0693713    0.0781890    0.0113817
c     1.4212755    2.6489080    0.2126165  0.00    0.0381184    0.0783688    0.0295673
c    -0.1747640    0.5690664   -0.6857158  0.00   -0.0407987   -0.0594092   -0.0288980
c     1.2084005    0.3512188   -0.5524738  0.00    0.1173035   -0.0580765    0.0137898
c     1.9955239    1.4108064   -0.0895250  0.00    0.0513270   -0.0096291    0.0043544
o    -0.4519188    4.0634705    0.3801489  0.00   -0.0249762   -0.0270375   -0.0117578
h    -1.4110038    4.0611923    0.2149453  0.00    0.0697785   -0.0306943    0.0015695
h     3.0663025    1.3144237    0.0450968  0.00   -0.0027566    0.0141279    0.0065207
h    -0.8202119   -0.2343183   -1.0243553  0.00   -0.0043919   -0.1176593   -0.0052003
h    -1.8250198    1.9335950   -0.4926711  0.00   -0.0017707   -0.0024027   -0.0002846
h     2.0432936    3.4680828    0.5641965  0.00    0.0053286   -0.0003389    0.0000501
c     1.7554409   -1.0028410   -0.9872393  0.00   -0.0367361   -0.0320001   -0.0400331
c     0.8321563   -2.0001175   -1.7266305  0.00   -0.0290450    0.0687183    0.0133379
h     2.1928415   -1.4960187   -0.1013608  0.00   -0.0019162    0.0048833   -0.0074192
h     2.6008286   -0.7889721   -1.6646325  0.00   -0.0105975   -0.0044180    0.0032314
c     1.6710105   -3.2141183   -2.1863777  0.00    0.3684756   -0.0566628   -0.1139316
o     2.8463003   -3.1907596   -2.5413285  0.00   -0.2743787   -0.0158970    0.0867515
o     0.9425274   -4.3653374   -2.1281397  0.00   -0.0573066    0.0789153    0.0412508
h     1.5750775   -5.0980768   -2.3888920  0.00    0.0062473    0.0243257    0.0022333
n    -0.2938421   -2.5519132   -0.9065733  0.00   -0.0520361   -0.0543968   -0.0106240
h     0.4062839   -1.5442083   -2.6300950  0.00   -0.0090836   -0.0081042    0.0212258
h    -0.0972293   -2.3442495    0.0833988  0.00    0.0006468    0.0071275   -0.0299817
h    -1.1568652   -2.0432613   -1.1268816  0.00    0.0459052    0.0781751    0.0145559
    24
 Energy =       0.1196735506
c    -0.7239129    1.8362495   -0.4471628  0.00   -0.0778340    0.0388052   -0.0012687
c     0.0908527    2.8568161    0.0066879  0.00   -0.0615636    0.0687379    0.0100637
c     1.4455414    2.6455972    0.1819802  0.00    0.0335860    0.0693923    0.0261410
c    -0.1636041    0.5946640   -0.7327248  0.00   -0.0366063   -0.0519859   -0.0253724
c     1.2066204    0.3525503   -0.5609188  0.00    0.1014380   -0.0485798    0.0118087
c     2.0015786    1.3975545   -0.0919948  0.00    0.0455000   -0.0087624    0.0037130
o    -0.4026728    4.0988030    0.3009493  0.00   -0.0213770   -0.0232189   -0.0102928
h    -1.3715382    4.1082815    0.1661606  0.00    0.0606944   -0.0271939    0.0013777
h     3.0656997    1.2736765    0.0782933  0.00   -0.0013894    0.0121845    0.0059051
h    -0.8137445   -0.1955014   -1.0908729  0.00   -0.0041368   -0.1039458   -0.0048931
h    -1.7908840    1.9872338   -0.5850658  0.00   -0.0021973   -0.0020112   -0.0003168
h     2.0736970    3.4570360    0.5399834  0.00    0.0048036   -0.0002610    0.0000609
c     1.7409692   -1.0358977   -0.9018290  0.00   -0.0355243   -0.0286629   -0.0367692
c     0.8287658   -2.0109778   -1.6873392  0.00   -0.0250372    0.0609253    0.0108740
h     2.0721723   -1.5226053    0.0407314  0.00    0.0001991    0.0009096   -0.0008336
h     2.6612520   -0.8803787   -1.5058794  0.00   -0.0035882   -0.0033012   -0.0008348
c     1.6526037   -3.2321994   -2.1398332  0.00    0.3255722   -0.0491362   -0.0999917
o     2.8453679   -3.2088884   -2.5030110  0.00   -0.2420844   -0.0140180    0.0764206
o     0.9195470   -4.3850320   -2.1208821  0.00   -0.0519236    0.0704476    0.0369825
h     1.5407667   -5.1123988   -2.4276102  0.00    0.0063898    0.0198806    0.0012821
n    -0.3352812   -2.5400112   -0.9061595  0.00   -0.0466006   -0.0499118   -0.0093889
h     0.4494061   -1.5355360   -2.6042742  0.00   -0.0083700   -0.0065741    0.0176658
h    -0.1780095   -2.3450252    0.0958891  0.00    0.0006661    0.0065239   -0.0249645
h    -1.1849451   -2.0161037   -1.1569252  0.00    0.0393835    0.0697561    0.0126313
    24
 Energy =       0.1094222797
c    -0.6500884    1.8984577   -0.4579713  0.00   -0.0695484    0.0339604   -0.0012610
c     0.1993323    2.8838198    0.0009249  0.00   -0.0545474    0.0601470    0.0087200
c     1.5407528    2.6193198    0.1804609  0.00    0.0299577    0.0618386    0.0232482
c    -0.1363449    0.6411383   -0.7424025  0.00   -0.0329903   -0.0462285   -0.0224349
c     1.2147326    0.3428323   -0.5595101  0.00    0.0886869   -0.0419182    0.0095608
c     2.0476961    1.3522661   -0.0870983  0.00    0.0409624   -0.0077071    0.0033356
o    -0.2439197    4.1490980    0.2957324  0.00   -0.0167516   -0.0188559   -0.0084513
h    -1.2208611    4.2027487    0.1964532  0.00    0.0507921   -0.0235153    0.0011455
h     3.1039958    1.1793074    0.0950566  0.00    0.0000682    0.0104677    0.0054000
h    -0.8075569   -0.1168536   -1.1120060  0.00   -0.0035131   -0.0907945   -0.0042664
h    -1.7093092    2.0937462   -0.6047195  0.00   -0.0030065   -0.0016198   -0.0004329
h     2.1977553    3.4062470    0.5430272  0.00    0.0047117    0.0003497    0.0003150
c     1.6880843   -1.0819694   -0.8569224  0.00   -0.0322511   -0.0253081   -0.0324625
c     0.7647615   -2.0085322   -1.7017247  0.00   -0.0216865    0.0540797    0.0091006
h     1.9297270   -1.5833191    0.1092299  0.00    0.0011414   -0.0017127    0.0026088
h     2.6590648   -0.9825692   -1.3987779  0.00    0.0010345   -0.0018689   -0.0025109
c     1.5609319   -3.2460486   -2.1555763  0.00    0.2859654   -0.0435252   -0.0876843
o     2.7711198   -3.2415708   -2.5228348  0.00   -0.2125233   -0.0127338    0.0671448
o     0.8247531   -4.4006203   -2.1299336  0.00   -0.0456760    0.0618830    0.0325080
h     1.4383616   -5.1338659   -2.4401331  0.00    0.0056459    0.0174215    0.0011173
n    -0.4413068   -2.5152199   -0.9689923  0.00   -0.0426127   -0.0509725   -0.0189685
h     0.4336269   -1.4968909   -2.6204586  0.00   -0.0080166   -0.0049543    0.0142444
h    -0.2670473   -2.4487436    0.0560796  0.00    0.0044735    0.0070831   -0.0087032
h    -1.2680129   -1.9248707   -1.1697108  0.00    0.0296837    0.0644842    0.0087270
    24
 Energy =       0.1018089974
c    -0.6965746    1.8619495   -0.4751871  0.00   -0.0646596    0.0313866   -0.0012774
c     0.1288814    2.8661862   -0.0161310  0.00   -0.0503847    0.0556308    0.0080361
c     1.4742127    2.6320433    0.1634149  0.00    0.0279977    0.0574688    0.0216149
c    -0.1587004    0.6163094   -0.7586762  0.00   -0.0310811   -0.0429989   -0.0207634
c     1.2002870    0.3523340   -0.5759601  0.00    0.0814676   -0.0383550    0.0085560
c     2.0084578    1.3796073   -0.1054281  0.00    0.0383352   -0.0072153    0.0031383
o    -0.3486431    4.1213393    0.2799082  0.00   -0.0153388   -0.0167004   -0.0075409
h    -1.3279766    4.1549309    0.1676517  0.00    0.0464867   -0.0217427    0.0009788
h     3.0699781    1.2304742    0.0712114  0.00    0.0003985    0.0095985    0.0050278
h    -0.8212478   -0.1575667   -1.1262554  0.00   -0.0038114   -0.0839707   -0.0038584
h    -1.7600952    2.0341562   -0.6207482  0.00   -0.0030736   -0.0014563   -0.0004404
h     2.1129166    3.4338004    0.5261262  0.00    0.0045505    0.0005227    0.0003905
c     1.7330548   -1.0477507   -0.8831507  0.00   -0.0300589   -0.0226403   -0.0297468
c     0.8117137   -2.0248842   -1.6671642  0.00   -0.0203181    0.0502428    0.0072075
h     2.0444753   -1.5291985    0.0760756  0.00    0.0019580   -0.0029814    0.0044266
h     2.6713274   -0.9092372   -1.4762601  0.00    0.0031918   -0.0008124   -0.0033446
c     1.6131809   -3.2592144   -2.1081216  0.00    0.2643805   -0.0406471   -0.0808920
o     2.8316342   -3.2387899   -2.4802311  0.00   -0.1965438   -0.0117228    0.0619919
o     0.8847971   -4.4196786   -2.1036379  0.00   -0.0426131    0.0572767    0.0300851
h     1.5067751   -5.1466947   -2.4134020  0.00    0.0052907    0.0160675    0.0010048
n    -0.3628696   -2.5191913   -0.8820761  0.00   -0.0345147   -0.0614186   -0.0313023
h     0.4492345   -1.5507339   -2.5973978  0.00   -0.0078923   -0.0041953    0.0121321
h    -0.2166423   -2.2899905    0.1383672  0.00    0.0083615    0.0115830    0.0127843
h    -1.2179286   -2.0022929   -1.1847352  0.00    0.0178716    0.0670799    0.0017916
    24
 Energy =       0.0816556516
c    -0.6181744    1.9124330   -0.4777781  0.00   -0.0427014    0.0201060   -0.0009693
c     0.2414525    2.8785667   -0.0223441  0.00   -0.0332459    0.0353217    0.0047762
c     1.5691330    2.5921990    0.1424485  0.00    0.0181185    0.0378434    0.0141975
c    -0.1361152    0.6566717   -0.7672990  0.00   -0.0197626   -0.0285231   -0.0135854
c     1.2028029    0.3431976   -0.5960316  0.00    0.0529666   -0.0252889    0.0052058
c     2.0495151    1.3301314   -0.1327517  0.00    0.0253007   -0.0044315    0.0022347
o    -0.1898900    4.1564776    0.2884599  0.00   -0.0060732   -0.0097228   -0.0045728
h    -1.1824191    4.2424685    0.2251889  0.00    0.0259001   -0.0131855    0.0010564
h     3.1058359    1.1307876    0.0317932  0.00    0.0014343    0.0059175    0.0034217
h    -0.8355168   -0.0833260   -1.1280205  0.00   -0.0029604   -0.0583645   -0.0022574
h    -1.6747314    2.1292815   -0.6142167  0.00   -0.0030419   -0.0008274   -0.0004581
h     2.2383445    3.3687623    0.5046179  0.00    0.0033730    0.0010448    0.0005493
c     1.7082147   -1.0726336   -0.8815645  0.00   -0.0187029   -0.0142437   -0.0193086
c     0.7604430   -2.0341228   -1.6585978  0.00   -0.0114397    0.0345876    0.0030816
h     1.9968731   -1.5502655    0.0849061  0.00    0.0014360   -0.0021360    0.0030278
h     2.6528177   -0.9700646   -1.4704673  0.00    0.0026289   -0.0003952   -0.0024524
c     1.4999959   -3.3085914   -2.0753319  0.00    0.1695350   -0.0257074   -0.0517245
o     2.7571980   -3.3326479   -2.4669556  0.00   -0.1248328   -0.0093424    0.0390450
o     0.7526704   -4.4660846   -2.0696702  0.00   -0.0286373    0.0371289    0.0199880
h     1.3576072   -5.2134169   -2.3706391  0.00    0.0036576    0.0099279    0.0005040
n    -0.4381550   -2.4447309   -0.8711759  0.00   -0.0192231   -0.0457640   -0.0191624
h     0.4369830   -1.5573796   -2.6061599  0.00   -0.0052816   -0.0021967    0.0072217
h    -0.3366347   -2.1549724    0.1390161  0.00    0.0049460    0.0083259    0.0129528
h    -1.2880019   -1.9648338   -1.2592343  0.00    0.0066062    0.0499254   -0.0027719
    24
 Energy =       0.0782311015
c    -0.5563168    1.9513566   -0.4650925  0.00   -0.0370049    0.0168844   -0.0011032
c     0.3325110    2.8896390   -0.0134101  0.00   -0.0284433    0.0299678    0.0037824
c     1.6534314    2.5693461    0.1227035  0.00    0.0159218    0.0326492    0.0122742
c    -0.1125736    0.6882238   -0.7705266  0.00   -0.0171220   -0.0247545   -0.0117853
c     1.2163570    0.3378060   -0.6182299  0.00    0.0453646   -0.0219113    0.0043016
c     2.0953075    1.2984889   -0.1653747  0.00    0.0221810   -0.0037891    0.0020585
o    -0.0650261    4.1731147    0.3301401  0.00    0.0055294   -0.0079702   -0.0042428
h    -1.0671895    4.2614952    0.3839420  0.00    0.0108208   -0.0098158    0.0020007
h     3.1479841    1.0677550   -0.0170500  0.00    0.0018443    0.0049280    0.0030146
h    -0.8372334   -0.0274176   -1.1248853  0.00   -0.0027022   -0.0501563   -0.0019563
h    -1.6087869    2.1976826   -0.5833493  0.00   -0.0032370   -0.0006683   -0.0005307
h     2.3472539    3.3256897    0.4817793  0.00    0.0032175    0.0012901    0.0006598
c     1.6835285   -1.0935840   -0.8990751  0.00   -0.0155798   -0.0123691   -0.0165186
c     0.7117571   -2.0329906   -1.6771001  0.00   -0.0091245    0.0303847    0.0021187
h     1.9533851   -1.5759514    0.0701115  0.00    0.0013168   -0.0019988    0.0026946
h     2.6333555   -1.0211051   -1.4840010  0.00    0.0026715   -0.0002500   -0.0022743
c     1.4104404   -3.3374814   -2.0701897  0.00    0.1441627   -0.0213219   -0.0440294
o     2.6776191   -3.4066124   -2.4648301  0.00   -0.1049385   -0.0085299    0.0328798
o     0.6395606   -4.4828947   -2.0341682  0.00   -0.0254973    0.0312921    0.0173579
h     1.2272466   -5.2530822   -2.3139517  0.00    0.0035874    0.0075532    0.0001961
n    -0.5073731   -2.3910971   -0.8975570  0.00   -0.0170990   -0.0400159   -0.0152688
h     0.4170172   -1.5539733   -2.6339607  0.00   -0.0046075   -0.0015089    0.0058576
h    -0.4177751   -2.0848998    0.1078345  0.00    0.0039654    0.0071584    0.0114293
h    -1.3442323   -1.9116011   -1.3155667  0.00    0.0047726    0.0429519   -0.0029162
    24
 Energy =       0.0767032556
c    -0.4851341    1.9902750   -0.4593251  0.00   -0.0346809    0.0155441   -0.0010835
c     0.4337300    2.9032021   -0.0178225  0.00   -0.0261882    0.0273194    0.0034749
c     1.7425869    2.5402461    0.1209419  0.00    0.0151122    0.0304224    0.0114658
c    -0.0827555    0.7127535   -0.7565029  0.00   -0.0161192   -0.0231474   -0.0110502
c     1.2336702    0.3211772   -0.6080959  0.00    0.0418060   -0.0203140    0.0036601
c     2.1433172    1.2548995   -0.1610980  0.00    0.0210668   -0.0036689    0.0019511
o     0.0802239    4.2063534    0.3078625  0.00    0.0080558   -0.0063149   -0.0035737
h    -0.9199183    4.3456084    0.3193207  0.00    0.0064155   -0.0082068    0.0019114
h     3.1884054    0.9902071   -0.0134122  0.00    0.0023043    0.0043670    0.0028518
h    -0.8316022    0.0196971   -1.1011290  0.00   -0.0027155   -0.0460119   -0.0018709
h    -1.5297404    2.2691878   -0.5773950  0.00   -0.0035564   -0.0004871   -0.0005659
h     2.4609554    3.2770073    0.4733047  0.00    0.0033078    0.0015814    0.0007870
c     1.6539789   -1.1286949   -0.8791597  0.00   -0.0138972   -0.0116110   -0.0152624
c     0.6595194   -2.0316477   -1.6753722  0.00   -0.0080078    0.0284523    0.0017014
h     1.8882701   -1.6202846    0.0949595  0.00    0.0014040   -0.0023305    0.0029494
h     2.6165274   -1.0926979   -1.4474634  0.00    0.0032814   -0.0000435   -0.0023768
c     1.3134184   -3.3603438   -2.0642550  0.00    0.1321964   -0.0192835   -0.0400514
o     2.5801605   -3.4745185   -2.4701879  0.00   -0.0950316   -0.0081265    0.0296738
o     0.5076627   -4.4840527   -2.0213794  0.00   -0.0245913    0.0284473    0.0161716
h     1.0684935   -5.2737375   -2.3039796  0.00    0.0037160    0.0061511   -0.0000640
n    -0.5827367   -2.3471848   -0.9140902  0.00   -0.0164136   -0.0378018   -0.0131232
h     0.3968878   -1.5375079   -2.6347812  0.00   -0.0044476   -0.0009593    0.0049364
h    -0.5042310   -2.0386759    0.0909324  0.00    0.0034799    0.0065557    0.0106508
h    -1.4014410   -1.8533613   -1.3536799  0.00    0.0035032    0.0394663   -0.0031634
    24
 Energy =       0.0770086232
c    -0.4210155    2.0197964   -0.4406346  0.00   -0.0343232    0.0152200   -0.0011323
c     0.5240989    2.9091938   -0.0071040  0.00   -0.0255773    0.0266802    0.0033942
c     1.8242185    2.5127164    0.1216893  0.00    0.0150991    0.0300165    0.0113392
c    -0.0531586    0.7330432   -0.7403949  0.00   -0.0160997   -0.0227641   -0.0109169
c     1.2535410    0.3073295   -0.6045184  0.00    0.0408592   -0.0199431    0.0034139
c     2.1903659    1.2174390   -0.1641153  0.00    0.0210555   -0.0036795    0.0019715
o     0.2072223    4.2222821    0.3201002  0.00    0.0083274   -0.0054071   -0.0032784
h    -0.7888586    4.3904314    0.3335154  0.00    0.0055569   -0.0077955    0.0018972
h     3.2295581    0.9257060   -0.0245673  0.00    0.0026717    0.0041478    0.0028396
h    -0.8227286    0.0605730   -1.0757155  0.00   -0.0028846   -0.0446819   -0.0019080
h    -1.4595663    2.3247887   -0.5498530  0.00   -0.0038771   -0.0003777   -0.0006036
h     2.5638204    3.2313292    0.4685808  0.00    0.0035209    0.0018278    0.0009056
c     1.6307854   -1.1561257   -0.8778935  0.00   -0.0131115   -0.0115353   -0.0148491
c     0.6118388   -2.0250253   -1.6845049  0.00   -0.0076606    0.0282306    0.0015030
h     1.8427803   -1.6580846    0.0961948  0.00    0.0014724   -0.0025206    0.0030714
h     2.5978873   -1.1495848   -1.4400950  0.00    0.0036582    0.0000302   -0.0024434
c     1.2212632   -3.3753200   -2.0727411  0.00    0.1285828   -0.0183951   -0.0387099
o     2.4816060   -3.5363472   -2.4909475  0.00   -0.0911588   -0.0081137    0.0283886
o     0.3783099   -4.4734599   -2.0213711  0.00   -0.0252836    0.0274306    0.0160448
h     0.9097404   -5.2825809   -2.3076617  0.00    0.0040876    0.0050873   -0.0003442
n    -0.6459600   -2.3029948   -0.9335186  0.00   -0.0165741   -0.0375220   -0.0121906
h     0.3724607   -1.5188087   -2.6440368  0.00   -0.0044690   -0.0006660    0.0045831
h    -0.5688665   -1.9966686    0.0721098  0.00    0.0033192    0.0064003    0.0104122
h    -1.4490946   -1.7917214   -1.3843246  0.00    0.0028084    0.0383301   -0.0033880
    24
 Energy =       0.0720509826
c    -0.4067966    2.0472611   -0.4924368  0.00   -0.0278337    0.0124111   -0.0007134
c     0.5473343    2.9241844   -0.0588000  0.00   -0.0205894    0.0210214    0.0028518
c     1.8335577    2.5027613    0.1002925  0.00    0.0125945    0.0240548    0.0091852
c    -0.0625694    0.7508685   -0.7667737  0.00   -0.0130848   -0.0185057   -0.0088848
c     1.2307686    0.3045690   -0.6032153  0.00    0.0328855   -0.0159145    0.0025708
c     2.1766137    1.1996340   -0.1603330  0.00    0.0173258   -0.0033992    0.0014744
o     0.2515005    4.2534815    0.2315461  0.00    0.0112201   -0.0044250   -0.0022254
h    -0.7392752    4.4612772    0.1747623  0.00   -0.0004921   -0.0046816    0.0012882
h     3.2067953    0.8867742    0.0010119  0.00    0.0026525    0.0030106    0.0023037
h    -0.8401728    0.0889859   -1.1062998  0.00   -0.0024997   -0.0364988   -0.0016416
h    -1.4362295    2.3726438   -0.6242995  0.00   -0.0035407   -0.0000545   -0.0004781
h     2.5816938    3.2114638    0.4476084  0.00    0.0030167    0.0014885    0.0007520
c     1.5963340   -1.1667316   -0.8335110  0.00   -0.0106885   -0.0093717   -0.0120463
c     0.6008697   -2.0394657   -1.6643296  0.00   -0.0058824    0.0230950    0.0009988
h     1.7651397   -1.6524050    0.1575685  0.00    0.0014244   -0.0025434    0.0034801
h     2.5850577   -1.1824105   -1.3575845  0.00    0.0039013   -0.0001838   -0.0025864
c     1.2258672   -3.3934574   -2.0117593  0.00    0.1028995   -0.0136086   -0.0312793
o     2.5097540   -3.5355355   -2.3995623  0.00   -0.0723078   -0.0068593    0.0228105
o     0.4148495   -4.5153320   -1.9347672  0.00   -0.0211840    0.0217813    0.0132568
h     0.9714321   -5.3201247   -2.1872110  0.00    0.0037866    0.0027574   -0.0006070
n    -0.6806346   -2.2955184   -0.9500542  0.00   -0.0140707   -0.0303978   -0.0094536
h     0.3993116   -1.5445099   -2.6396661  0.00   -0.0037813   -0.0002437    0.0028850
h    -0.6336517   -1.9843489    0.0549089  0.00    0.0026012    0.0053532    0.0090739
h    -1.4673014   -1.7861581   -1.4289028  0.00    0.0016469    0.0317142   -0.0030153
    24
 Energy =       0.0706931624
c    -0.4605246    2.0327307   -0.5376465  0.00   -0.0268081    0.0118629   -0.0007272
c     0.4721280    2.9293234   -0.0970512  0.00   -0.0195740    0.0199991    0.0027272
c     1.7623570    2.5308636    0.0851467  0.00    0.0122893    0.0230394    0.0088443
c    -0.0914432    0.7398213   -0.7965017  0.00   -0.0128183   -0.0176239   -0.0085470
c     1.2067825    0.3178818   -0.6080268  0.00    0.0312976   -0.0151569    0.0024162
c     2.1303981    1.2322316   -0.1588945  0.00    0.0168567   -0.0033456    0.0014608
o     0.1488323    4.2565937    0.1757223  0.00    0.0110398   -0.0037117   -0.0019565
h    -0.8439093    4.4490390    0.0963434  0.00   -0.0010750   -0.0042462    0.0011927
h     3.1633241    0.9377108    0.0209563  0.00    0.0028686    0.0027516    0.0022479
h    -0.8526930    0.0613475   -1.1450221  0.00   -0.0026466   -0.0345891   -0.0016816
h    -1.4929777    2.3404334   -0.6883634  0.00   -0.0037060    0.0000453   -0.0005044
h     2.4934684    3.2548755    0.4373798  0.00    0.0030805    0.0015907    0.0008077
c     1.6073074   -1.1466843   -0.8143741  0.00   -0.0096658   -0.0089479   -0.0111368
c     0.6446748   -2.0542977   -1.6458141  0.00   -0.0059923    0.0222730    0.0008268
h     1.7754443   -1.6154897    0.1849070  0.00    0.0014678   -0.0024638    0.0034660
h     2.6030905   -1.1456570   -1.3253214  0.00    0.0039652   -0.0002252   -0.0025207
c     1.3131531   -3.3949903   -1.9678560  0.00    0.0972282   -0.0123107   -0.0295611
o     2.6115343   -3.4972684   -2.3292971  0.00   -0.0671228   -0.0067281    0.0212117
o     0.5415298   -4.5441063   -1.8823605  0.00   -0.0213833    0.0204259    0.0128953
h     1.1301852   -5.3337577   -2.1126659  0.00    0.0043313    0.0013768   -0.0008835
n    -0.6379359   -2.3317643   -0.9424546  0.00   -0.0135530   -0.0290958   -0.0090243
h     0.4426804   -1.5768968   -2.6300353  0.00   -0.0037442   -0.0001755    0.0025727
h    -0.6071188   -2.0122099    0.0603256  0.00    0.0024719    0.0051878    0.0088740
h    -1.4300394   -1.8418227   -1.4309033  0.00    0.0011928    0.0300680   -0.0030001
    24
 Energy =       0.0694433422
c    -0.5047348    2.0272822   -0.6094328  0.00   -0.0250476    0.0110979   -0.0006768
c     0.4084222    2.9407261   -0.1634256  0.00   -0.0180673    0.0183664    0.0025271
c     1.6981735    2.5592542    0.0515071  0.00    0.0116552    0.0213377    0.0082598
c    -0.1172929    0.7349446   -0.8418701  0.00   -0.0122407   -0.0162159   -0.0079955
c     1.1808338    0.3313676   -0.6185045  0.00    0.0287920   -0.0138298    0.0022566
c     2.0844583    1.2622274   -0.1648039  0.00    0.0159151   -0.0033253    0.0013819
o     0.0640857    4.2693645    0.0798010  0.00    0.0106511   -0.0028907   -0.0016320
h    -0.9279269    4.4523491   -0.0315183  0.00   -0.0018761   -0.0035960    0.0010277
h     3.1165305    0.9811766    0.0419979  0.00    0.0030891    0.0023523    0.0021467
h    -0.8637204    0.0429146   -1.1981426  0.00   -0.0026863   -0.0317750   -0.0016775
h    -1.5369281    2.3220397   -0.7865608  0.00   -0.0038374    0.0001961   -0.0005238
h     2.4140817    3.2964229    0.4074665  0.00    0.0030101    0.0015910    0.0008152
c     1.6081434   -1.1301431   -0.7817730  0.00   -0.0083993   -0.0081830   -0.0097507
c     0.6873641   -2.0750780   -1.6192267  0.00   -0.0060965    0.0209811    0.0006272
h     1.7572846   -1.5735868    0.2322973  0.00    0.0015882   -0.0023568    0.0037753
h     2.6180316   -1.1234210   -1.2646509  0.00    0.0041142   -0.0003807   -0.0025315
c     1.3957761   -3.4098400   -1.8846146  0.00    0.0887772   -0.0101482   -0.0272545
o     2.7117918   -3.4841850   -2.2026900  0.00   -0.0598697   -0.0069589    0.0190828
o     0.6620937   -4.5818522   -1.7673535  0.00   -0.0209161    0.0185476    0.0121868
h     1.2815287   -5.3612793   -1.9539128  0.00    0.0052442   -0.0008440   -0.0012115
n    -0.6100947   -2.3565474   -0.9466006  0.00   -0.0126942   -0.0268320   -0.0083210
h     0.5069183   -1.6262531   -2.6216769  0.00   -0.0037568   -0.0000191    0.0016178
h    -0.6088271   -2.0256751    0.0529534  0.00    0.0022352    0.0050123    0.0089389
h    -1.3957448   -1.8843015   -1.4610733  0.00    0.0004163    0.0278730   -0.0030690
    24
 Energy =       0.0697354889
c    -0.5038955    2.0378555   -0.6622011  0.00   -0.0247155    0.0110367   -0.0006522
c     0.4067642    2.9533562   -0.2157756  0.00   -0.0178116    0.0180204    0.0024689
c     1.6924884    2.5701445    0.0185812  0.00    0.0115125    0.0210236    0.0081441
c    -0.1179605    0.7418875   -0.8760530  0.00   -0.0121344   -0.0159337   -0.0078985
c     1.1754518    0.3363635   -0.6315268  0.00    0.0282580   -0.0134354    0.0022363
c     2.0767221    1.2695308   -0.1780752  0.00    0.0157186   -0.0034028    0.0013488
o     0.0639204    4.2862215    0.0069783  0.00    0.0105184   -0.0026669   -0.0015682
h    -0.9258248    4.4717147   -0.1201627  0.00   -0.0020502   -0.0034438    0.0009960
h     3.1049410    0.9870613    0.0460004  0.00    0.0031870    0.0022300    0.0021353
h    -0.8620552    0.0490451   -1.2338989  0.00   -0.0026545   -0.0312252   -0.0016723
h    -1.5329248    2.3340540   -0.8550268  0.00   -0.0038955    0.0002597   -0.0005295
h     2.4066084    3.3089555    0.3745814  0.00    0.0029670    0.0015665    0.0008035
c     1.5988239   -1.1298358   -0.7612209  0.00   -0.0082967   -0.0081299   -0.0095052
c     0.6967344   -2.0893209   -1.6030025  0.00   -0.0057032    0.0212629    0.0006487
h     1.7236731   -1.5559145    0.2639694  0.00    0.0016595   -0.0024655    0.0041740
h     2.6197866   -1.1353829   -1.2210222  0.00    0.0043877   -0.0004593   -0.0026822
c     1.4078268   -3.4347329   -1.8099312  0.00    0.0871569   -0.0090441   -0.0268689
o     2.7323494   -3.5226967   -2.0928437  0.00   -0.0579412   -0.0075384    0.0185832
o     0.6753632   -4.6036125   -1.6497988  0.00   -0.0210921    0.0178862    0.0120765
h     1.2984917   -5.3898908   -1.7951596  0.00    0.0058595   -0.0021184   -0.0013562
n    -0.6222899   -2.3478094   -0.9631242  0.00   -0.0129868   -0.0265264   -0.0074332
h     0.5491616   -1.6645839   -2.6219262  0.00   -0.0038140    0.0002963    0.0007175
h    -0.6433152   -2.0080776    0.0334133  0.00    0.0021080    0.0050371    0.0092511
h    -1.3905928   -1.8764253   -1.5045821  0.00   -0.0002373    0.0277703   -0.0034173
    24
 Energy =       0.0688650684
c    -0.5147037    2.0248500   -0.6157559  0.00   -0.0243660    0.0109440   -0.0006390
c     0.3948788    2.9412974   -0.1693357  0.00   -0.0175500    0.0176978    0.0024080
c     1.6846175    2.5630361    0.0502968  0.00    0.0113500    0.0207188    0.0080224
c    -0.1239581    0.7328750   -0.8440123  0.00   -0.0120075   -0.0156538   -0.0077920
c     1.1744770    0.3330125   -0.6161362  0.00    0.0277474   -0.0130603    0.0022199
c     2.0744052    1.2666737   -0.1619737  0.00    0.0154999   -0.0034381    0.0013185
o     0.0463135    4.2700775    0.0694177  0.00    0.0103318   -0.0024873   -0.0015167
h    -0.9454518    4.4515803   -0.0478523  0.00   -0.0021096   -0.0033403    0.0009761
h     3.1066861    0.9881319    0.0482144  0.00    0.0032415    0.0021334    0.0021157
h    -0.8680209    0.0383036   -1.2009096  0.00   -0.0026307   -0.0307102   -0.0016645
h    -1.5470501    2.3171778   -0.7965242  0.00   -0.0039122    0.0003015   -0.0005302
h     2.3977656    3.3025687    0.4066062  0.00    0.0029212    0.0015422    0.0007914
c     1.6082372   -1.1274173   -0.7744238  0.00   -0.0082366   -0.0081046   -0.0092896
c     0.6951044   -2.0763106   -1.6157056  0.00   -0.0051980    0.0216934    0.0007265
h     1.7540987   -1.5690051    0.2416396  0.00    0.0016952   -0.0025653    0.0044430
h     2.6208985   -1.1179804   -1.2526070  0.00    0.0045819   -0.0004913   -0.0027968
c     1.4140559   -3.4078452   -1.8817525  0.00    0.0856191   -0.0078316   -0.0263933
o     2.7333241   -3.4714592   -2.1985173  0.00   -0.0559013   -0.0080452    0.0179852
o     0.6914428   -4.5887044   -1.7680570  0.00   -0.0214867    0.0169979    0.0119673
h     1.3187696   -5.3641357   -1.9539128  0.00    0.0064763   -0.0033811   -0.0015618
n    -0.6030923   -2.3638777   -0.9445213  0.00   -0.0133505   -0.0262928   -0.0063313
h     0.5145335   -1.6265101   -2.6196515  0.00   -0.0038473    0.0006811   -0.0001503
h    -0.6063877   -2.0323990    0.0550952  0.00    0.0019928    0.0050157    0.0094153
h    -1.3906954   -1.8960330   -1.4614287  0.00   -0.0008611    0.0276759   -0.0037239
    24
 Energy =       0.0674804609
c    -0.5302711    2.0093455   -0.5761954  0.00   -0.0229112    0.0103316   -0.0006093
c     0.3758922    2.9284695   -0.1296336  0.00   -0.0164915    0.0165988    0.0022379