    27
 Energy =       0.2829879213
c    -1.4235396    2.6054793   -0.0667700  0.00   -0.0460594    0.0384899    0.0021499
c    -1.3072796    1.2134697   -0.1072300  0.00   -0.0853129   -0.0325204    0.0016560
c    -0.0178900    0.6711998   -0.1697000  0.00   -0.0898107   -0.1886977    0.0002105
c    -0.2940599    3.4190890   -0.0891300  0.00   -0.0220789    0.0688221    0.0016758
c     0.9872197    2.8590292   -0.1560400  0.00    0.0321318    0.0670120   -0.0301538
c     1.1340797    1.4562096   -0.1970299  0.00    0.0553420    0.0534503   -0.0008476
n     0.3879399   -0.6395298   -0.2140799  0.00    0.1450966    0.1110944   -0.0060453
c     2.2666594    0.5727398   -0.2659299  0.00    0.1511371   -0.0817058    0.0055132
c     1.7555995   -0.7123598   -0.2706899  0.00   -0.1002880   -0.0971697    0.0039926
h    -0.2400399   -1.4313496   -0.2047299  0.00    0.0366556    0.0478480    0.0002249
c     3.7030089    1.0223397   -0.3320099  0.00   -0.0118124    0.0497352   -0.0083092
c     4.2197688    1.4064496   -1.7267995  0.00    0.1308347    0.0001579    0.1070915
h     4.3261788    0.2093419    0.0639454  0.00   -0.0089440    0.0110376   -0.0004106
h     3.8370289    1.8640295    0.3610799  0.00   -0.0045594   -0.0105053   -0.0092212
c     3.6319390    2.7753292   -2.1168494  0.00   -0.3932472    0.1066368   -0.0777891
n     3.8331589    0.4251339   -2.8019292  0.00   -0.0171633    0.0008144   -0.1123643
h     5.3112285    1.5100896   -1.7329195  0.00   -0.0221828   -0.0054631   -0.0193047
h     3.2153791    0.9204687   -3.4531490  0.00    0.0365865    0.0182323    0.0445051
h     4.6719087    0.2293189   -3.3596190  0.00   -0.0258566    0.0136338    0.0208970
h    -2.4108593    3.0588691   -0.0157800  0.00   -0.0009221    0.0002260    0.0004090
h    -2.1896094    0.5822398   -0.0890100  0.00   -0.0035625    0.0037158    0.0003506
h    -0.4052699    4.5000487   -0.0535400  0.00    0.0004073    0.0005563    0.0013280
h     1.8590495    3.5066790   -0.1715100  0.00    0.0081228   -0.0022519   -0.0204597
h     2.2327294   -1.6813195   -0.3062999  0.00   -0.0412903   -0.0122784    0.0037485
o     2.4489393    3.0163391   -2.2910193  0.00    0.2583414   -0.0702470    0.0838796
o     4.6103187    3.7115289   -2.2467394  0.00    0.0156734   -0.0513094    0.0109242
h     4.3987287    4.3996587   -1.5638696  0.00    0.0027611   -0.0393139   -0.0036507
    27
 Energy =       0.2560013505
c    -1.3817849    2.6451825   -0.0441505  0.00   -0.0388038    0.0323156    0.0018041
c    -1.2771181    1.2578287   -0.0843183  0.00   -0.0719357   -0.0275350    0.0013719
c    -0.0007154    0.7065548   -0.1419137  0.00   -0.0751726   -0.1583481    0.0006670
c    -0.2477502    3.4460294   -0.0710671  0.00   -0.0187266    0.0579342    0.0014674
c     1.0228862    2.8750969   -0.1380091  0.00    0.0271027    0.0565512   -0.0252148
c     1.1479016    1.4789951   -0.1673630  0.00    0.0464525    0.0450290   -0.0007159
n     0.3801770   -0.6176744   -0.2151076  0.00    0.1220104    0.0927269   -0.0058290
c     2.2644265    0.6014397   -0.2374965  0.00    0.1271502   -0.0689228    0.0046408
c     1.7586632   -0.6790689   -0.2545144  0.00   -0.0844867   -0.0811890    0.0036586
h    -0.2558590   -1.4102978   -0.2237946  0.00    0.0307129    0.0401206    0.0000122
c     3.7030678    1.0375858   -0.3310410  0.00   -0.0104690    0.0411975   -0.0061126
c     4.1818677    1.3745565   -1.7521860  0.00    0.1105222    0.0024041    0.0914786
h     4.3285599    0.2266015    0.0713477  0.00   -0.0075692    0.0092561   -0.0002856
h     3.8603442    1.9002688    0.3352540  0.00   -0.0036950   -0.0082098   -0.0072783
c     3.6198329    2.7433863   -2.1675513  0.00   -0.3309350    0.0909217   -0.0647529
n     3.7472459    0.3562159   -2.7673018  0.00   -0.0198541   -0.0005209   -0.0925287
h     5.2783887    1.4600417   -1.7920186  0.00   -0.0178041   -0.0040131   -0.0163339
h     3.1258668    0.8290722   -3.4376099  0.00    0.0305305    0.0154527    0.0368762
h     4.5706413    0.0705658   -3.3215703  0.00   -0.0170634    0.0091561    0.0134796
h    -2.3652124    3.1073496    0.0020998  0.00   -0.0008346    0.0002072    0.0003490
h    -2.1639070    0.6326389   -0.0742527  0.00   -0.0030480    0.0030789    0.0002818
h    -0.3489834    4.5283444   -0.0470744  0.00    0.0003306    0.0005893    0.0011257
h     1.9044065    3.5099630   -0.1790739  0.00    0.0075742   -0.0017607   -0.0177949
h     2.2584074   -1.6359585   -0.3146306  0.00   -0.0345945   -0.0107640    0.0031900
o     2.4130704    2.9928236   -2.3626809  0.00    0.2170798   -0.0589136    0.0705218
o     4.5941773    3.6888666   -2.2973484  0.00    0.0143352   -0.0463638    0.0055106
h     4.4237147    4.3441139   -1.5639747  0.00    0.0011913   -0.0304001    0.0004111
    27
 Energy =       0.2088707930
c    -1.3467060    2.6221989   -0.0011243  0.00   -0.0163979    0.0145378    0.0005809
c    -1.2367408    1.2523026   -0.0755431  0.00   -0.0317761   -0.0126147    0.0009181
c     0.0180076    0.7111870   -0.1337156  0.00   -0.0329720   -0.0665301    0.0055796
c    -0.2219685    3.4164530   -0.0023707  0.00   -0.0082544    0.0257940    0.0000471
c     1.0314986    2.8501327   -0.0698275  0.00    0.0143713    0.0256183   -0.0134850
c     1.1363411    1.4804648   -0.1297151  0.00    0.0191932    0.0223368   -0.0009875
n     0.3736463   -0.6388652   -0.2999201  0.00    0.0521531    0.0360852   -0.0083928
c     2.2364294    0.6588280   -0.2254780  0.00    0.0591202   -0.0282544    0.0027007
c     1.7843439   -0.6211426   -0.3038498  0.00   -0.0396821   -0.0307882    0.0053810
h    -0.2522452   -1.4596466   -0.3661406  0.00    0.0124669    0.0152867   -0.0017062
c     3.6772491    1.1018427   -0.3291820  0.00   -0.0054134    0.0173912   -0.0023481
c     4.1238637    1.4015451   -1.7734433  0.00    0.0499888    0.0043953    0.0437155
h     4.3157731    0.2940311    0.0767087  0.00   -0.0034256    0.0041011   -0.0001069
h     3.8456879    1.9850585    0.3169217  0.00   -0.0017455   -0.0031132   -0.0031965
c     3.6112243    2.7662607   -2.2379132  0.00   -0.1504930    0.0433068   -0.0267275
n     3.6788104    0.3204893   -2.6965194  0.00   -0.0173082    0.0001292   -0.0312182
h     5.2295140    1.4779591   -1.8088625  0.00   -0.0079075   -0.0007162   -0.0075555
h     3.0678004    0.7323320   -3.4358516  0.00    0.0110370    0.0111257    0.0127627
h     4.5071094   -0.0881873   -3.1937144  0.00    0.0025364   -0.0034279   -0.0015980
h    -2.3313364    3.0815694    0.0405416  0.00   -0.0004002    0.0000739    0.0001603
h    -2.1186867    0.6200487   -0.1044750  0.00   -0.0019115    0.0007816    0.0000074
h    -0.3225530    4.4984448    0.0338514  0.00    0.0001829    0.0003472    0.0004637
h     1.9181471    3.4763769   -0.1108500  0.00    0.0049860   -0.0022378   -0.0107669
h     2.3806169   -1.5231629   -0.4308004  0.00   -0.0118178   -0.0101494    0.0010868
o     2.3281802    3.0220893   -2.4448469  0.00    0.0957887   -0.0261609    0.0364839
o     4.5545656    3.7559202   -2.3879562  0.00    0.0120958   -0.0512217   -0.0600090
h     4.5537430    4.2759920   -1.4832717  0.00   -0.0044151    0.0139036    0.0582105
    27
 Energy =       0.2058754932
c    -1.3335750    2.6986988   -0.0096474  0.00   -0.0151347    0.0133506    0.0005822
c    -1.2418251    1.3267889   -0.0461858  0.00   -0.0287284   -0.0120924    0.0007814
c     0.0031852    0.7685344   -0.1049674  0.00   -0.0295098   -0.0579419    0.0049321
c    -0.1991066    3.4775731   -0.0464827  0.00   -0.0071097    0.0237761    0.0001087
c     1.0451718    2.8934172   -0.1137354  0.00    0.0130552    0.0239073   -0.0120321
c     1.1297834    1.5218595   -0.1355675  0.00    0.0173708    0.0203724   -0.0007909
n     0.3352602   -0.5961242   -0.2079518  0.00    0.0470177    0.0303420   -0.0074667
c     2.2154886    0.6839044   -0.2142172  0.00    0.0535450   -0.0246847    0.0027428
c     1.7481759   -0.5922830   -0.2471394  0.00   -0.0353261   -0.0278777    0.0047066
h    -0.3045647   -1.4115941   -0.2250463  0.00    0.0099371    0.0120448   -0.0015044
c     3.6641184    1.0983038   -0.3282505  0.00   -0.0053985    0.0153624   -0.0015457
c     4.1200117    1.3349827   -1.7822247  0.00    0.0452499    0.0043785    0.0391005
h     4.2875246    0.2943846    0.1107714  0.00   -0.0028481    0.0030993    0.0001771
h     3.8461216    2.0034001    0.2852381  0.00   -0.0015479   -0.0020954   -0.0023848
c     3.6398511    2.6932583   -2.2966019  0.00   -0.1358782    0.0389407   -0.0237798
n     3.6565171    0.2279710   -2.6638668  0.00   -0.0178985   -0.0006460   -0.0238454
h     5.2280834    1.3882953   -1.8151164  0.00   -0.0067484   -0.0006390   -0.0069440
h     3.0916785    0.6275824   -3.4489346  0.00    0.0080703    0.0118104    0.0090143
h     4.4834667   -0.2469404   -3.1084497  0.00    0.0065911   -0.0059223   -0.0040865
h    -2.3117486    3.1718126    0.0325578  0.00   -0.0004843    0.0001146    0.0001489
h    -2.1317967    0.7042252   -0.0401662  0.00   -0.0022265    0.0001565    0.0000039
h    -0.2851803    4.5618616   -0.0390129  0.00    0.0002268    0.0008673    0.0004192
h     1.9394109    3.5074130   -0.1823434  0.00    0.0048207   -0.0015636   -0.0096892
h     2.3360947   -1.5030696   -0.3511751  0.00   -0.0106366   -0.0095785    0.0009023
o     2.3565253    2.9705860   -2.5153669  0.00    0.0858566   -0.0233013    0.0325167
o     4.6024641    3.6610726   -2.4851527  0.00    0.0117644   -0.0450896   -0.0553090
h     4.6211795    4.2046079   -1.5983125  0.00   -0.0040300    0.0129092    0.0532418
    27
 Energy =       0.2036868503
c    -1.3173508    2.6266906    0.0463669  0.00   -0.0144074    0.0128841    0.0005551
c    -1.2139434    1.2569449   -0.0176715  0.00   -0.0272469   -0.0115849    0.0007437
c     0.0346681    0.7107380   -0.0968300  0.00   -0.0280532   -0.0543814    0.0047593
c    -0.1900667    3.4153943    0.0189591  0.00   -0.0068254    0.0227149    0.0000949
c     1.0577375    2.8430784   -0.0682885  0.00    0.0121849    0.0228688   -0.0111127
c     1.1532737    1.4742266   -0.1237581  0.00    0.0160781    0.0191929   -0.0007244
n     0.3774113   -0.6497065   -0.2352777  0.00    0.0443441    0.0282024   -0.0070891
c     2.2448544    0.6506629   -0.2385857  0.00    0.0504670   -0.0232525    0.0030645
c     1.7907417   -0.6286623   -0.2964446  0.00   -0.0331476   -0.0265659    0.0044771
h    -0.2540569   -1.4722364   -0.2611991  0.00    0.0093083    0.0112123   -0.0014374
c     3.6874161    1.0825611   -0.3759226  0.00   -0.0063375    0.0146059   -0.0003971
c     4.0994110    1.3984616   -1.8311595  0.00    0.0426718    0.0030581    0.0364904
h     4.3314061    0.2606840    0.0013890  0.00   -0.0014912    0.0012493    0.0009287
h     3.8808160    1.9566988    0.2801945  0.00   -0.0015650   -0.0009834   -0.0011227
c     3.6021207    2.7823491   -2.2596767  0.00   -0.1319114    0.0345658   -0.0223907
n     3.6189268    0.3322732   -2.7547610  0.00   -0.0176040   -0.0023322   -0.0180614
h     5.2069270    1.4585658   -1.8909409  0.00   -0.0057608   -0.0011760   -0.0066315
h     3.0017235    0.7628602   -3.4869238  0.00    0.0044667    0.0134528    0.0048857
h     4.4348151   -0.0976183   -3.2672028  0.00    0.0101074   -0.0081513   -0.0067620
h    -2.2992372    3.0906812    0.1045430  0.00   -0.0005963    0.0002502    0.0001501
h    -2.0983733    0.6265419   -0.0185972  0.00   -0.0021449    0.0000769    0.0000003
h    -0.2849704    4.4987994    0.0508257  0.00    0.0001596    0.0011673    0.0004031
h     1.9460982    3.4660209   -0.1246703  0.00    0.0046239   -0.0012957   -0.0090488
h     2.3883654   -1.5288137   -0.4358805  0.00   -0.0096060   -0.0096514    0.0007657
o     2.3149667    3.0433862   -2.4993959  0.00    0.0806258   -0.0224754    0.0302163
o     4.5443066    3.7898549   -2.3456943  0.00    0.0156642   -0.0385517   -0.0576551
h     4.4843283    4.3200853   -1.4507456  0.00   -0.0040045    0.0148999    0.0548979
    27
 Energy =       0.1976894239
c    -1.3125320    2.5547163    0.0873605  0.00   -0.0108132    0.0099245    0.0003589
c    -1.1955907    1.1905466   -0.0069427  0.00   -0.0204185   -0.0087969    0.0005525
c     0.0538366    0.6593000   -0.1092302  0.00   -0.0209043   -0.0406747    0.0036807
c    -0.1943486    3.3526217    0.0716194  0.00   -0.0051462    0.0171906   -0.0000424
c     1.0549126    2.7941910   -0.0360621  0.00    0.0091453    0.0172738   -0.0084119
c     1.1601929    1.4321843   -0.1293573  0.00    0.0117850    0.0141314   -0.0005918
n     0.4046765   -0.6996941   -0.2722295  0.00    0.0325009    0.0208143   -0.0051501
c     2.2553842    0.6303263   -0.2749529  0.00    0.0377863   -0.0174575    0.0026718
c     1.8212550   -0.6510518   -0.3578478  0.00   -0.0242902   -0.0199972    0.0033288
h    -0.2176726   -1.5318829   -0.3019215  0.00    0.0068826    0.0081632   -0.0010863
c     3.6954210    1.0782458   -0.4090290  0.00   -0.0056166    0.0105740    0.0001450
c     4.0909931    1.4622705   -1.8537808  0.00    0.0316005    0.0016898    0.0263117
h     4.3507222    0.2440103   -0.0766892  0.00   -0.0006180   -0.0000082    0.0010495
h     3.8913742    1.9240499    0.2849017  0.00   -0.0011172    0.0000429   -0.0000526
c     3.5811611    2.8586318   -2.2186316  0.00   -0.0990779    0.0242237   -0.0151552
n     3.6236581    0.4218643   -2.8097075  0.00   -0.0131654   -0.0028040   -0.0137606
h     5.1990253    1.5407176   -1.9112559  0.00   -0.0040552   -0.0009743   -0.0051120
h     3.0221930    0.8661423   -3.5472159  0.00    0.0031488    0.0099914    0.0030890
h     4.4466965   -0.0004116   -3.3125159  0.00    0.0076209   -0.0061110   -0.0051337
h    -2.2983492    3.0079115    0.1632882  0.00   -0.0006193    0.0003721    0.0001240
h    -2.0729400    0.5508319   -0.0130788  0.00   -0.0016550   -0.0000056   -0.0000033
h    -0.2986489    4.4341885    0.1309929  0.00    0.0000580    0.0013104    0.0003084
h     1.9364409    3.4266204   -0.0755738  0.00    0.0035817   -0.0008357   -0.0068535
h     2.4392722   -1.5325366   -0.5236032  0.00   -0.0067263   -0.0076943    0.0004839
o     2.2850829    3.0978292   -2.5120378  0.00    0.0576027   -0.0177806    0.0216052
o     4.4945244    3.9014548   -2.2130094  0.00    0.0161811   -0.0288287   -0.0529749
h     4.3255752    4.4574440   -1.3508379  0.00   -0.0036705    0.0162665    0.0506188
    27
 Energy =       0.1942512817
c    -1.3410980    2.5077702    0.0337347  0.00   -0.0083110    0.0074497    0.0002912
c    -1.2096223    1.1485340   -0.0790433  0.00   -0.0154277   -0.0067744    0.0004947
c     0.0432030    0.6313663   -0.1740096  0.00   -0.0159955   -0.0307277    0.0029483
c    -0.2312086    3.3147722    0.0446971  0.00   -0.0036624    0.0130959   -0.0000630
c     1.0223294    2.7696398   -0.0530073  0.00    0.0071445    0.0131288   -0.0066563
c     1.1395847    1.4128604   -0.1648028  0.00    0.0087949    0.0106429   -0.0004872
n     0.4059323   -0.7258966   -0.3436086  0.00    0.0238023    0.0155797   -0.0040185
c     2.2423508    0.6277208   -0.2959119  0.00    0.0275999   -0.0132041    0.0020859
c     1.8269112   -0.6556541   -0.4013073  0.00   -0.0181230   -0.0149973    0.0026828
h    -0.2082895   -1.5654326   -0.3934506  0.00    0.0049000    0.0057529   -0.0008725
c     3.6855700    1.0869272   -0.3716256  0.00   -0.0036042    0.0078058    0.0007206
c     4.1236974    1.5066581   -1.7934730  0.00    0.0235137    0.0023686    0.0202443
h     4.3368818    0.2497650   -0.0384079  0.00   -0.0004418   -0.0000265    0.0008559
h     3.8545430    1.9183313    0.3477023  0.00   -0.0006220    0.0005547    0.0005039
c     3.5861486    2.8924805   -2.1523997  0.00   -0.0687637    0.0167533   -0.0065297
n     3.7264554    0.4620702   -2.7758104  0.00   -0.0122260   -0.0040468   -0.0070843
h     5.2322629    1.6221886   -1.8032450  0.00   -0.0013074   -0.0003455   -0.0038734
h     3.1809461    0.8971386   -3.5643011  0.00   -0.0000077    0.0083995   -0.0017991
h     4.5852870    0.0357495   -3.2130589  0.00    0.0093369   -0.0063385   -0.0058918
h    -2.3320752    2.9504410    0.1036508  0.00   -0.0005584    0.0002992    0.0000995
h    -2.0801351    0.5000903   -0.1044691  0.00   -0.0014367   -0.0001695   -0.0000014
h    -0.3460972    4.3942459    0.1190344  0.00    0.0000911    0.0011700    0.0002332
h     1.8975908    3.4109177   -0.0671594  0.00    0.0030389   -0.0004161   -0.0055233
h     2.4660273   -1.5238250   -0.5547174  0.00   -0.0047598   -0.0059969    0.0003468
o     2.2959270    3.0797325   -2.5597994  0.00    0.0334282   -0.0142219    0.0127262
o     4.4536689    3.9744385   -2.0720838  0.00    0.0176810   -0.0227339   -0.0473996
h     4.1855240    4.5474918   -1.2504751  0.00   -0.0040842    0.0169982    0.0459667
    27
 Energy =       0.1939902241
c    -1.3508868    2.4900571    0.0128729  0.00   -0.0075966    0.0067923    0.0002451
c    -1.2031248    1.1320739   -0.0879039  0.00   -0.0139953   -0.0061991    0.0004019
c     0.0552401    0.6286627   -0.1725612  0.00   -0.0144542   -0.0276069    0.0026159
c    -0.2507281    3.3096200    0.0213351  0.00   -0.0033398    0.0119138   -0.0000517
c     1.0088014    2.7782368   -0.0664233  0.00    0.0064443    0.0119383   -0.0058363
c     1.1415126    1.4222943   -0.1640354  0.00    0.0079030    0.0095408   -0.0004640
n     0.4339678   -0.7271350   -0.3259400  0.00    0.0213850    0.0138242   -0.0036618
c     2.2533789    0.6504278   -0.2818654  0.00    0.0248395   -0.0118326    0.0018111
c     1.8552691   -0.6382272   -0.3790806  0.00   -0.0162531   -0.0135859    0.0023890
h    -0.1698303   -1.5752116   -0.3694703  0.00    0.0043197    0.0050093   -0.0008296
c     3.6920208    1.1268008   -0.3490263  0.00   -0.0032057    0.0069991    0.0006526
c     4.1372916    1.5241354   -1.7740689  0.00    0.0224231    0.0025627    0.0217728
h     4.3516089    0.3053508    0.0076463  0.00   -0.0001430   -0.0003181    0.0009197
h     3.8418653    1.9759551    0.3540649  0.00   -0.0005039    0.0008208    0.0008087
c     3.5281845    2.8677351   -2.1906605  0.00   -0.0605633    0.0145529   -0.0043120
n     3.8162900    0.4237281   -2.7262332  0.00   -0.0122532   -0.0084827   -0.0068051
h     5.2396615    1.7004654   -1.7641116  0.00    0.0008675   -0.0000374   -0.0028083
h     3.2612169    0.7992934   -3.5402666  0.00   -0.0019296    0.0084389   -0.0044191
h     4.7053022    0.0288319   -3.1329071  0.00    0.0103713   -0.0068224   -0.0060131
h    -2.3473386    2.9217690    0.0738970  0.00   -0.0006252    0.0003160    0.0000512
h    -2.0658380    0.4732656   -0.1118996  0.00   -0.0013734   -0.0002255   -0.0000549
h    -0.3787146    4.3883725    0.0841377  0.00    0.0000355    0.0011960    0.0001986
h     1.8762976    3.4296500   -0.0873701  0.00    0.0028553   -0.0002558   -0.0051930
h     2.5080797   -1.4978786   -0.5220626  0.00   -0.0041817   -0.0055485    0.0002795
o     2.2328424    2.9602388   -2.6342469  0.00    0.0239060   -0.0121182    0.0093543
o     4.3283822    4.0047407   -2.1351012  0.00    0.0189047   -0.0163690   -0.0427810
h     4.0415632    4.5672696   -1.3160673  0.00   -0.0038369    0.0154968    0.0417291
    27
 Energy =       0.1953085944
c    -1.3328006    2.5088784    0.0426215  0.00   -0.0076689    0.0065108    0.0002651
c    -1.1805539    1.1491658   -0.0255370  0.00   -0.0135737   -0.0065048    0.0003576
c     0.0784271    0.6490949   -0.1156241  0.00   -0.0140056   -0.0265444    0.0025060
c    -0.2363181    3.3335227    0.0125812  0.00   -0.0028063    0.0118765   -0.0000309
c     1.0239573    2.8056578   -0.0819040  0.00    0.0061954    0.0121126   -0.0052638
c     1.1608075    1.4475838   -0.1441750  0.00    0.0077429    0.0091162   -0.0003767
n     0.4609224   -0.7097336   -0.2351831  0.00    0.0202906    0.0128704   -0.0035161
c     2.2739803    0.6783191   -0.2606367  0.00    0.0238183   -0.0110973    0.0017915
c     1.8810340   -0.6143825   -0.3199271  0.00   -0.0155400   -0.0133722    0.0022653
h    -0.1394809   -1.5622364   -0.2423030  0.00    0.0035256    0.0039160   -0.0007986
c     3.7084680    1.1617776   -0.3664360  0.00   -0.0027264    0.0059533    0.0010948
c     4.1221241    1.5187620   -1.8115414  0.00    0.0229565    0.0027871    0.0235690
h     4.3809418    0.3564500    0.0035395  0.00   -0.0000427   -0.0005415    0.0010988
h     3.8640606    2.0348901    0.3062282  0.00   -0.0002302    0.0013432    0.0012763
c     3.4377707    2.8116293   -2.2841549  0.00   -0.0573096    0.0134738   -0.0026449
n     3.8469634    0.3598686   -2.7106120  0.00   -0.0125440   -0.0123570   -0.0052828
h     5.2154496    1.7521524   -1.8204861  0.00    0.0025795    0.0008547   -0.0019089
h     3.3106498    0.6809766   -3.5621622  0.00   -0.0037797    0.0087438   -0.0075902
h     4.7534661   -0.0431637   -3.0701588  0.00    0.0114939   -0.0078537   -0.0068657
h    -2.3302536    2.9376533    0.1076360  0.00   -0.0006326    0.0002824    0.0000487
h    -2.0406228    0.4858641   -0.0189687  0.00   -0.0016615   -0.0005966   -0.0000573
h    -0.3684828    4.4133035    0.0484266  0.00    0.0001308    0.0015507    0.0001938
h     1.8876538    3.4606447   -0.1371738  0.00    0.0032472    0.0002792   -0.0051973
h     2.5360739   -1.4731913   -0.4572690  0.00   -0.0040500   -0.0053854    0.0002573
o     2.1397623    2.8048466   -2.7442576  0.00    0.0169467   -0.0112663    0.0067206
o     4.1696291    3.9985796   -2.2730651  0.00    0.0235036   -0.0116644   -0.0451191
h     3.9186867    4.5236089   -1.4168051  0.00   -0.0058598    0.0155129    0.0432075
    27
 Energy =       0.1942403904
c    -1.3630530    2.5432811   -0.0659090  0.00   -0.0073957    0.0058216    0.0002743
c    -1.2212514    1.1828046   -0.1275267  0.00   -0.0127854   -0.0057884    0.0003781
c     0.0346739    0.6713805   -0.1845171  0.00   -0.0130591   -0.0240296    0.0023252
c    -0.2585298    3.3574021   -0.0694604  0.00   -0.0027873    0.0110294    0.0000053
c     0.9990187    2.8178252   -0.1285710  0.00    0.0059279    0.0108670   -0.0046418
c     1.1246186    1.4590770   -0.1830139  0.00    0.0067070    0.0084101   -0.0003224
n     0.4064856   -0.6922308   -0.2859110  0.00    0.0172066    0.0118243   -0.0031883
c     2.2334046    0.6791084   -0.2556110  0.00    0.0210184   -0.0105614    0.0016866
c     1.8312277   -0.6099401   -0.3197010  0.00   -0.0130624   -0.0119002    0.0021076
h    -0.2027717   -1.5387517   -0.3115916  0.00    0.0029110    0.0032823   -0.0007398
c     3.6784931    1.1440901   -0.2968340  0.00   -0.0020338    0.0053211    0.0022984
c     4.1675330    1.4793922   -1.7248918  0.00    0.0211354    0.0014852    0.0200792
h     4.3227324    0.3334433    0.1131756  0.00    0.0008236   -0.0011958    0.0015112
h     3.8140590    2.0209454    0.3754505  0.00   -0.0001898    0.0012371    0.0015522
c     3.5534600    2.7951018   -2.2309901  0.00   -0.0512654    0.0128198   -0.0020392
n     3.8932039    0.3238849   -2.6274559  0.00   -0.0139555   -0.0119823    0.0051690
h     5.2696201    1.6724837   -1.6828476  0.00    0.0044378    0.0012063   -0.0016696
h     3.2647342    0.6244319   -3.4278611  0.00   -0.0089135    0.0104444   -0.0138481
h     4.7954964   -0.0137079   -3.0688807  0.00    0.0181011   -0.0100202   -0.0094564
h    -2.3582304    2.9812395   -0.0270967  0.00   -0.0009697    0.0003599    0.0000602
h    -2.0872654    0.5271922   -0.1406744  0.00   -0.0017594   -0.0006247   -0.0000462
h    -0.3816095    4.4383882   -0.0392084  0.00    0.0000781    0.0014653    0.0001755
h     1.8704344    3.4648230   -0.1606356  0.00    0.0032145    0.0004422   -0.0047039
h     2.4856114   -1.4751379   -0.4200268  0.00   -0.0030121   -0.0053091    0.0001742
o     2.2699678    2.8401526   -2.7354716  0.00    0.0126052   -0.0097456    0.0046981
o     4.3283822    3.9545646   -2.1984609  0.00    0.0224612   -0.0087964   -0.0411690
h     4.0718698    4.4892782   -1.3528255  0.00   -0.0054388    0.0139377    0.0393296
    27
 Energy =       0.1937648728
c    -1.3913890    2.5868407   -0.1926285  0.00   -0.0069859    0.0052909    0.0002824
c    -1.2590855    1.2253064   -0.2349316  0.00   -0.0118458   -0.0049329    0.0003791
c    -0.0068334    0.7030179   -0.2515352  0.00   -0.0119233   -0.0209122    0.0020864
c    -0.2803075    3.3911831   -0.1753365  0.00   -0.0029771    0.0100852    0.0000415
c     0.9737917    2.8404262   -0.1920860  0.00    0.0055740    0.0095049   -0.0040502
c     1.0888647    1.4807101   -0.2250340  0.00    0.0054575    0.0075405   -0.0002793
n     0.3548588   -0.6660627   -0.3198020  0.00    0.0142352    0.0102981   -0.0028717
c     2.1921171    0.6906600   -0.2442350  0.00    0.0181221   -0.0099228    0.0015802
c     1.7821958   -0.5954909   -0.3025665  0.00   -0.0104476   -0.0103550    0.0019392
h    -0.2617069   -1.5074372   -0.3556517  0.00    0.0024331    0.0027933   -0.0006643
c     3.6438508    1.1389427   -0.2219772  0.00   -0.0016727    0.0049480    0.0035073
c     4.2082862    1.4380945   -1.6312427  0.00    0.0195191    0.0005415    0.0166545
h     4.2584007    0.3290009    0.2359590  0.00    0.0017821   -0.0020106    0.0020216
h     3.7567583    2.0270799    0.4398271  0.00   -0.0002597    0.0012185    0.0019053
c     3.6485344    2.7563528   -2.1905285  0.00   -0.0437664    0.0120521   -0.0014281
n     3.9554667    0.2713089   -2.5234272  0.00   -0.0128604   -0.0112780    0.0071771
h     5.3120062    1.6071391   -1.5371955  0.00    0.0055572    0.0009760   -0.0014707
h     3.2783997    0.5396040   -3.2959002  0.00   -0.0100216    0.0099856   -0.0145809
h     4.8552496   -0.0185263   -3.0027799  0.00    0.0186501   -0.0096020   -0.0093338
h    -2.3838952    3.0335018   -0.1858499  0.00   -0.0013872    0.0005460    0.0000624
h    -2.1299253    0.5766285   -0.2632006  0.00   -0.0017418   -0.0005666   -0.0000372
h    -0.3950842    4.4734523   -0.1610233  0.00   -0.0000626    0.0014560    0.0001577
h     1.8514496    3.4798479   -0.2056459  0.00    0.0029809    0.0004890   -0.0041115
h     2.4350851   -1.4668431   -0.3581124  0.00   -0.0018048   -0.0053835    0.0001072
o     2.3902421    2.8192986   -2.7603675  0.00    0.0081987   -0.0077489    0.0025765
o     4.4432254    3.9013278   -2.1441152  0.00    0.0205081   -0.0083817   -0.0375799
h     4.2217600    4.4151583   -1.2779611  0.00   -0.0052613    0.0133685    0.0359294
    27
 Energy =       0.1924930809
c    -1.4080458    2.6441434   -0.3172497  0.00   -0.0059277    0.0043048    0.0002699
c    -1.2900136    1.2819072   -0.3388999  0.00   -0.0097760   -0.0036805    0.0003462
c    -0.0450248    0.7455393   -0.3148874  0.00   -0.0095992   -0.0158690    0.0016376
c    -0.2888290    3.4351376   -0.2798028  0.00   -0.0028508    0.0082300    0.0000697
c     0.9581651    2.8698627   -0.2541480  0.00    0.0047542    0.0073496   -0.0031867
c     1.0570907    1.5098418   -0.2650171  0.00    0.0038808    0.0059215   -0.0002328
n     0.3002481   -0.6300919   -0.3476401  0.00    0.0104028    0.0076706   -0.0023169
c     2.1493589    0.7084554   -0.2327388  0.00    0.0137241   -0.0082105    0.0013136
c     1.7286823   -0.5732054   -0.2845039  0.00   -0.0072085   -0.0080034    0.0015963
h    -0.3258078   -1.4648821   -0.3903323  0.00    0.0017634    0.0020619   -0.0005302
c     3.6051380    1.1370962   -0.1514997  0.00   -0.0016100    0.0043360    0.0043032
c     4.2426765    1.3869926   -1.5394029  0.00    0.0167411   -0.0003016    0.0121223
h     4.1854796    0.3309186    0.3578380  0.00    0.0025427   -0.0027675    0.0024289
h     3.7000711    2.0411626    0.4912067  0.00   -0.0003941    0.0011713    0.0020552
c     3.7393180    2.6974683   -2.1640282  0.00   -0.0329867    0.0109941   -0.0007018
n     4.0164262    0.2000742   -2.4076883  0.00   -0.0104298   -0.0105069    0.0111361
h     5.3437267    1.5357880   -1.3925510  0.00    0.0059376    0.0004584   -0.0010832
h     3.2743010    0.4171116   -3.1371470  0.00   -0.0126751    0.0089984   -0.0158701
h     4.9045177   -0.0258348   -2.9409859  0.00    0.0196664   -0.0083895   -0.0093095
h    -2.3953783    3.1021470   -0.3426569  0.00   -0.0016415    0.0006802    0.0000473
h    -2.1670487    0.6426652   -0.3812199  0.00   -0.0015471   -0.0004692   -0.0000264
h    -0.3913809    4.5186873   -0.2821701  0.00   -0.0001934    0.0013482    0.0001246
h     1.8435458    3.4988043   -0.2498703  0.00    0.0025171    0.0004826   -0.0032395
h     2.3767501   -1.4502531   -0.2979139  0.00   -0.0006494   -0.0048136    0.0000612
o     2.5094141    2.7676446   -2.7989347  0.00    0.0035044   -0.0049400    0.0003966
o     4.5445478    3.8329606   -2.1050426  0.00    0.0172410   -0.0085494   -0.0324448
h     4.3743870    4.3103809   -1.2100615  0.00   -0.0051863    0.0124936    0.0310332
    27
 Energy =       0.1901674282
c    -1.4083353    2.7016928   -0.4076424  0.00   -0.0040224    0.0023425    0.0001931
c    -1.3080854    1.3398520   -0.4273733  0.00   -0.0061877   -0.0020914    0.0002783
c    -0.0736890    0.7873618   -0.3715615  0.00   -0.0057231   -0.0092064    0.0010181
c    -0.2804505    3.4762539   -0.3388305  0.00   -0.0017838    0.0050981    0.0000632
c     0.9559327    2.8941994   -0.2800370  0.00    0.0032739    0.0042308   -0.0019430
c     1.0346111    1.5353113   -0.2913846  0.00    0.0023768    0.0034462   -0.0001609
n     0.2500779   -0.5945972   -0.3896884  0.00    0.0055351    0.0043585   -0.0014469
c     2.1116565    0.7228227   -0.2288258  0.00    0.0077915   -0.0048541    0.0007726
c     1.6786218   -0.5522965   -0.2912485  0.00   -0.0036493   -0.0046988    0.0009695
h    -0.3868027   -1.4214528   -0.4464785  0.00    0.0007877    0.0009718   -0.0003361
c     3.5694027    1.1298131   -0.1013058  0.00   -0.0013417    0.0030139    0.0035651
c     4.2656363    1.3354853   -1.4665598  0.00    0.0108562   -0.0008691    0.0063194
h     4.1153318    0.3262152    0.4479307  0.00    0.0022790   -0.0024984    0.0020287
h     3.6571444    2.0462226    0.5235947  0.00   -0.0003981    0.0008197    0.0015110
c     3.8218504    2.6364047   -2.1443128  0.00   -0.0194200    0.0080990   -0.0008884