    13
 Energy =       0.0984015474
c    -3.7133889    1.6950595    0.3173519  0.00   -0.0842235    0.0331001    0.0934414
c    -2.4962693    2.6345192    0.2419999  0.00    0.2081895    0.1337487   -0.3227903
c    -4.9565486    2.3924193   -0.2155699  0.00    0.0045945    0.0114456    0.0145492
h    -4.7854386    2.7464192   -1.2386596  0.00   -0.0047303   -0.0015644    0.0177777
h    -5.2149185    3.2645991    0.3947669  0.00    0.0021509   -0.0113442   -0.0124278
h    -5.8205083    1.7195795   -0.2420919  0.00    0.0079994    0.0161187   -0.0028667
n    -3.4097890    0.4519539   -0.4549189  0.00    0.0807866   -0.0537980   -0.0126270
h    -3.8575589    1.4177196    1.3669296  0.00    0.0098486   -0.0066306   -0.0273630
h    -2.5963493    0.6418898   -1.0496997  0.00   -0.0239188    0.0173308    0.0444218
h    -3.0749291   -0.2623099    0.1989099  0.00   -0.0108066    0.0302609   -0.0227098
o    -1.9513094    3.0041591   -0.7839488  0.00   -0.1300974   -0.1031736    0.2454181
o    -2.1005994    3.0267291    1.4825496  0.00   -0.0444191   -0.0274213   -0.0058985
h    -2.2705794    4.0015489    1.5135996  0.00   -0.0153738   -0.0380726   -0.0089252
    13
 Energy =       0.0674111069
c    -3.7050720    1.7067279    0.3265788  0.00   -0.0285876    0.0125210    0.0327239
c    -2.4679715    2.6022832    0.3177818  0.00    0.0712839    0.0523273   -0.1146710
c    -4.9083762    2.4276384   -0.2816950  0.00    0.0007645    0.0046057    0.0064833
h    -4.6552147    2.7939657   -1.2989288  0.00   -0.0004021    0.0004279    0.0034800
h    -5.2130137    3.2898200    0.3408790  0.00    0.0001348   -0.0035915   -0.0033694
h    -5.7690071    1.7364235   -0.3804055  0.00    0.0009600    0.0041274   -0.0021074
n    -3.4698110    0.4591541   -0.4347311  0.00    0.0239318   -0.0104347   -0.0089884
h    -3.9134708    1.4631587    1.3900085  0.00    0.0040437   -0.0023404   -0.0077795
h    -2.6359900    0.5728607   -1.0528050  0.00   -0.0038803    0.0079716    0.0148124
h    -3.2336822   -0.3147325    0.2269673  0.00   -0.0030939    0.0021869   -0.0022300
o    -1.8874323    2.9817803   -0.8139870  0.00   -0.0482090   -0.0391846    0.0869458
o    -1.9930138    3.0345297    1.5345218  0.00    0.0154327   -0.0624775   -0.0016825
h    -2.3961317    3.9806767    1.6570338  0.00   -0.0323787    0.0338610   -0.0036173
    13
 Energy =       0.0658625006
c    -3.7212267    1.7152777    0.3213440  0.00   -0.0246099    0.0110143    0.0279992
c    -2.4471454    2.5594998    0.3214410  0.00    0.0609946    0.0449597   -0.0993302
c    -4.8932104    2.4893349   -0.2857386  0.00    0.0014156    0.0039143    0.0049520
h    -4.6344321    2.8129217   -1.3173826  0.00    0.0002883    0.0005927    0.0021435
h    -5.1363565    3.3871404    0.3187626  0.00   -0.0006110   -0.0009093   -0.0016634
h    -5.7953970    1.8443264   -0.3501720  0.00   -0.0011705    0.0021274   -0.0017363
n    -3.5430324    0.4619085   -0.4462138  0.00    0.0159701   -0.0063292   -0.0097219
h    -3.9424450    1.4790532    1.3849683  0.00    0.0032571   -0.0021190   -0.0064744
h    -2.6767745    0.5204468   -1.0322445  0.00    0.0002208    0.0073964    0.0105329
h    -3.3924354   -0.3395138    0.2143743  0.00   -0.0016095   -0.0034955    0.0017481
o    -1.8587746    2.9401344   -0.8162009  0.00   -0.0410514   -0.0335379    0.0744246
o    -1.9337303    2.9486224    1.5404974  0.00    0.0161418   -0.0559287   -0.0003071
h    -2.2732266    3.9151338    1.6777834  0.00   -0.0292361    0.0323148   -0.0025669
    13
 Energy =       0.0663870205
c    -3.7243155    1.7174616    0.3101214  0.00   -0.0227453    0.0120241    0.0282417
c    -2.4182978    2.5144088    0.3103511  0.00    0.0591469    0.0435200   -0.0964365
c    -4.8808688    2.5542046   -0.2471113  0.00    0.0005017    0.0041108    0.0035314
h    -4.6317218    2.9017711   -1.2737826  0.00    0.0000858    0.0006971    0.0016444
h    -5.0783052    3.4410547    0.3919790  0.00   -0.0008626    0.0004750   -0.0007030
h    -5.8077774    1.9439105   -0.3141203  0.00   -0.0019123    0.0016205   -0.0019372
n    -3.6109153    0.4814275   -0.5007398  0.00    0.0113496   -0.0034844   -0.0141204
h    -3.9295461    1.4574333    1.3721822  0.00    0.0032123   -0.0017478   -0.0055612
h    -2.7168586    0.4941998   -1.0505017  0.00    0.0032899    0.0078795    0.0086422
h    -3.5511885   -0.3594481    0.1326664  0.00   -0.0009016   -0.0106379    0.0062086
o    -1.8341327    2.9016781   -0.8292819  0.00   -0.0396143   -0.0323372    0.0717039
o    -1.8712297    2.8596443    1.5299227  0.00    0.0170053   -0.0543461    0.0011119
h    -2.1930294    3.8265400    1.6995332  0.00   -0.0285556    0.0322264   -0.0023258
    13
 Energy =       0.0638635795
c    -3.7220654    1.7089627    0.3259154  0.00   -0.0191747    0.0116397    0.0255662
c    -2.4517963    2.5613900    0.3314468  0.00    0.0511072    0.0382502   -0.0868234
c    -4.8999846    2.4804498   -0.2830981  0.00   -0.0004921    0.0039270    0.0019442
h    -4.6491771    2.7933826   -1.3210966  0.00   -0.0001657    0.0008617    0.0007206
h    -5.1382537    3.3867378    0.3166690  0.00   -0.0010446    0.0019116    0.0002544
h    -5.8035731    1.8334198   -0.3353991  0.00   -0.0024909    0.0008132   -0.0019757
n    -3.5446692    0.4527283   -0.4434886  0.00    0.0051288   -0.0012613   -0.0165852
h    -3.9430971    1.4750997    1.3918295  0.00    0.0028643   -0.0012517   -0.0041926
h    -2.6769541    0.5163772   -1.0349193  0.00    0.0064478    0.0080763    0.0056411
h    -3.3924354   -0.3593777    0.2178555  0.00    0.0003856   -0.0161953    0.0099986
o    -1.8383527    2.9104700   -0.8134744  0.00   -0.0348761   -0.0289593    0.0615052
o    -1.9555908    2.9898112    1.5501692  0.00    0.0204104   -0.0549461    0.0054163
h    -2.2322373    3.9848349    1.6288095  0.00   -0.0280999    0.0371340   -0.0014697
    13
 Energy =       0.0635076163
c    -3.7104954    1.7088553    0.3268034  0.00   -0.0189259    0.0115575    0.0266791
c    -2.4869959    2.6295359    0.3448056  0.00    0.0490192    0.0378020   -0.0831449
c    -4.9110966    2.4040365   -0.3331873  0.00   -0.0014956    0.0041283    0.0001434
h    -4.6516908    2.6929926   -1.3763680  0.00   -0.0004155    0.0009013    0.0002194
h    -5.2043806    3.3194169    0.2310679  0.00   -0.0015457    0.0036283    0.0012400
h    -5.7832435    1.7132934   -0.3828137  0.00   -0.0035394   -0.0000360   -0.0022278
n    -3.4504230    0.4408857   -0.4057830  0.00   -0.0032793   -0.0019586   -0.0178431
h    -3.9474598    1.4937463    1.3937540  0.00    0.0027934   -0.0010967   -0.0035734
h    -2.5182010    0.4908435   -0.9046381  0.00    0.0150455    0.0062667   -0.0003349
h    -3.3689852   -0.3620157    0.2822828  0.00    0.0007533   -0.0183299    0.0134438
o    -1.8320432    2.9455819   -0.7902825  0.00   -0.0332323   -0.0278821    0.0566021
o    -2.0565713    3.1281221    1.5653420  0.00    0.0227691   -0.0537930    0.0103615
h    -2.3266004    4.1289920    1.5802355  0.00   -0.0279468    0.0388121   -0.0015651
    13
 Energy =       0.0604619932
c    -3.7176665    1.7122029    0.3509227  0.00   -0.0131894    0.0088791    0.0190989
c    -2.4929952    2.6297534    0.3293769  0.00    0.0285510    0.0269930   -0.0550962
c    -4.9167611    2.3841076   -0.3306079  0.00   -0.0006223    0.0026709    0.0005894
h    -4.6659299    2.6199642   -1.3905010  0.00   -0.0000165    0.0009908   -0.0012819
h    -5.1977618    3.3266085    0.1941431  0.00   -0.0012638    0.0035479    0.0014828
h    -5.7929331    1.6964378   -0.3350423  0.00   -0.0031082   -0.0007970   -0.0015399
n    -3.4755571    0.4154857   -0.3312514  0.00   -0.0053520   -0.0015460   -0.0147972
h    -3.9540133    1.5435030    1.4284621  0.00    0.0017671   -0.0009109   -0.0014426
h    -2.5764856    0.4532170   -0.8872867  0.00    0.0137213    0.0053844   -0.0018545
h    -3.3459997   -0.3505691    0.3878897  0.00    0.0003261   -0.0155824    0.0120956
o    -1.7867645    2.8318730   -0.8231065  0.00   -0.0186326   -0.0209071    0.0305236
o    -2.0829777    3.2242273    1.5167375  0.00    0.0221375   -0.0555341    0.0141355
h    -2.2423414    4.2474750    1.4214824  0.00   -0.0243182    0.0468114   -0.0019135
    13
 Energy =       0.0610306323
c    -3.7186806    1.7285106    0.3737436  0.00   -0.0146375    0.0103241    0.0186680
c    -2.4586844    2.5983449    0.2622703  0.00    0.0229499    0.0243984   -0.0464287
c    -4.9205891    2.4165583   -0.2856454  0.00    0.0003081    0.0018219    0.0009903
h    -4.7025438    2.6064421   -1.3633507  0.00    0.0005130    0.0010036   -0.0027761
h    -5.1510094    3.3857868    0.2173298  0.00   -0.0014536    0.0046687    0.0023293
h    -5.8191498    1.7574197   -0.2324962  0.00   -0.0046108   -0.0019821   -0.0013021
n    -3.5566340    0.3942779   -0.2638653  0.00   -0.0084526   -0.0060832   -0.0144857
h    -3.9161875    1.6147169    1.4685256  0.00    0.0007544   -0.0005991    0.0009937
h    -2.6847067    0.3748281   -0.8654459  0.00    0.0162148    0.0044715   -0.0047218
h    -3.4189738   -0.3459064    0.4795766  0.00    0.0001881   -0.0147405    0.0118181
o    -1.7631426    2.6811621   -0.9212857  0.00   -0.0116561   -0.0181916    0.0191244
o    -1.9919646    3.2525880    1.3990909  0.00    0.0218557   -0.0486633    0.0174911
h    -2.1459205    4.2695574    1.2627710  0.00   -0.0219734    0.0435716   -0.0017006
    13
 Energy =       0.0594099137
c    -3.7428650    1.7181474    0.3601770  0.00   -0.0145922    0.0086351    0.0171063
c    -2.4719584    2.5829205    0.3567534  0.00    0.0210681    0.0232420   -0.0436202
c    -4.8980934    2.4301261   -0.3588000  0.00   -0.0007152    0.0022110    0.0011200
h    -4.6161357    2.6357525   -1.4205505  0.00    0.0009095    0.0013469   -0.0048005
h    -5.1471217    3.3933198    0.1468163  0.00   -0.0014122    0.0045508    0.0024663
h    -5.8065480    1.7797443   -0.3665769  0.00   -0.0060419   -0.0027744   -0.0012939
n    -3.5471297    0.4007535   -0.3008055  0.00   -0.0114886   -0.0046754   -0.0147922
h    -4.0152617    1.5751859    1.4383161  0.00   -0.0001836   -0.0007937    0.0041197
h    -2.6973440    0.4288582   -0.9351740  0.00    0.0175975    0.0037512   -0.0066409
h    -3.3490223   -0.3408373    0.4292999  0.00    0.0008858   -0.0163927    0.0130611
o    -1.7108736    2.7203291   -0.7848803  0.00   -0.0077266   -0.0163392    0.0135091
o    -2.0688165    3.1930802    1.5451189  0.00    0.0229752   -0.0457258    0.0223382
h    -2.1770168    4.2169060    1.4215241  0.00   -0.0212756    0.0429641   -0.0025730
    13
 Energy =       0.0602317157
c    -3.7741854    1.7237475    0.3504768  0.00   -0.0144594    0.0045420    0.0178556
c    -2.4510695    2.5101297    0.4320966  0.00    0.0137460    0.0216376   -0.0314017
c    -4.8471589    2.5097569   -0.4258823  0.00   -0.0024951    0.0053285    0.0001891
h    -4.4986293    2.7062591   -1.4710781  0.00    0.0014505    0.0020655   -0.0065266
h    -5.0677274    3.4827541    0.0740030  0.00   -0.0016458    0.0047314    0.0020958
h    -5.7922194    1.9116013   -0.4840687  0.00   -0.0083178   -0.0040752   -0.0011287
n    -3.6193554    0.4018418   -0.3095509  0.00   -0.0125690   -0.0049748   -0.0130405
h    -4.1177857    1.5841104    1.4105927  0.00   -0.0011540   -0.0020725    0.0060246
h    -2.8052515    0.4256331   -0.9898047  0.00    0.0176474    0.0026476   -0.0081749
h    -3.3781072   -0.3304619    0.4167391  0.00    0.0011517   -0.0156185    0.0132119
o    -1.5742536    2.5615760   -0.6444919  0.00    0.0045168   -0.0124980    0.0011776
o    -2.1001205    3.1130110    1.6411630  0.00    0.0211123   -0.0410322    0.0220777
h    -2.2223230    4.1343273    1.5310239  0.00   -0.0189835    0.0393186   -0.0023599
    13
 Energy =       0.0627238965
c    -3.7833518    1.7344034    0.3457197  0.00   -0.0152391    0.0040494    0.0192857
c    -2.4208617    2.4523506    0.4520205  0.00    0.0092989    0.0221994   -0.0252550
c    -4.8073036    2.5738891   -0.4435234  0.00   -0.0027438    0.0064302   -0.0003907
h    -4.4342118    2.7609715   -1.4820247  0.00    0.0015452    0.0022082   -0.0066538
h    -4.9942763    3.5528297    0.0590395  0.00   -0.0017641    0.0051807    0.0021178
h    -5.7770539    2.0166562   -0.5200844  0.00   -0.0091883   -0.0045585   -0.0011270
n    -3.6836250    0.4067603   -0.3145629  0.00   -0.0129032   -0.0066893   -0.0124589
h    -4.1494324    1.6066578    1.3998361  0.00   -0.0013820   -0.0023647    0.0060813
h    -2.8894935    0.4093039   -1.0186737  0.00    0.0178159    0.0020797   -0.0088316
h    -3.4354403   -0.3276326    0.4069005  0.00    0.0011829   -0.0151073    0.0129116
o    -1.4900987    2.4028229   -0.5861280  0.00    0.0112788   -0.0112554   -0.0050328
o    -2.0766925    3.0669852    1.6571362  0.00    0.0223541   -0.0503005    0.0232351
h    -2.3063453    4.0782885    1.5755633  0.00   -0.0202553    0.0481281   -0.0038815
    13
 Energy =       0.0611806975
c    -3.7770053    1.7228812    0.3506817  0.00   -0.0165939    0.0038961    0.0215152
c    -2.4488440    2.5078171    0.4371558  0.00    0.0058611    0.0234519   -0.0207331
c    -4.8466219    2.5130613   -0.4321751  0.00   -0.0030995    0.0075497   -0.0009462
h    -4.4930457    2.7078014   -1.4764828  0.00    0.0016477    0.0023990   -0.0069811
h    -5.0660896    3.4887836    0.0650373  0.00   -0.0019492    0.0058055    0.0022531
h    -5.7951853    1.9167857   -0.4928824  0.00   -0.0102665   -0.0051892   -0.0011766
n    -3.6226163    0.3972318   -0.3060838  0.00   -0.0136361   -0.0085374   -0.0126506
h    -4.1265322    1.5845427    1.4094726  0.00   -0.0015756   -0.0026602    0.0063233
h    -2.8103741    0.4193934   -0.9902239  0.00    0.0187241    0.0016941   -0.0096583
h    -3.3764852   -0.3312153    0.4223029  0.00    0.0012820   -0.0153693    0.0131896
o    -1.5573975    2.5615760   -0.6405446  0.00    0.0175526   -0.0101614   -0.0112466
o    -2.1032062    3.1061068    1.6499392  0.00    0.0236709   -0.0624854    0.0261861
h    -2.2247835    4.1395208    1.5350216  0.00   -0.0216176    0.0596067   -0.0060747
    13
 Energy =       0.0571817291
c    -3.7744632    1.7099490    0.3558082  0.00   -0.0146308    0.0035239    0.0192477
c    -2.4865496    2.5534605    0.4422028  0.00    0.0000087    0.0188214   -0.0107462
c    -4.8725715    2.4514080   -0.4326246  0.00   -0.0027477    0.0068553   -0.0012845
h    -4.5271053    2.6480750   -1.4780807  0.00    0.0013929    0.0020325   -0.0058054
h    -5.1241628    3.4240451    0.0544977  0.00   -0.0017079    0.0053253    0.0020382
h    -5.7990512    1.8229508   -0.4851439  0.00   -0.0091568   -0.0046342   -0.0010462
n    -3.5624246    0.3911630   -0.2949719  0.00   -0.0122451   -0.0082110   -0.0110164
h    -4.1220408    1.5626810    1.4129976  0.00   -0.0014451   -0.0021786    0.0052642
h    -2.7569564    0.4465531   -0.9829641  0.00    0.0163044    0.0012788   -0.0085342
h    -3.2820572   -0.3217446    0.4343118  0.00    0.0013432   -0.0136987    0.0114393
o    -1.6417052    2.7203291   -0.6651637  0.00    0.0209077   -0.0062591   -0.0162240
o    -2.1512138    3.1440969    1.6594452  0.00    0.0204252   -0.0651587    0.0246362
h    -2.1478850    4.1813196    1.5109042  0.00   -0.0184486    0.0623029   -0.0079687
    13
 Energy =       0.0517827351
c    -3.7730479    1.6977511    0.3603912  0.00   -0.0110799    0.0031099    0.0150944
c    -2.5358225    2.6052779    0.4560070  0.00   -0.0034191    0.0121742   -0.0020998
c    -4.8963131    2.3787685   -0.4425465  0.00   -0.0021333    0.0053798   -0.0016846
h    -4.5540003    2.5760886   -1.4870413  0.00    0.0009864    0.0014390   -0.0040565
h    -5.1900744    3.3461944    0.0297878  0.00   -0.0013866    0.0046023    0.0017636
h    -5.7938156    1.7126122   -0.4900506  0.00   -0.0073226   -0.0037103   -0.0008557
n    -3.4901948    0.3896209   -0.2787461  0.00   -0.0118431   -0.0060467   -0.0094651
h    -4.1255819    1.5409645    1.4129826  0.00   -0.0012392   -0.0013410    0.0037627
h    -2.7119769    0.4908826   -0.9898791  0.00    0.0135462    0.0012089   -0.0074957
h    -3.1420491   -0.2924171    0.4499406  0.00    0.0022369   -0.0129323    0.0104981
o    -1.7402542    2.8790822   -0.6671151  0.00    0.0199796   -0.0014632   -0.0170717
o    -2.2222984    3.1946647    1.6770358  0.00    0.0133250   -0.0625906    0.0216696
h    -2.0727577    4.2147958    1.5004524  0.00   -0.0116505    0.0601700   -0.0100594
    13
 Energy =       0.0467516791
c    -3.7727651    1.6904119    0.3636089  0.00   -0.0073599    0.0028809    0.0107643
c    -2.5884916    2.6578425    0.4712858  0.00   -0.0027378    0.0074975    0.0010033
c    -4.9153670    2.3061665   -0.4604011  0.00   -0.0014768    0.0037372   -0.0020191
h    -4.5710773    2.5050035   -1.5022495  0.00    0.0006199    0.0008684   -0.0025171
h    -5.2578526    3.2650735   -0.0049455  0.00   -0.0011999    0.0039961    0.0015544
h    -5.7793593    1.5999243   -0.5072094  0.00   -0.0056000   -0.0028975   -0.0006862
n    -3.4158082    0.3950102   -0.2577514  0.00   -0.0127595   -0.0032491   -0.0086526
h    -4.1338496    1.5252826    1.4105577  0.00   -0.0010292   -0.0005852    0.0024537
h    -2.6803733    0.5418301   -1.0038516  0.00    0.0113487    0.0016999   -0.0071063
h    -2.9832960   -0.2396256    0.4693760  0.00    0.0041322   -0.0131320    0.0109696
o    -1.8317321    3.0061264   -0.6545865  0.00    0.0149493    0.0009501   -0.0130735
o    -2.3003588    3.2485868    1.6961411  0.00    0.0059779   -0.0523426    0.0174623
h    -2.0178560    4.2326535    1.5112441  0.00   -0.0048651    0.0505763   -0.0101527
    13
 Energy =       0.0426107386
c    -3.7739028    1.6872034    0.3654278  0.00   -0.0043111    0.0027264    0.0070681
c    -2.6442913    2.7110445    0.4853232  0.00   -0.0008239    0.0046398    0.0016529
c    -4.9312473    2.2345833   -0.4827099  0.00   -0.0008217    0.0022802   -0.0021778
h    -4.5815697    2.4391472   -1.5203603  0.00    0.0003838    0.0004073   -0.0013741
h    -5.3280464    3.1797025   -0.0437206  0.00   -0.0011655    0.0035129    0.0013921
h    -5.7567357    1.4859830   -0.5333022  0.00   -0.0042219   -0.0023407   -0.0005463
n    -3.3406398    0.4079583   -0.2347124  0.00   -0.0126971   -0.0014889   -0.0078620
h    -4.1444511    1.5132454    1.4064663  0.00   -0.0008249   -0.0000766    0.0014450
h    -2.6550807    0.5936235   -1.0168614  0.00    0.0088375    0.0021801   -0.0064291
h    -2.8245429   -0.1657096    0.4886478  0.00    0.0058717   -0.0123553    0.0109584
o    -1.9184721    3.1145055   -0.6383451  0.00    0.0093223    0.0016391   -0.0083015
o    -2.3791779    3.2996810    1.7153998  0.00   -0.0007928   -0.0405252    0.0131131
h    -1.9700292    4.2333183    1.5399655  0.00    0.0012438    0.0394009   -0.0089387
    13
 Energy =       0.0395004427
c    -3.7779863    1.6875124    0.3656599  0.00   -0.0019161    0.0025353    0.0037140
c    -2.7038889    2.7627864    0.5003208  0.00    0.0008154    0.0025664    0.0012845
c    -4.9433291    2.1661992   -0.5096271  0.00   -0.0000912    0.0009447   -0.0018947
h    -4.5841175    2.3840652   -1.5404385  0.00    0.0003080    0.0000544   -0.0006152
h    -5.3995283    3.0901769   -0.0849290  0.00   -0.0011545    0.0028787    0.0011938
h    -5.7246916    1.3740842   -0.5712371  0.00   -0.0029472   -0.0018697   -0.0004026
n    -3.2670644    0.4291018   -0.2108989  0.00   -0.0117845   -0.0003027   -0.0067419
h    -4.1599719    1.5028447    1.3998057  0.00   -0.0006143    0.0002162    0.0006993
h    -2.6415321    0.6456854   -1.0324123  0.00    0.0060253    0.0025515   -0.0055026
h    -2.6657897   -0.0668745    0.5033353  0.00    0.0072782   -0.0103317    0.0103365
o    -2.0027759    3.2122247   -0.6176252  0.00    0.0041644    0.0012316   -0.0040503
o    -2.4558713    3.3401053    1.7387265  0.00   -0.0064768   -0.0279626    0.0083895
h    -1.9216398    4.2063746    1.5905386  0.00    0.0063933    0.0274879   -0.0064104
    13
 Energy =       0.0377275119
c    -3.7855574    1.6898212    0.3629970  0.00   -0.0004063    0.0018632    0.0004795
c    -2.7672750    2.8104686    0.5220656  0.00    0.0012615    0.0006258    0.0001423
c    -4.9492018    2.1049106   -0.5431188  0.00    0.0007264   -0.0002369   -0.0007118
h    -4.5748063    2.3519563   -1.5616963  0.00    0.0004579   -0.0000965   -0.0004311
h    -5.4711508    2.9958430   -0.1263014  0.00   -0.0009514    0.0017818    0.0008723
h    -5.6788277    1.2687535   -0.6304209  0.00   -0.0015958   -0.0013310   -0.0002128
n    -3.1954904    0.4592593   -0.1906624  0.00   -0.0087519    0.0004169   -0.0043985
h    -4.1832514    1.4881957    1.3874633  0.00   -0.0004086    0.0002538    0.0002739
h    -2.6433629    0.6965214   -1.0553708  0.00    0.0026830    0.0022937   -0.0037782
h    -2.5070366    0.0620481    0.5030270  0.00    0.0069101   -0.0059372    0.0076980
o    -2.0775170    3.3007101   -0.5823283  0.00    0.0001696    0.0002043   -0.0007146
o    -2.5353049    3.3646946    1.7737631  0.00   -0.0083006   -0.0130139    0.0033022
h    -1.8794046    4.1411038    1.6718014  0.00    0.0082061    0.0131758   -0.0025212
    13
 Energy =       0.0374420121
c    -3.7860183    1.6856923    0.3601721  0.00    0.0000962   -0.0002627   -0.0003549
c    -2.7850967    2.8167127    0.5413868  0.00   -0.0007170   -0.0009248   -0.0004521
c    -4.9400287    2.0913570   -0.5606138  0.00    0.0000420   -0.0000635    0.0002947
h    -4.5546249    2.3643588   -1.5681314  0.00    0.0000809    0.0000573   -0.0002566
h    -5.4875152    2.9618113   -0.1390962  0.00    0.0001175   -0.0001050   -0.0000103
h    -5.6484274    1.2426423   -0.6737323  0.00    0.0000263   -0.0000055    0.0000432
n    -3.1705205    0.4678581   -0.1888959  0.00    0.0005985    0.0003999    0.0002089
h    -4.1950532    1.4713647    1.3773334  0.00   -0.0000142   -0.0000489    0.0000790
h    -2.6531646    0.7040795   -1.0713416  0.00   -0.0000754   -0.0001165    0.0002786
h    -2.4502888    0.1164663    0.4857747  0.00   -0.0007724    0.0002998   -0.0004165
o    -2.0431014    3.2835069   -0.5401052  0.00    0.0008423    0.0002848   -0.0020906
o    -2.6135855    3.3978396    1.7918082  0.00    0.0009465    0.0016833    0.0032914
h    -1.9207617    4.1305968    1.7166598  0.00   -0.0011711   -0.0011980   -0.0006149
    13
 Energy =       0.0374325737
c    -3.7853976    1.6836365    0.3592509  0.00   -0.0000212    0.0000272    0.0000398
c    -2.7854076    2.8147341    0.5460398  0.00    0.0000101    0.0000209   -0.0000057
c    -4.9381888    2.0919890   -0.5623512  0.00    0.0000053    0.0000082   -0.0000262
h    -4.5509549    2.3704600   -1.5673559  0.00    0.0000035   -0.0000057    0.0000043
h    -5.4881679    2.9596810   -0.1379592  0.00   -0.0000139    0.0000195   -0.0000009
h    -5.6450919    1.2427814   -0.6813137  0.00   -0.0000109   -0.0000137   -0.0000108
n    -3.1681862    0.4672396   -0.1921368  0.00   -0.0001298   -0.0000430   -0.0000155
h    -4.1961322    1.4660106    1.3748964  0.00   -0.0000062    0.0000051   -0.0000018
h    -2.6573920    0.7051711   -1.0781759  0.00    0.0000285    0.0000244   -0.0000631
h    -2.4409162    0.1198566    0.4780170  0.00    0.0001259   -0.0000485    0.0000882
o    -2.0290650    3.2742712   -0.5269529  0.00   -0.0000241    0.0000212    0.0000070
o    -2.6308411    3.4043282    1.7930411  0.00   -0.0001436   -0.0001919   -0.0000558
h    -1.9324454    4.1341270    1.7262191  0.00    0.0001762    0.0001762    0.0000404
    13
 Energy =       0.0374320823
c    -3.7842066    1.6823816    0.3592241  0.00   -0.0000013    0.0000039    0.0000072
c    -2.7835043    2.8127332    0.5465847  0.00   -0.0000296   -0.0000475   -0.0000363
c    -4.9378992    2.0930178   -0.5601382  0.00   -0.0000013   -0.0000000   -0.0000018
h    -4.5518484    2.3728608   -1.5652136  0.00    0.0000006    0.0000004   -0.0000015
h    -5.4866973    2.9603428   -0.1334905  0.00   -0.0000016    0.0000023    0.0000012
h    -5.6455536    1.2445080   -0.6794647  0.00   -0.0000003   -0.0000005   -0.0000003
n    -3.1685239    0.4665176   -0.1950164  0.00   -0.0000000   -0.0000046   -0.0000038
h    -4.1937290    1.4633313    1.3750537  0.00   -0.0000007   -0.0000007    0.0000017
h    -2.6584297    0.7055258   -1.0811241  0.00    0.0000008    0.0000009   -0.0000013
h    -2.4409261    0.1173423    0.4736895  0.00    0.0000027   -0.0000014    0.0000028
o    -2.0180342    3.2641036   -0.5234866  0.00    0.0000425    0.0000128   -0.0000964
o    -2.6391370    3.4114950    1.7905316  0.00   -0.0000146    0.0000327    0.0001316
h    -1.9396976    4.1401265    1.7240690  0.00    0.0000028    0.0000016   -0.0000030
    13
 Energy =       0.0374320735
c    -3.7842155    1.6823891    0.3592242  0.00   -0.0000000    0.0000000    0.0000000
c    -2.7835211    2.8127463    0.5465978  0.00    0.0000000   -0.0000000   -0.0000000
c    -4.9378998    2.0930106   -0.5601500  0.00   -0.0000000    0.0000000    0.0000000
h    -4.5518421    2.3728442   -1.5652236  0.00   -0.0000000    0.0000000    0.0000000
h    -5.4867016    2.9603371   -0.1335178  0.00   -0.0000000   -0.0000000    0.0000000
h    -5.6455510    1.2444982   -0.6794718  0.00   -0.0000000   -0.0000000    0.0000000
n    -3.1685214    0.4665285   -0.1950011  0.00    0.0000000    0.0000000   -0.0000000
h    -4.1937485    1.4633411    1.3750480  0.00    0.0000000   -0.0000000    0.0000000
h    -2.6584211    0.7055336   -1.0811049  0.00   -0.0000000    0.0000000   -0.0000000
h    -2.4409281    0.1173644    0.4737118  0.00    0.0000000   -0.0000000   -0.0000000
o    -2.0181124    3.2641731   -0.5234198  0.00    0.0000000   -0.0000000    0.0000000
o    -2.6390754    3.4114387    1.7904897  0.00   -0.0000000    0.0000000    0.0000000
h    -1.9396488    4.1400813    1.7240359  0.00    0.0000000   -0.0000000   -0.0000000
