13
UFF-Energy = 0.0736293
C    -5.3772158    1.7302016    0.6198758 
C    -4.1122166    1.7349260   -0.2594603 
H    -5.8627688    2.7309439    0.6070040 
H    -5.1109710    1.4921189    1.6742044 
H    -6.1057124    0.9789033    0.2482310 
C    -3.1307294    2.8257835    0.1492429 
N    -3.4595672    0.4109453   -0.2326980 
H    -4.4183768    1.9898649   -1.3022023 
H    -3.9861013   -0.2886473    0.3427063 
H    -3.4137206    0.0229745   -1.2045940 
O    -3.0791707    3.2881641    1.4595640 
O    -2.2459967    3.3469422   -0.7847341 
H    -1.4593528    2.7179075   -0.8580513 
