13
UFF-Energy = 0.0551174
C    -5.3241073    2.1082250    0.0953987 
C    -3.9648165    1.4240418   -0.1419873 
H    -5.4359537    2.9862275   -0.5800238 
H    -5.3950783    2.4682913    1.1450140 
H    -6.1551296    1.4000323   -0.1069464 
C    -2.8055751    2.4013172    0.0293802 
N    -3.8255622    0.2490933    0.7425553 
H    -3.9137082    1.1073273   -1.2100138 
H    -4.6476841    0.1105385    1.3760340 
H    -3.7279728   -0.6205114    0.1680587 
O    -1.6640367    2.0567635    0.7463753 
O    -2.8548043    3.6429172   -0.5960244 
H    -1.9973011    4.1406948   -0.3923791 
