13
UFF-Energy = 0.051059
C    -5.0517648    2.1917647   -0.4134252 
C    -3.9067414    1.3009267    0.0799254 
H    -4.8135914    2.6186855   -1.4116661 
H    -5.2244313    3.0326390    0.2942419 
H    -5.9884423    1.5988773   -0.4894588 
C    -2.5865523    2.0695864    0.1909542 
N    -4.3136198    0.7039502    1.3603107 
H    -3.7601627    0.4919113   -0.6726548 
H    -3.5838072    0.0173640    1.6673627 
H    -4.3398758    1.4491147    2.1004352 
O    -2.5889566    3.3721337    0.6732866 
O    -1.3655421    1.4728903   -0.1201076 
H    -1.4647824    0.5073632   -0.3938890 
