13
UFF-Energy = 0.0611129
C    -5.2007321    2.0094189   -0.1252479 
C    -3.8497347    1.2950819   -0.0371778 
H    -5.2304977    2.7026373   -0.9935414 
H    -5.3749918    2.5935793    0.8070190 
H    -6.0226435    1.2699527   -0.2293390 
C    -2.7025344    2.3098908    0.0178355 
N    -3.8821330    0.4222247    1.1457161 
H    -3.6983784    0.6750297   -0.9513205 
H    -4.4960955   -0.4044368    0.9546534 
H    -2.9226999    0.0425940    1.3345375 
O    -2.2738685    2.8135727    1.2396458 
O    -2.1107215    2.7952554   -1.1495304 
H    -2.5214490    2.4024785   -1.9827200 
