    13
 Energy =       0.2323039192
c    -3.7133889    1.6950595    0.3173519  0.00    0.0147346   -0.0362648   -0.0199656
c    -2.4962693    2.6345192    0.2419999  0.00    0.0622593    0.3510664    0.1035330
c    -4.9565486    2.3924193   -0.2155699  0.00    0.0173688    0.0138917    0.0084821
h    -5.8072983    1.7014095   -0.2223689  0.00    0.0131808    0.0085759   -0.0027258
h    -4.8071186    2.7393792   -1.2437896  0.00   -0.0066206   -0.0052629    0.0172178
h    -5.2375685    3.2516891    0.4029209  0.00   -0.0007826   -0.0153316   -0.0118846
n    -3.4097890    0.4519539   -0.4549189  0.00    0.8147087    0.2770407   -0.1069753
h    -3.8575589    1.4177196    1.3669296  0.00    0.0048173   -0.0143463   -0.0292576
h    -3.2072391   -0.2948399    0.2179739  0.00   -0.0091637    0.0396353   -0.0246489
h    -4.2689788    0.1396900   -0.9176007  0.00    0.0271527    0.0248596    0.0263218
o    -2.4571893    3.7760389    0.6681628  0.00   -0.0099263   -0.2739201   -0.1068129
o    -1.4389296    2.0221094   -0.3549299  0.00   -0.0945228   -0.0829916   -0.0029337
h    -1.7862895    1.1491097   -0.6669268  0.00   -0.8332063   -0.2869522    0.1496496
    13
 Energy =       0.1243347552
c    -3.7187181    1.6670051    0.3303685  0.00    0.0196068   -0.0103607   -0.0106581
c    -2.5234981    2.5817965    0.2783359  0.00    0.0138502    0.0394108    0.0178169
c    -4.9808458    2.3644689   -0.2061576  0.00    0.0106718   -0.0066960    0.0078181
h    -5.8085997    1.6267368   -0.3803591  0.00   -0.0069612   -0.0103328   -0.0043658
h    -4.7543389    2.8981323   -1.1761983  0.00    0.0057623    0.0104359   -0.0134581
h    -5.3435511    3.1226917    0.5419912  0.00   -0.0050222    0.0063049    0.0112499
n    -3.4095072    0.4847158   -0.4778166  0.00    0.3530352    0.1688399   -0.0392536
h    -3.8709446    1.3851860    1.3971532  0.00    0.0005023   -0.0030555   -0.0048162
h    -3.1275645   -0.3062169    0.1551790  0.00    0.0021789    0.0004976   -0.0010804
h    -4.2484917    0.1234577   -0.9907459  0.00    0.0023178    0.0018546    0.0018029
o    -2.6148906    3.8594832    0.7669698  0.00   -0.0209767   -0.0313546   -0.0134359
o    -1.3884253    2.1018368   -0.3673763  0.00   -0.0047749    0.0000404   -0.0007931
h    -1.6547908    1.1669635   -0.7321095  0.00   -0.3701902   -0.1655845    0.0491736
    13
 Energy =       0.1138080378
c    -3.6896158    1.6648220    0.3329067  0.00    0.0173266   -0.0103778   -0.0087896
c    -2.5166872    2.6103171    0.2103522  0.00    0.0134121    0.0293899    0.0136848
c    -5.0082599    2.3296521   -0.1144760  0.00    0.0057925   -0.0037336    0.0072485
h    -5.8292713    1.5718732   -0.2216060  0.00   -0.0081962   -0.0090555   -0.0034721
h    -4.8614305    2.8577860   -1.1020764  0.00    0.0051410    0.0097224   -0.0137251
h    -5.3342226    3.0869389    0.6487269  0.00   -0.0044963    0.0053172    0.0098243
n    -3.4017447    0.4878264   -0.4979605  0.00    0.2982224    0.1460420   -0.0314864
h    -3.7612797    1.3801081    1.4110707  0.00    0.0000514   -0.0030335   -0.0006443
h    -3.2001316   -0.3420406    0.1199547  0.00    0.0039653   -0.0042984    0.0026571
h    -4.2178896    0.1997780   -1.1009563  0.00   -0.0061875   -0.0025221   -0.0052070
o    -2.6276294    3.9172459    0.6301664  0.00   -0.0164412   -0.0212279   -0.0101230
o    -1.3754489    2.1311561   -0.4236774  0.00   -0.0036106    0.0012129   -0.0002748
h    -1.6205551    1.1807941   -0.7531906  0.00   -0.3049794   -0.1374355    0.0403075
    13
 Energy =       0.1051602507
c    -3.6873319    1.6874891    0.3365247  0.00    0.0135889   -0.0062629   -0.0064808
c    -2.5261569    2.6436157    0.1607846  0.00    0.0101411    0.0210492    0.0116211
c    -5.0178068    2.3029314   -0.1476135  0.00    0.0044484   -0.0030997    0.0052688
h    -5.8230924    1.5258652   -0.2161621  0.00   -0.0072407   -0.0081897   -0.0030738
h    -4.8815551    2.7838673   -1.1583374  0.00    0.0040377    0.0086689   -0.0123131
h    -5.3573581    3.0924708    0.5745875  0.00   -0.0038381    0.0053256    0.0089154
n    -3.3824522    0.4576035   -0.4170793  0.00    0.2502600    0.1209231   -0.0314165
h    -3.7530399    1.4721171    1.4331824  0.00    0.0001664   -0.0028040    0.0020174
h    -3.2584355   -0.3512332    0.2519573  0.00    0.0048594   -0.0086375    0.0069270
h    -4.1589326    0.1780933   -1.0763343  0.00   -0.0083878   -0.0019790   -0.0066072
o    -2.6650595    3.9861296    0.4714132  0.00   -0.0146737   -0.0086952   -0.0063131
o    -1.3584229    2.1366739   -0.4033608  0.00   -0.0004944    0.0016353   -0.0005412
h    -1.5745225    1.1606336   -0.6703281  0.00   -0.2528670   -0.1179342    0.0319960
    13
 Energy =       0.1041006898
c    -3.7112991    1.6809543    0.3317190  0.00    0.0139620   -0.0085954   -0.0069754
c    -2.5210550    2.6148342    0.2227671  0.00    0.0113801    0.0166996    0.0099204
c    -5.0003838    2.3396619   -0.2107218  0.00    0.0026209   -0.0020313    0.0052780
h    -5.8323181    1.5924062   -0.2995861  0.00   -0.0081323   -0.0085071   -0.0027842
h    -4.8107318    2.8045421   -1.2216559  0.00    0.0042147    0.0092787   -0.0134690
h    -5.3385608    3.1479666    0.4914895  0.00   -0.0041894    0.0055415    0.0089369
n    -3.4039212    0.4537259   -0.4253754  0.00    0.2537050    0.1283960   -0.0317439
h    -3.8388446    1.4527900    1.4222048  0.00   -0.0000865   -0.0031327    0.0039638
h    -3.1751226   -0.3333729    0.2513050  0.00    0.0073258   -0.0148823    0.0129145
h    -4.2308304    0.1113154   -0.9979153  0.00   -0.0168511   -0.0054963   -0.0127176
o    -2.6224676    3.9383482    0.6301664  0.00   -0.0142114   -0.0017893   -0.0042487
o    -1.3627644    2.1149968   -0.3675505  0.00    0.0001266    0.0035292    0.0001158
h    -1.5958670    1.1580886   -0.6876124  0.00   -0.2498643   -0.1190108    0.0308094
    13
 Energy =       0.0923077098
c    -3.7324447    1.6758022    0.3250123  0.00    0.0107300   -0.0083300   -0.0056242
c    -2.5110280    2.5794149    0.2721142  0.00    0.0087689    0.0054736    0.0036718
c    -4.9776644    2.3764235   -0.2633616  0.00    0.0009728   -0.0012503    0.0035915
h    -5.8389611    1.6653816   -0.3408223  0.00   -0.0066162   -0.0068599   -0.0017493
h    -4.7511223    2.7949110   -1.2834628  0.00    0.0034329    0.0075667   -0.0110237
h    -5.2915871    3.2220806    0.4029411  0.00   -0.0038688    0.0051065    0.0071678
n    -3.4413044    0.4404342   -0.4265769  0.00    0.1920986    0.0965486   -0.0234654
h    -3.9116363    1.4478259    1.4083726  0.00   -0.0002094   -0.0028394    0.0040439
h    -3.1856258   -0.3318874    0.2525247  0.00    0.0053178   -0.0111668    0.0098056
h    -4.2866410    0.0825404   -0.9561912  0.00   -0.0132648   -0.0048949   -0.0103262
o    -2.5641755    3.8725581    0.7889195  0.00   -0.0096420    0.0074090    0.0003763
o    -1.3579241    2.0927960   -0.3375838  0.00    0.0005716    0.0038782    0.0006677
h    -1.5940520    1.1579766   -0.7026515  0.00   -0.1882914   -0.0906412    0.0228643
    13
 Energy =       0.0793189179
c    -3.7617336    1.6737935    0.3174027  0.00    0.0071768   -0.0078488   -0.0038312
c    -2.5025912    2.5344350    0.3315207  0.00    0.0061105   -0.0020203   -0.0015912
c    -4.9425122    2.4219711   -0.3403970  0.00   -0.0010233   -0.0004067    0.0020692
h    -5.8435474    1.7637570   -0.4000808  0.00   -0.0053447   -0.0051609   -0.0004008
h    -4.6663285    2.7639565   -1.3741208  0.00    0.0030516    0.0059332   -0.0094065
h    -5.2185859    3.3224277    0.2675440  0.00   -0.0039192    0.0057030    0.0056180
n    -3.4952679    0.4197259   -0.4135037  0.00    0.1259603    0.0631894   -0.0146719
h    -4.0113851    1.4606603    1.3902927  0.00   -0.0007069   -0.0026762    0.0045116
h    -3.1858591   -0.3215802    0.2738087  0.00    0.0035866   -0.0081171    0.0076701
h    -4.3714236    0.0298391   -0.8624866  0.00   -0.0120705   -0.0059847   -0.0090380
o    -2.5111818    3.7871182    0.9476726  0.00   -0.0042489    0.0116322    0.0035013
o    -1.3503496    2.0631132   -0.2900716  0.00    0.0008920    0.0042114    0.0013430
h    -1.5834004    1.1570401   -0.7083465  0.00   -0.1194642   -0.0584543    0.0142263
    13
 Energy =       0.0687747616
c    -3.7954985    1.6737001    0.3087440  0.00    0.0042995   -0.0070830   -0.0018675
c    -2.4956970    2.4771050    0.3987662  0.00    0.0045722   -0.0044639   -0.0039016
c    -4.8927288    2.4744447   -0.4255652  0.00   -0.0022806    0.0008710    0.0009022
h    -5.8389813    1.8848854   -0.4766417  0.00   -0.0047445   -0.0036944    0.0005917
h    -4.5617844    2.7279400   -1.4664164  0.00    0.0029583    0.0041703   -0.0079103
h    -5.1154842    3.4283860    0.1179894  0.00   -0.0036674    0.0060690    0.0039117
n    -3.5705398    0.3972105   -0.3967388  0.00    0.0722701    0.0365887   -0.0086285
h    -4.1229078    1.4852100    1.3654088  0.00   -0.0013223   -0.0026634    0.0045758
h    -3.1935182   -0.3085584    0.2913792  0.00    0.0028068   -0.0055947    0.0065278
h    -4.4824286   -0.0185762   -0.7389551  0.00   -0.0127665   -0.0074508   -0.0075680
o    -2.4671202    3.6798849    1.1064257  0.00   -0.0003695    0.0112167    0.0044629
o    -1.3417302    2.0224507   -0.2322094  0.00    0.0011214    0.0045855    0.0019925
h    -1.5657474    1.1521746   -0.7129525  0.00   -0.0628776   -0.0325512    0.0069115
    13
 Energy =       0.0624818539
c    -3.8327068    1.6803215    0.2989010  0.00    0.0017716   -0.0055435   -0.0001148
c    -2.4831900    2.3952199    0.4697385  0.00    0.0048580   -0.0037891   -0.0041808
c    -4.8185529    2.5451260   -0.5157287  0.00   -0.0026573    0.0034811   -0.0000781
h    -5.8136189    2.0436385   -0.5803427  0.00   -0.0054104   -0.0028837    0.0009286
h    -4.4258056    2.7091666   -1.5510312  0.00    0.0029464    0.0026954   -0.0063971
h    -4.9702197    3.5421860   -0.0309249  0.00   -0.0030675    0.0057431    0.0021157
n    -3.6806756    0.3747814   -0.3723932  0.00    0.0338592    0.0135723   -0.0039048
h    -4.2418131    1.5364492    1.3341696  0.00   -0.0021451   -0.0029501    0.0045311
h    -3.2647146   -0.3081824    0.3106522  0.00    0.0010532   -0.0016010    0.0029298
h    -4.6247362   -0.0297246   -0.6179930  0.00   -0.0090408   -0.0061968   -0.0043151
o    -2.4115315    3.5430482    1.2578725  0.00    0.0017164    0.0085559    0.0039901
o    -1.3288808    1.9364713   -0.1602598  0.00    0.0015583    0.0046827    0.0024509
h    -1.5477208    1.1077560   -0.7034260  0.00   -0.0254422   -0.0157662    0.0020444
    13
 Energy =       0.0620302396
c    -3.8468428    1.6572979    0.2864570  0.00   -0.0023110   -0.0025689    0.0004845
c    -2.5421686    2.4352286    0.5492022  0.00    0.0027779   -0.0045284   -0.0041284
c    -4.8325115    2.4988516   -0.5507349  0.00   -0.0020415    0.0027656   -0.0001016
h    -5.8080515    1.9650705   -0.6552093  0.00   -0.0061954   -0.0031692    0.0006821
h    -4.4103051    2.6869603   -1.5703602  0.00    0.0030629    0.0023984   -0.0065090
h    -5.0330334    3.4849014   -0.0595564  0.00   -0.0029973    0.0062139    0.0025587
n    -3.6004369    0.3793312   -0.4187794  0.00    0.0327666    0.0080628   -0.0064558
h    -4.3005377    1.4630176    1.2967178  0.00   -0.0033873   -0.0024965    0.0063018
h    -3.1655335   -0.2995724    0.2564137  0.00    0.0009624   -0.0021698    0.0027189
h    -4.5167051   -0.0683996   -0.6976538  0.00   -0.0107328   -0.0071890   -0.0045871
o    -2.5667654    3.5532785    1.3883221  0.00    0.0016274    0.0141103    0.0083630
o    -1.3350840    2.0679091   -0.0491421  0.00    0.0088401    0.0066853    0.0021306
h    -1.4861911    1.2523828   -0.6364425  0.00   -0.0223721   -0.0181145   -0.0014577
    13
 Energy =       0.0611724420
c    -3.8720485    1.6585736    0.2640377  0.00   -0.0028104   -0.0033149    0.0003912
c    -2.5590678    2.3874886    0.6192419  0.00   -0.0005210   -0.0011715   -0.0007409
c    -4.7824570    2.5471555   -0.6076840  0.00   -0.0020159    0.0035020   -0.0006301
h    -5.7723505    2.0548211   -0.7620115  0.00   -0.0056276   -0.0027921    0.0003053
h    -4.3092703    2.7251188   -1.6049897  0.00    0.0023022    0.0019967   -0.0053553
h    -4.9631245    3.5345217   -0.1171027  0.00   -0.0020214    0.0040130    0.0014434
n    -3.6410816    0.3868481   -0.4526434  0.00    0.0191428    0.0056880   -0.0050916
h    -4.3849885    1.4622831    1.2443271  0.00   -0.0027915   -0.0024548    0.0056388
h    -3.2358977   -0.3113835    0.2208290  0.00    0.0009112   -0.0020781    0.0023621
h    -4.5612885   -0.0334302   -0.7505936  0.00   -0.0071757   -0.0049241   -0.0029099
o    -2.6075662    3.4939759    1.4669037  0.00    0.0014742    0.0089598    0.0052203
o    -1.3185361    1.9889234    0.1096110  0.00    0.0121394    0.0043576    0.0002410
h    -1.4364893    1.1813613   -0.4906912  0.00   -0.0130061   -0.0117816   -0.0008743
    13
 Energy =       0.0618734424
c    -3.8810149    1.6588799    0.2427237  0.00   -0.0037453   -0.0027935    0.0012851
c    -2.5640593    2.3554489    0.6539045  0.00   -0.0056286    0.0012716    0.0014542
c    -4.7598762    2.5917784   -0.6173017  0.00   -0.0019776    0.0039801   -0.0011156
h    -5.7574195    2.1240845   -0.8002537  0.00   -0.0061706   -0.0030970    0.0001213
h    -4.2678565    2.7880683   -1.6023459  0.00    0.0023341    0.0021712   -0.0057051
h    -4.9281374    3.5690731   -0.1020065  0.00   -0.0019370    0.0043755    0.0016050
n    -3.6578972    0.4074764   -0.5131786  0.00    0.0181529    0.0071186   -0.0069209
h    -4.4177779    1.4384827    1.2055615  0.00   -0.0029250   -0.0027618    0.0062355
h    -3.2995721   -0.3272259    0.1505340  0.00    0.0017681   -0.0041198    0.0043770
h    -4.5782394    0.0217481   -0.8592190  0.00   -0.0094385   -0.0061799   -0.0038872
o    -2.6275152    3.4866912    1.4684894  0.00    0.0004312    0.0097246    0.0058156
o    -1.3022316    1.8945044    0.2442647  0.00    0.0198282    0.0022775   -0.0016986
h    -1.4025693    1.0672474   -0.3319381  0.00   -0.0106919   -0.0119671   -0.0015662
    13
 Energy =       0.0607154814
c    -3.8842055    1.6626294    0.2635768  0.00   -0.0029228   -0.0006756    0.0024626
c    -2.5680436    2.3720424    0.6446957  0.00   -0.0096430    0.0027974    0.0032372
c    -4.7531353    2.5580527   -0.6427567  0.00   -0.0020966    0.0034787   -0.0013174
h    -5.7474659    2.0832139   -0.8177962  0.00   -0.0050626   -0.0025010    0.0000247
h    -4.2520750    2.7140082   -1.6299441  0.00    0.0021214    0.0019504   -0.0054094
h    -4.9257197    3.5549512   -0.1678501  0.00   -0.0016791    0.0044053    0.0017648
n    -3.6643888    0.3750727   -0.4305304  0.00    0.0140371    0.0058087   -0.0083162
h    -4.4249326    1.4897913    1.2336890  0.00   -0.0026859   -0.0024125    0.0061487
h    -3.2686106   -0.3172880    0.2589116  0.00    0.0025313   -0.0053692    0.0058023
h    -4.5886842   -0.0404534   -0.7288117  0.00   -0.0096438   -0.0065836   -0.0040740
o    -2.6230837    3.4656579    1.5097204  0.00   -0.0010775    0.0096890    0.0061655
o    -1.3174133    1.9741330    0.1370212  0.00    0.0226564    0.0011349   -0.0026740
h    -1.4264081    1.1844462   -0.4906912  0.00   -0.0065348   -0.0117225   -0.0038149
    13
 Energy =       0.0592144166
c    -3.8973235    1.6704567    0.2820737  0.00    0.0007165    0.0019967    0.0028907
c    -2.5858712    2.3756092    0.6620193  0.00   -0.0090900    0.0012744    0.0029224
c    -4.7136808    2.5228276   -0.7069186  0.00   -0.0031633    0.0022800   -0.0010653
h    -5.7056485    2.0548982   -0.8944415  0.00   -0.0022417   -0.0007685    0.0000046
h    -4.1741092    2.6114415   -1.6812435  0.00    0.0019914    0.0012186   -0.0048440
h    -4.8866257    3.5471479   -0.2962377  0.00   -0.0013420    0.0038196    0.0016715
n    -3.6799629    0.3388808   -0.3228189  0.00    0.0063066    0.0006052   -0.0070685
h    -4.4731730    1.5684175    1.2408774  0.00   -0.0022141   -0.0011790    0.0052762
h    -3.2564745   -0.2998761    0.4001514  0.00    0.0024777   -0.0045969    0.0049418
h    -4.6052919   -0.0999272   -0.5700586  0.00   -0.0056304   -0.0045775   -0.0026061
o    -2.6285930    3.4052002    1.6019085  0.00   -0.0026119    0.0083691    0.0060922
o    -1.3586241    2.0575678    0.0572671  0.00    0.0160366    0.0001375   -0.0022348
h    -1.4787883    1.3236133   -0.6333444  0.00   -0.0012352   -0.0085792   -0.0059807
    13
 Energy =       0.0581746358
c    -3.9183344    1.6817344    0.2904831  0.00    0.0028627    0.0006844    0.0007748
c    -2.6097716    2.3658693    0.6997934  0.00   -0.0020316   -0.0035005   -0.0011563
c    -4.6507282    2.4924470   -0.7906755  0.00   -0.0032837    0.0012095   -0.0004543
h    -5.6434045    2.0422815   -1.0054800  0.00   -0.0005064    0.0002992    0.0000520
h    -4.0576730    2.5019456   -1.7362177  0.00    0.0020172    0.0003237   -0.0036870
h    -4.8128679    3.5436784   -0.4549908  0.00   -0.0010163    0.0024239    0.0008172
n    -3.7067847    0.3160190   -0.2251389  0.00    0.0015999   -0.0018076   -0.0023760
h    -4.5490607    1.6512460    1.2173921  0.00   -0.0018541   -0.0002040    0.0033117
h    -3.2714779   -0.2728486    0.5283240  0.00    0.0008225   -0.0014344    0.0013383
h    -4.6345894   -0.1323024   -0.4258002  0.00   -0.0006514   -0.0012054   -0.0003657
o    -2.6330953    3.3045088    1.7299951  0.00   -0.0018021    0.0067748    0.0060849
o    -1.4109703    2.1331399    0.0215785  0.00    0.0034399   -0.0017064   -0.0024706
h    -1.5454087    1.4485385   -0.7100288  0.00    0.0004034   -0.0018572   -0.0018688
    13
 Energy =       0.0579490842
c    -3.9236294    1.6896979    0.2960451  0.00   -0.0007209    0.0006738    0.0007249
c    -2.6181462    2.3824419    0.6984855  0.00   -0.0006360   -0.0002124    0.0001933
c    -4.6328929    2.4545993   -0.8259256  0.00    0.0005096   -0.0006478   -0.0001382
h    -5.6250300    2.0010034   -1.0345678  0.00    0.0001709   -0.0001427   -0.0000335
h    -4.0305686    2.4166535   -1.7595952  0.00   -0.0003010    0.0000834    0.0003778
h    -4.7878778    3.5193650   -0.5409913  0.00    0.0001323    0.0002555    0.0001615
n    -3.7095481    0.3074728   -0.1636528  0.00   -0.0003124    0.0000700   -0.0006442
h    -4.5679926    1.6968723    1.2092390  0.00    0.0004532    0.0000133   -0.0004506
h    -3.2677802   -0.2477300    0.6100518  0.00    0.0001764   -0.0002278    0.0003311
h    -4.6373457   -0.1501837   -0.3389660  0.00   -0.0001651   -0.0000720   -0.0000033
o    -2.6243290    3.2601228    1.7745698  0.00   -0.0004630    0.0000943   -0.0000341
o    -1.4387204    2.2099618   -0.0239120  0.00    0.0013559   -0.0004078   -0.0010989
h    -1.5803055    1.5359803   -0.7615464  0.00   -0.0001998    0.0005202    0.0006142
    13
 Energy =       0.0579459228
c    -3.9237234    1.6898848    0.2961780  0.00   -0.0000017    0.0000029   -0.0000010
c    -2.6183217    2.3822728    0.6995170  0.00   -0.0000052   -0.0000261   -0.0000280
c    -4.6324915    2.4541466   -0.8273409  0.00    0.0000026   -0.0000007    0.0000040
h    -5.6263071    2.0029160   -1.0335513  0.00   -0.0000055   -0.0000040    0.0000006
h    -4.0308597    2.4120284   -1.7618139  0.00    0.0000043   -0.0000017   -0.0000067
h    -4.7850892    3.5197620   -0.5453422  0.00   -0.0000019    0.0000064    0.0000029
n    -3.7087008    0.3074109   -0.1617689  0.00    0.0000012    0.0000007   -0.0000030
h    -4.5695329    1.6977768    1.2090669  0.00   -0.0000011   -0.0000001    0.0000006
h    -3.2686128   -0.2470525    0.6130805  0.00    0.0000033   -0.0000018    0.0000020
h    -4.6360094   -0.1503007   -0.3388579  0.00   -0.0000024   -0.0000006   -0.0000002
o    -2.6213804    3.2530180    1.7812372  0.00   -0.0000069    0.0000342    0.0000418
o    -1.4410585    2.2137522   -0.0260007  0.00    0.0000128   -0.0000099   -0.0000088
h    -1.5820789    1.5406421   -0.7651696  0.00    0.0000004    0.0000006   -0.0000041
    13
 Energy =       0.0579459210
c    -3.9237243    1.6898831    0.2961918  0.00   -0.0000000    0.0000000    0.0000000
c    -2.6183200    2.3822657    0.6995268  0.00   -0.0000000   -0.0000000   -0.0000000
c    -4.6324630    2.4541251   -0.8273611  0.00   -0.0000000    0.0000000    0.0000000
h    -5.6262778    2.0029140   -1.0335848  0.00   -0.0000000    0.0000000    0.0000000
h    -4.0308181    2.4119809   -1.7618155  0.00    0.0000000    0.0000000   -0.0000000
h    -4.7850430    3.5197457   -0.5453995  0.00   -0.0000000    0.0000000    0.0000000
n    -3.7087054    0.3073966   -0.1617134  0.00    0.0000000    0.0000000   -0.0000000
h    -4.5695481    1.6978062    1.2090693  0.00   -0.0000000   -0.0000000    0.0000000
h    -3.2686967   -0.2470609    0.6131822  0.00    0.0000000   -0.0000000    0.0000000
h    -4.6360103   -0.1502958   -0.3388623  0.00   -0.0000000   -0.0000000   -0.0000000
o    -2.6213151    3.2528428    1.7813426  0.00   -0.0000000    0.0000000    0.0000000
o    -1.4411148    2.2138943   -0.0260980  0.00    0.0000000   -0.0000000   -0.0000000
h    -1.5821298    1.5407598   -0.7652438  0.00   -0.0000000   -0.0000000   -0.0000000
