    13
 Energy =       3.7855920514
c    -3.7133889    1.6950595    0.3173519  0.00    0.0098858   -0.0385250   -0.0196566
c    -2.4962693    2.6345192    0.2419999  0.00    0.0566000    0.3352083    0.0899870
c    -4.9565486    2.3924193   -0.2155699  0.00    0.0132913    0.0172365    0.0154745
h    -5.3251685    1.8809395   -1.1121297  0.00    0.0131637    0.0025289    0.0125395
h    -4.7411586    3.4296290   -0.4944269  0.00    0.0077650   -0.0212736    0.0064267
h    -5.7692484    2.3924493    0.5188399  0.00    0.0098231    0.0013103   -0.0142537
n    -3.4097890    0.4519539   -0.4549189  0.00    0.8680240    0.3116845   -0.1383681
h    -3.8575589    1.4177196    1.3669296  0.00   -0.0021096   -0.0036157   -0.0244978
h    -3.4845290    0.6754588   -1.4528996  0.00    0.0466623    0.0156502    0.0641732
h    -2.4188593    0.2248379   -0.3273229  0.00   19.5691085   28.6878145  -10.5141196
o    -2.4571893    3.7760389    0.6681628  0.00   -0.0109649   -0.2735498   -0.1067075
o    -1.4389296    2.0221094   -0.3549299  0.00   -0.1298333   -0.1533161    0.0020672
h    -1.7862895    1.1491097   -0.6669268  0.00  -20.4514160  -28.8811531   10.6269351
    13
 Energy =       3.0859114831
c    -3.7396523    1.7335866    0.2993246  0.00    0.0002972   -0.0251817   -0.0122717
c    -2.4640094    2.5934368    0.1820541  0.00    0.0372465    0.2555820    0.0668094
c    -4.9550558    2.4777013   -0.2426312  0.00    0.0102294    0.0134193    0.0124934
h    -5.3562492    1.9618872   -1.1271929  0.00    0.0096888    0.0015619    0.0098518
h    -4.6915139    3.5053332   -0.5381955  0.00    0.0063361   -0.0149254    0.0054202
h    -5.7593942    2.5319340    0.5071597  0.00    0.0066008    0.0012706   -0.0090478
n    -3.5096875    0.4361086   -0.4324298  0.00    0.6116510    0.2466300   -0.1188053
h    -3.8797977    1.5096749    1.3677805  0.00   -0.0017544   -0.0031451   -0.0175439
h    -3.5129846    0.6452976   -1.4484191  0.00    0.0368915    0.0149275    0.0434029
h    -2.4491850    0.0660848   -0.2102475  0.00   15.6229035   22.8020353   -8.3490864
o    -2.3021103    3.7730982    0.6038410  0.00   -0.0022500   -0.2028796   -0.0794095
o    -1.4252621    1.8984830   -0.3701047  0.00   -0.0919335   -0.1136469    0.0020092
h    -1.8100250    1.0096177   -0.5567796  0.00  -16.2459068  -22.9756478    8.4461777
    13
 Energy =       2.5799792244
c    -3.7287401    1.7181754    0.3299655  0.00    0.0020879   -0.0210667   -0.0066758
c    -2.4967393    2.6268050    0.2523521  0.00    0.0282908    0.2012008    0.0537120
c    -4.9527562    2.4035311   -0.2980882  0.00    0.0078717    0.0124409    0.0085469
h    -5.2878520    1.8667731   -1.2032787  0.00    0.0081534   -0.0003559    0.0050936
h    -4.7234670    3.4415969   -0.5987757  0.00    0.0054805   -0.0111684    0.0033196
h    -5.8055887    2.4342320    0.4033522  0.00    0.0029644    0.0023143   -0.0073283
n    -3.4287725    0.4218442   -0.3589239  0.00    0.4866429    0.1909574   -0.0861485
h    -3.9141776    1.5222509    1.4011183  0.00   -0.0019625   -0.0014810   -0.0126413
h    -3.5189334    0.5654424   -1.3852013  0.00    0.0288040    0.0143061    0.0272627
h    -2.3903236    0.1595579   -0.2621029  0.00   12.9405735   18.8965346   -6.9155701
o    -2.4608635    3.8390640    0.6986927  0.00   -0.0035049   -0.1553047   -0.0604929
o    -1.4085446    2.0280064   -0.3331441  0.00   -0.0656316   -0.0853722    0.0037319
h    -1.7381685    1.1149649   -0.6118064  0.00  -13.4397702  -19.0430052    6.9871902
    13
 Energy =       1.9880292611
c    -3.7178666    1.7364521    0.3530025  0.00    0.0051529   -0.0097432   -0.0001470
c    -2.5315904    2.6895808    0.2393626  0.00    0.0166944    0.1420883    0.0391501
c    -4.9575663    2.3256008   -0.3656476  0.00    0.0024954    0.0112049    0.0047636
h    -5.2421997    1.7296884   -1.2567126  0.00    0.0052580   -0.0015618    0.0003613
h    -4.7720005    3.3613857   -0.7198112  0.00    0.0041641   -0.0053924    0.0007469
h    -5.8368522    2.3574321    0.3057991  0.00    0.0011856    0.0029865   -0.0060946
n    -3.3568973    0.3975687   -0.2196178  0.00    0.3644478    0.1284529   -0.0485578
h    -3.9249243    1.6283819    1.4395958  0.00   -0.0017104   -0.0007834   -0.0048998
h    -3.5245032    0.4066893   -1.2549456  0.00    0.0203938    0.0112647    0.0024942
h    -2.3354978    0.2198328   -0.2250406  0.00    9.7147584   14.1936411   -5.1931162
o    -2.5612442    3.9177357    0.7278302  0.00   -0.0037846   -0.1080517   -0.0400659
o    -1.4277448    2.1768011   -0.4090549  0.00   -0.0339263   -0.0422776    0.0007928
h    -1.6660397    1.1950948   -0.5806004  0.00  -10.0951291  -14.3218282    5.2445723
    13
 Energy =       1.1847239052
c    -3.7016500    1.7357216    0.3510466  0.00    0.0050523   -0.0025330    0.0018937
c    -2.5629076    2.7406803    0.2388039  0.00    0.0052318    0.0558008    0.0149577
c    -4.9719647    2.2379601   -0.3942657  0.00   -0.0008915    0.0043591    0.0011721
h    -5.2530453    1.5975018   -1.2573147  0.00    0.0020845   -0.0014298   -0.0016284
h    -4.8356645    3.2699056   -0.7940802  0.00    0.0023382   -0.0001976   -0.0016791
h    -5.8435608    2.2633099    0.2908898  0.00    0.0003526    0.0018172   -0.0035801
n    -3.2822951    0.3931417   -0.1511386  0.00    0.2078311    0.0684538   -0.0053290
h    -3.9158071    1.6629994    1.4427153  0.00   -0.0011347    0.0002971   -0.0012712
h    -3.5665876    0.2743568   -1.1631471  0.00    0.0059350    0.0060297   -0.0185256
h    -2.2676777    0.3145433   -0.2600667  0.00    5.4151465    7.9182622   -2.8939905
o    -2.6721667    3.9837630    0.7929792  0.00   -0.0050582   -0.0393864   -0.0112001
o    -1.4170511    2.3355542   -0.4316114  0.00   -0.0076055   -0.0117178   -0.0013406
h    -1.5645487    1.3328065   -0.6306509  0.00   -5.6292820   -7.9997553    2.9205211
    13
 Energy =       0.9305718104
c    -3.7086661    1.7231525    0.3425961  0.00    0.0038984   -0.0028640    0.0008374
c    -2.5587124    2.7226816    0.2812995  0.00    0.0032438    0.0344028    0.0063021
c    -4.9633245    2.2522930   -0.4102649  0.00   -0.0008369    0.0030538    0.0004899
h    -5.2544865    1.6217082   -1.2768433  0.00    0.0015211   -0.0011186   -0.0013692
h    -4.8047946    3.2837292   -0.8032076  0.00    0.0018392    0.0000946   -0.0014969
h    -5.8379720    2.2911789    0.2715801  0.00    0.0001051    0.0013690   -0.0027985
n    -3.2932674    0.3875110   -0.1751084  0.00    0.1543286    0.0511214   -0.0036663
h    -3.9434173    1.6275313    1.4292323  0.00   -0.0009741    0.0002100   -0.0004331
h    -3.6085507    0.2519203   -1.1725563  0.00    0.0043617    0.0042154   -0.0140291
h    -2.2721666    0.3280907   -0.2997054  0.00    4.0923695    5.9821726   -2.1854244
o    -2.6381026    3.9238180    0.9517324  0.00   -0.0041469   -0.0198075   -0.0022705
o    -1.4181686    2.3603735   -0.4260871  0.00   -0.0041600   -0.0074940   -0.0011766
h    -1.5532976    1.3682561   -0.6785078  0.00   -4.2515497   -6.0453555    2.2050354
    13
 Energy =       0.3191431620
c    -3.6968359    1.6940512    0.3360152  0.00    0.0023366   -0.0009278   -0.0031898
c    -2.5483355    2.7073994    0.3207454  0.00   -0.0086214   -0.0125938    0.0031229
c    -4.9554636    2.2383713   -0.3974993  0.00    0.0040268   -0.0004029   -0.0002904
h    -5.3270286    1.5771368   -1.2123974  0.00   -0.0013542   -0.0015484   -0.0040820
h    -4.7641544    3.2405315   -0.8531571  0.00    0.0013998    0.0031930   -0.0009251
h    -5.7936264    2.3663196    0.3290114  0.00   -0.0039791    0.0009002    0.0032712
n    -3.2954335    0.3603982   -0.1786945  0.00    0.0041688    0.0095983    0.0255871
h    -3.9387614    1.5807862    1.4201090  0.00   -0.0007634   -0.0003957    0.0001960
h    -3.7673038    0.1063922   -1.0966718  0.00   -0.0126356   -0.0059100   -0.0233061
h    -2.2504577    0.3695986   -0.4018740  0.00    1.0936995    1.5529397   -0.5643762
o    -2.6672492    3.8999845    1.0333915  0.00    0.0010667    0.0093173    0.0044966
o    -1.3984991    2.4776031   -0.4420381  0.00    0.0100103    0.0144944    0.0000777
h    -1.4517778    1.5236717   -0.8227805  0.00   -1.0893548   -1.5686643    0.5594180
    13
 Energy =       0.1545272411
c    -3.7037076    1.7099572    0.3184500  0.00   -0.0000185    0.0009074    0.0004672
c    -2.5999783    2.7787029    0.2872212  0.00   -0.0020554    0.0021478    0.0011649
c    -4.9797133    2.1638766   -0.4503239  0.00   -0.0002868    0.0007645   -0.0009043
h    -5.2619558    1.4870862   -1.2865158  0.00   -0.0009519   -0.0022153   -0.0020553
h    -4.8562627    3.1849685   -0.8830401  0.00    0.0009674    0.0017243   -0.0008724
h    -5.8521993    2.2075665    0.2409759  0.00   -0.0029446    0.0012634    0.0005055
n    -3.2558540    0.3631965   -0.1271553  0.00    0.0009829   -0.0038753   -0.0009515
h    -3.9551100    1.6387875    1.4045694  0.00    0.0001951    0.0002848    0.0010808
h    -3.6425325    0.0906126   -1.0597000  0.00   -0.0007975   -0.0001662    0.0023930
h    -2.2083317    0.3437956   -0.2528242  0.00    0.3227665    0.4581628   -0.1702645
o    -2.8219873    3.9973149    0.9248123  0.00   -0.0018964    0.0057789    0.0051942
o    -1.3836763    2.5630783   -0.3669510  0.00    0.0043455   -0.0038545   -0.0024110
h    -1.3336182    1.6133007   -0.7153591  0.00   -0.3203063   -0.4609226    0.1666533
    13
 Energy =       0.1282902565
c    -3.7291084    1.7144904    0.3234889  0.00    0.0023826   -0.0017142   -0.0003552
c    -2.5910163    2.7492195    0.3729707  0.00    0.0027170    0.0009722    0.0001982
c    -4.9259666    2.2047568   -0.5534830  0.00   -0.0018898   -0.0009007   -0.0040373
h    -5.2014207    1.5015597   -1.3683783  0.00   -0.0011099   -0.0007054   -0.0019460
h    -4.7110849    3.1921823   -1.0374208  0.00    0.0002709    0.0060577   -0.0038130
h    -5.8366265    2.3442594    0.0822228  0.00   -0.0071049    0.0015867    0.0039488
n    -3.2879726    0.3463943   -0.0609918  0.00    0.0049816   -0.0008261    0.0081422
h    -4.0737666    1.6644678    1.3891154  0.00   -0.0011416   -0.0006777    0.0050665
h    -3.7312548   -0.0150613   -0.9441644  0.00   -0.0029347   -0.0055338   -0.0078194
h    -2.2504011    0.3162117   -0.2324600  0.00    0.2038117    0.2885480   -0.1067408
o    -2.7935732    3.9388704    1.0682098  0.00   -0.0011081    0.0058147    0.0038784
o    -1.3800613    2.5542548   -0.2947252  0.00    0.0021376    0.0011496    0.0000697
h    -1.3426741    1.6306382   -0.7102247  0.00   -0.2010123   -0.2937712    0.1034079
    13
 Energy =       0.1039422247
c    -3.7491045    1.7136020    0.3252238  0.00    0.0021497   -0.0034419   -0.0007820
c    -2.5744307    2.7007710    0.4484272  0.00    0.0034095   -0.0009438   -0.0010077
c    -4.8689830    2.2567879   -0.6162297  0.00   -0.0017517   -0.0017982   -0.0032027
h    -5.1666261    1.5450760   -1.4141556  0.00   -0.0006401   -0.0002710   -0.0008470
h    -4.5630693    3.2068525   -1.1247129  0.00    0.0004159    0.0060375   -0.0034587
h    -5.7888625    2.4844154   -0.0225124  0.00   -0.0060363    0.0010141    0.0033505
n    -3.3472825    0.3298494   -0.0352473  0.00    0.0022737    0.0004432    0.0058169
h    -4.1585160    1.6730745    1.3669398  0.00   -0.0008660   -0.0011930    0.0037354
h    -3.8416986   -0.0609300   -0.8754968  0.00   -0.0012551   -0.0041082   -0.0057778
h    -2.3223949    0.2666000   -0.2452751  0.00    0.0992906    0.1411346   -0.0519630
o    -2.7397053    3.8447321    1.2269630  0.00   -0.0008432    0.0073564    0.0042298
o    -1.3781602    2.5330193   -0.2525235  0.00    0.0005584    0.0042731    0.0017570
h    -1.3560932    1.6483942   -0.7472410  0.00   -0.0967055   -0.1485029    0.0481495
    13
 Energy =       0.0916763676
c    -3.7824802    1.6981284    0.3044533  0.00    0.0007204   -0.0031999   -0.0005237
c    -2.5881084    2.6438006    0.5402159  0.00    0.0027163   -0.0010586   -0.0010056
c    -4.8275977    2.3107373   -0.6779148  0.00   -0.0016705   -0.0009010    0.0008304
h    -5.0649392    1.6616109   -1.5532762  0.00   -0.0023720   -0.0031572   -0.0055480
h    -4.4823040    3.2941442   -1.0902957  0.00    0.0021535    0.0062995   -0.0037146
h    -5.7871978    2.4953865   -0.1379545  0.00   -0.0040314    0.0001331    0.0032170
n    -3.4107679    0.3142276   -0.0850911  0.00   -0.0077108    0.0018816    0.0146196
h    -4.2544126    1.6329369    1.3181084  0.00   -0.0009046   -0.0013958    0.0035568
h    -3.8261132   -0.0016785   -1.0030881  0.00   -0.0076041   -0.0049471   -0.0136586
h    -2.3653254    0.1978109   -0.1706257  0.00    0.0629416    0.0688874   -0.0267710
o    -2.7596665    3.7370677    1.3857161  0.00    0.0006701    0.0063296    0.0033311
o    -1.3665124    2.5011586   -0.1204246  0.00    0.0023966    0.0056498    0.0019948
h    -1.3395015    1.6569131   -0.6756634  0.00   -0.0473051   -0.0745214    0.0236719
    13
 Energy =       0.0881510914
c    -3.7828757    1.6737829    0.2857598  0.00    0.0011764   -0.0002594    0.0004065
c    -2.5957392    2.6153948    0.5673605  0.00    0.0014331   -0.0009911   -0.0006875
c    -4.8428769    2.3327618   -0.6483961  0.00   -0.0002608   -0.0014529    0.0024150
h    -5.0428237    1.7529557   -1.5825155  0.00   -0.0020240   -0.0045822   -0.0074516
h    -4.5344156    3.3650295   -0.9681691  0.00    0.0026814    0.0093624   -0.0045559
h    -5.8147162    2.4298045   -0.1036247  0.00   -0.0054173    0.0004739    0.0047376
n    -3.4139503    0.3121260   -0.1852101  0.00   -0.0059372   -0.0008263    0.0193686
h    -4.2445059    1.5518942    1.2993307  0.00   -0.0010375   -0.0010536    0.0039037
h    -3.7566810    0.0824522   -1.1618412  0.00   -0.0094974   -0.0071162   -0.0202754
h    -2.3689723    0.1684331   -0.1931290  0.00    0.0485473    0.0485633   -0.0189547
o    -2.7890629    3.6800545    1.4431813  0.00    0.0004646    0.0052770    0.0029018
o    -1.3584724    2.5000651   -0.0685364  0.00    0.0025237    0.0048338    0.0015600
h    -1.3098348    1.6774899   -0.6500507  0.00   -0.0326524   -0.0522286    0.0166319
    13
 Energy =       0.0845753986
c    -3.8092951    1.6579725    0.2618760  0.00    0.0004544   -0.0024792   -0.0002397
c    -2.6079575    2.5446815    0.6572300  0.00    0.0026671   -0.0012222   -0.0012013
c    -4.7989658    2.3981576   -0.6896673  0.00   -0.0019846   -0.0009482    0.0000210
h    -4.9705503    1.8733791   -1.6587184  0.00   -0.0020775   -0.0030006   -0.0056518
h    -4.4440869    3.4323544   -0.9394923  0.00    0.0021591    0.0074716   -0.0035675
h    -5.7930942    2.4986025   -0.1924562  0.00   -0.0037835   -0.0000397    0.0029325
n    -3.4654982    0.3090460   -0.2592292  0.00   -0.0055806   -0.0018852    0.0134353
h    -4.3274707    1.4998441    1.2432752  0.00   -0.0011916   -0.0018702    0.0043771
h    -3.7577155    0.1432123   -1.2605926  0.00   -0.0071347   -0.0048342   -0.0146431
h    -2.4332371    0.1149799   -0.2113814  0.00    0.0299253    0.0274742   -0.0114256
o    -2.8100496    3.5488350    1.6019345  0.00    0.0011225    0.0071017    0.0046737
o    -1.3487196    2.4489003    0.0613254  0.00    0.0032364    0.0070847    0.0033717
h    -1.2882865    1.6722790   -0.5799442  0.00   -0.0178124   -0.0328525    0.0079177
    13
 Energy =       0.0836769815
c    -3.8406025    1.6510525    0.2344295  0.00   -0.0004369   -0.0050149   -0.0003565
c    -2.6273994    2.4661651    0.7477886  0.00    0.0031629   -0.0002858    0.0003422
c    -4.7366266    2.4768260   -0.7442466  0.00   -0.0036641   -0.0006787   -0.0028236
h    -4.8834651    1.9951059   -1.7383773  0.00   -0.0023633   -0.0018814   -0.0051351
h    -4.3141130    3.4981024   -0.9384526  0.00    0.0025349    0.0082926   -0.0036233
h    -5.7512723    2.6148964   -0.2991400  0.00   -0.0046995   -0.0000811    0.0024145
n    -3.5289147    0.3083326   -0.3213748  0.00   -0.0058796   -0.0026372    0.0101120
h    -4.4279967    1.4752782    1.1747426  0.00   -0.0020523   -0.0030905    0.0056559
h    -3.7920580    0.1853821   -1.3344789  0.00   -0.0054144   -0.0038233   -0.0114735
h    -2.5113853    0.0644490   -0.2428394  0.00    0.0212291    0.0170672   -0.0078670
o    -2.8491528    3.4246263    1.7344816  0.00    0.0018605    0.0070795    0.0047766
o    -1.3365659    2.3616872    0.2200785  0.00    0.0065362    0.0079710    0.0034730
h    -1.2553746    1.6203404   -0.4584517  0.00   -0.0108134   -0.0229175    0.0045047
    13
 Energy =       0.0842840797
c    -3.8522056    1.6525914    0.2153409  0.00   -0.0010723   -0.0045174    0.0000614
c    -2.6339665    2.4309236    0.7760120  0.00    0.0012285    0.0002844    0.0014904
c    -4.7117665    2.5206068   -0.7596082  0.00   -0.0038812   -0.0005081   -0.0028164
h    -4.8509494    2.0652190   -1.7669983  0.00   -0.0023495   -0.0017380   -0.0050549
h    -4.2637799    3.5362609   -0.9225761  0.00    0.0025550    0.0081949   -0.0034640
h    -5.7309313    2.6711725   -0.3298987  0.00   -0.0044611   -0.0000951    0.0021854
n    -3.5659314    0.3142402   -0.3648180  0.00   -0.0061783   -0.0030962    0.0094842
h    -4.4620144    1.4699175    1.1396340  0.00   -0.0019713   -0.0031116    0.0054271
h    -3.8149703    0.2194457   -1.3841526  0.00   -0.0051760   -0.0035513   -0.0111015
h    -2.5595591    0.0362434   -0.2744694  0.00    0.0192063    0.0141297   -0.0068381
o    -2.8719026    3.3978637    1.7502770  0.00    0.0013637    0.0065388    0.0044871
o    -1.3205593    2.2886944    0.3102249  0.00    0.0091975    0.0074040    0.0024920
h    -1.2163906    1.5390652   -0.3548080  0.00   -0.0084613   -0.0199340    0.0036473
    13
 Energy =       0.0854876619
c    -3.8603997    1.6524312    0.1912973  0.00   -0.0017475   -0.0035130    0.0006706
c    -2.6406125    2.3957179    0.7996365  0.00   -0.0019027    0.0009821    0.0028923
c    -4.6933872    2.5664753   -0.7648241  0.00   -0.0041485   -0.0002594   -0.0024297
h    -4.8217174    2.1496692   -1.7905357  0.00   -0.0023671   -0.0017678   -0.0054375
h    -4.2302802    3.5814295   -0.8843137  0.00    0.0026633    0.0083076   -0.0033104
h    -5.7169943    2.7149959   -0.3461334  0.00   -0.0040972   -0.0001339    0.0020132
n    -3.5979839    0.3263305   -0.4288051  0.00   -0.0064911   -0.0040788    0.0091549
h    -4.4860823    1.4526165    1.1009861  0.00   -0.0018412   -0.0030912    0.0052387
h    -3.8306360    0.2714296   -1.4550327  0.00   -0.0051546   -0.0033298   -0.0114553
h    -2.6049733    0.0113967   -0.3306991  0.00    0.0166838    0.0107287   -0.0059089
o    -2.8990042    3.3831927    1.7480493  0.00    0.0003815    0.0064159    0.0045854
o    -1.3041045    2.2048789    0.4129953  0.00    0.0130428    0.0072627    0.0019375
h    -1.1687514    1.4316802   -0.2184610  0.00   -0.0050216   -0.0175232    0.0020492
    13
 Energy =       0.0869999758
c    -3.8601584    1.6483686    0.1698145  0.00   -0.0018066   -0.0023036    0.0011323
c    -2.6435025    2.3740639    0.8084125  0.00   -0.0042586    0.0012531    0.0035532
c    -4.6929665    2.5965187   -0.7529223  0.00   -0.0040498    0.0000315   -0.0018610
h    -4.8134493    2.2207502   -1.7956411  0.00   -0.0022372   -0.0018497   -0.0058266
h    -4.2337789    3.6172462   -0.8304423  0.00    0.0026563    0.0082915   -0.0031195
h    -5.7188583    2.7246582   -0.3337292  0.00   -0.0038390   -0.0001031    0.0020051
n    -3.6077357    0.3424613   -0.4979825  0.00   -0.0059486   -0.0051345    0.0086346
h    -4.4863594    1.4203339    1.0721937  0.00   -0.0017690   -0.0029007    0.0051337
h    -3.8348711    0.3273065   -1.5267685  0.00   -0.0049450   -0.0031809   -0.0115802
h    -2.6231205    0.0053966   -0.4088065  0.00    0.0135337    0.0078236   -0.0054500
o    -2.9200149    3.3874927    1.7243940  0.00   -0.0005890    0.0065651    0.0048286
o    -1.2921535    2.1424648    0.4934453  0.00    0.0147715    0.0081400    0.0025659
h    -1.1279580    1.3351824   -0.0878080  0.00   -0.0015188   -0.0166324   -0.0000159
    13
 Energy =       0.0879927142
c    -3.8565264    1.6435919    0.1574130  0.00   -0.0016109   -0.0016685    0.0012110
c    -2.6439227    2.3652318    0.8089488  0.00   -0.0047038    0.0012283    0.0034855
c    -4.6993764    2.6082271   -0.7384822  0.00   -0.0037196    0.0002400   -0.0015925
h    -4.8203750    2.2579872   -1.7896715  0.00   -0.0020341   -0.0017440   -0.0055832
h    -4.2472969    3.6329876   -0.7931553  0.00    0.0024578    0.0077343   -0.0028611
h    -5.7242296    2.7201099   -0.3128500  0.00   -0.0035768   -0.0000545    0.0019041
n    -3.6031777    0.3547920   -0.5435798  0.00   -0.0053483   -0.0052460    0.0079048
h    -4.4773941    1.3921427    1.0568395  0.00   -0.0017093   -0.0026623    0.0048885
h    -3.8373929    0.3631049   -1.5703525  0.00   -0.0045150   -0.0029543   -0.0109116
h    -2.6193845    0.0145210   -0.4725806  0.00    0.0115238    0.0061699   -0.0051076
o    -2.9306144    3.3950687    1.7031412  0.00   -0.0008792    0.0062454    0.0046245
o    -1.2870151    2.1120394    0.5363106  0.00    0.0141443    0.0082009    0.0028068
h    -1.1082212    1.2824398   -0.0078216  0.00   -0.0000290   -0.0154890   -0.0007693
    13
 Energy =       0.0885746676
c    -3.8535820    1.6398050    0.1496955  0.00   -0.0014465   -0.0013196    0.0011598
c    -2.6449124    2.3602203    0.8094504  0.00   -0.0045688    0.0011662    0.0032454
c    -4.7037439    2.6135459   -0.7286433  0.00   -0.0033679    0.0003321   -0.0014107
h    -4.8287522    2.2777684   -1.7835611  0.00   -0.0018402   -0.0015897   -0.0051392
h    -4.2547982    3.6394659   -0.7720663  0.00    0.0022256    0.0070248   -0.0025880
h    -5.7263623    2.7177602   -0.2965884  0.00   -0.0032645   -0.0000289    0.0017395
n    -3.5967061    0.3633051   -0.5724976  0.00   -0.0048988   -0.0049521    0.0071934
h    -4.4708568    1.3720746    1.0463587  0.00   -0.0015995   -0.0024241    0.0045271
h    -3.8406260    0.3847171   -1.5962115  0.00   -0.0040869   -0.0026839   -0.0100453
h    -2.6114157    0.0264467   -0.5181902  0.00    0.0101780    0.0051178   -0.0047240
o    -2.9382906    3.3991477    1.6904411  0.00   -0.0009161    0.0057400    0.0042582
o    -1.2856901    2.0950769    0.5633218  0.00    0.0130467    0.0077071    0.0027039
h    -1.0991906    1.2529102    0.0426504  0.00    0.0005388   -0.0140896   -0.0009202
    13
 Energy =       0.0889537501
c    -3.8512785    1.6367924    0.1441144  0.00   -0.0013048   -0.0010844    0.0010769
c    -2.6461948    2.3566487    0.8102083  0.00   -0.0042882    0.0010909    0.0029766
c    -4.7066167    2.6165889   -0.7216353  0.00   -0.0030357    0.0003658   -0.0012587
h    -4.8363800    2.2901367   -1.7783849  0.00   -0.0016618   -0.0014387   -0.0046798
h    -4.2588154    3.6425350   -0.7587495  0.00    0.0020069    0.0063412   -0.0023319
h    -5.7268161    2.7171064   -0.2838314  0.00   -0.0029627   -0.0000144    0.0015742
n    -3.5904826    0.3697753   -0.5931978  0.00   -0.0045039   -0.0045665    0.0065336
h    -4.4662159    1.3568471    1.0381030  0.00   -0.0014747   -0.0021988    0.0041459
h    -3.8438365    0.3995323   -1.6138129  0.00   -0.0036940   -0.0024200   -0.0091780
h    -2.6032926    0.0381489   -0.5531074  0.00    0.0091040    0.0043429   -0.0043359
o    -2.9446132    3.4015035    1.6819650  0.00   -0.0008852    0.0052231    0.0038780
o    -1.2858475    2.0834588    0.5833527  0.00    0.0119117    0.0070856    0.0025098
h    -1.0945370    1.2331701    0.0791353  0.00    0.0007883   -0.0127267   -0.0009107
    13
 Energy =       0.0892158970
c    -3.8493962    1.6343435    0.1397793  0.00   -0.0011783   -0.0009100    0.0009873
c    -2.6475033    2.3539122    0.8109857  0.00   -0.0039688    0.0010107    0.0027124
c    -4.7086526    2.6185197   -0.7163111  0.00   -0.0027314    0.0003707   -0.0011260
h    -4.8430696    2.2986446   -1.7740024  0.00   -0.0014991   -0.0012991   -0.0042438
h    -4.2611454    3.6440677   -0.7495458  0.00    0.0018079    0.0057138   -0.0020984
h    -5.7265341    2.7171717   -0.2734516  0.00   -0.0026831   -0.0000055    0.0014207
n    -3.5848093    0.3749911   -0.6090667  0.00   -0.0041370   -0.0041710    0.0059270
h    -4.4626732    1.3447388    1.0313035  0.00   -0.0013496   -0.0019901    0.0037762
h    -3.8467660    0.4105042   -1.6267619  0.00   -0.0033370   -0.0021758   -0.0083542
h    -2.5957824    0.0490115   -0.5810600  0.00    0.0081849    0.0037343   -0.0039615
o    -2.9499090    3.4031391    1.6756089  0.00   -0.0008325    0.0047342    0.0035169
o    -1.2866176    2.0746019    0.5992943  0.00    0.0108293    0.0064534    0.0022944
h    -1.0920683    1.2185982    0.1073873  0.00    0.0008947   -0.0114655   -0.0008510
    13
 Energy =       0.0894032663
c    -3.8478064    1.6323199    0.1362821  0.00   -0.0010642   -0.0007741    0.0008994
c    -2.6487307    2.3517551    0.8116809  0.00   -0.0036466    0.0009302    0.0024630
c    -4.7101899    2.6198012   -0.7120850  0.00   -0.0024558    0.0003609   -0.0010086
h    -4.8489047    2.3048324   -1.7702457  0.00   -0.0013515   -0.0011720   -0.0038402
h    -4.2626169    3.6448027   -0.7427931  0.00    0.0016282    0.0051451   -0.0018874
h    -5.7259354    2.7174989   -0.2647938  0.00   -0.0024273   -0.0000000    0.0012809
n    -3.5797050    0.3793355   -0.6217158  0.00   -0.0037919   -0.0037915    0.0053712
h    -4.4598100    1.3348315    1.0255919  0.00   -0.0012297   -0.0017988    0.0034287
h    -3.8493675    0.4190027   -1.6367223  0.00   -0.0030133   -0.0019539   -0.0075866
h    -2.5890237    0.0589086   -0.6040439  0.00    0.0073753    0.0032396   -0.0036085
o    -2.9543680    3.4044741    1.6704492  0.00   -0.0007729    0.0042828    0.0031828
o    -1.2876414    2.0674443    0.6124705  0.00    0.0098232    0.0058487    0.0020812
h    -1.0908273    1.2072371    0.1300847  0.00    0.0009265   -0.0103171   -0.0007759
    13
 Energy =       0.0895399953
c    -3.8464329    1.6306273    0.1333951  0.00   -0.0009608   -0.0006649    0.0008163
c    -2.6498395    2.3500325    0.8122635  0.00   -0.0033361    0.0008522    0.0022318
c    -4.7114098    2.6206645   -0.7086283  0.00   -0.0022074    0.0003434   -0.0009043
h    -4.8540070    2.3094937   -1.7669880  0.00   -0.0012179   -0.0010566   -0.0034706
h    -4.2636309    3.6450880   -0.7376309  0.00    0.0014662    0.0046318   -0.0016974
h    -5.7252162    2.7178854   -0.2574465  0.00   -0.0021940    0.0000035    0.0011544
n    -3.5751292    0.3830258   -0.6320520  0.00   -0.0034678   -0.0034370    0.0048636
h    -4.4574003    1.3265701    1.0207399  0.00   -0.0011175   -0.0016243    0.0031068
h    -3.8516590    0.4257753   -1.6446050  0.00   -0.0027203   -0.0017538   -0.0068784
h    -2.5829967    0.0678538   -0.6232807  0.00    0.0066529    0.0028286   -0.0032797
o    -2.9581372    3.4056904    1.6660367  0.00   -0.0007125    0.0038702    0.0028771
o    -1.2887512    2.0614530    0.6236266  0.00    0.0088987    0.0052851    0.0018792
h    -1.0903169    1.1980845    0.1487293  0.00    0.0009166   -0.0092781   -0.0006987
    13
 Energy =       0.0896412120
c    -3.8452272    1.6291980    0.1309745  0.00   -0.0008672   -0.0005754    0.0007392
c    -2.6508214    2.3486489    0.8127323  0.00   -0.0030435    0.0007780    0.0020193
c    -4.7124161    2.6212418   -0.7057390  0.00   -0.0019839    0.0003222   -0.0008114
h    -4.8584895    2.3130879   -1.7641364  0.00   -0.0010972   -0.0009523   -0.0031339
h    -4.2643940    3.6451071   -0.7335659  0.00    0.0013202    0.0041691   -0.0015264
h    -5.7244733    2.7182425   -0.2511312  0.00   -0.0019820    0.0000056    0.0010402
n    -3.5710300    0.3862012   -0.6406443  0.00   -0.0031649   -0.0031103    0.0044008
h    -4.4553132    1.3195879    1.0165875  0.00   -0.0010135   -0.0014657    0.0028112
h    -3.8536755    0.4312782   -1.6509679  0.00   -0.0024551   -0.0015739   -0.0062289
h    -2.5776386    0.0759066   -0.6395876  0.00    0.0060039    0.0024820   -0.0029759
o    -2.9613342    3.4068680    1.6621324  0.00   -0.0006539    0.0034950    0.0025989
o    -1.2898631    2.0563216    0.6332345  0.00    0.0080542    0.0047667    0.0016919
h    -1.0902511    1.1905543    0.1642705  0.00    0.0008830   -0.0083410   -0.0006250
    13
 Energy =       0.0897169367
c    -3.8441564    1.6279822    0.1289223  0.00   -0.0007824   -0.0005008    0.0006684
c    -2.6516805    2.3475355    0.8130972  0.00   -0.0027711    0.0007085    0.0018252
c    -4.7132719    2.6216165   -0.7032845  0.00   -0.0017831    0.0002996   -0.0007283
h    -4.8624479    2.3159039   -1.7616211  0.00   -0.0009883   -0.0008580   -0.0028281
h    -4.2650171    3.6449656   -0.7302931  0.00    0.0011888    0.0037524   -0.0013727
h    -5.7237549    2.7185345   -0.2456489  0.00   -0.0017896    0.0000068    0.0009371
n    -3.5673564    0.3889578   -0.6478772  0.00   -0.0028833   -0.0028113    0.0039797
h    -4.4534678    1.3136271    1.0130154  0.00   -0.0009179   -0.0013220    0.0025411
h    -3.8554538    0.4358125   -1.6561789  0.00   -0.0022152   -0.0014126   -0.0056355
h    -2.5728777    0.0831412   -0.6535448  0.00    0.0054191    0.0021863   -0.0026967
o    -2.9640537    3.4080402    1.6586000  0.00   -0.0005984    0.0031547    0.0023464
o    -1.2909341    2.0518568    0.6416148  0.00    0.0072853    0.0042937    0.0015205
h    -1.0904548    1.1842703    0.1773583  0.00    0.0008361   -0.0074973   -0.0005569
    13
 Energy =       0.0897740537
c    -3.8431973    1.6269418    0.1271677  0.00   -0.0007056   -0.0004380    0.0006037
c    -2.6524262    2.3466404    0.8133715  0.00   -0.0025195    0.0006438    0.0016484
c    -4.7140173    2.6218441   -0.7011731  0.00   -0.0016027    0.0002767   -0.0006541
h    -4.8659605    2.3181348   -1.7593890  0.00   -0.0008900   -0.0007729   -0.0025510
h    -4.2655615    3.6447272   -0.7276125  0.00    0.0010704    0.0033772   -0.0012345
h    -5.7230847    2.7187509   -0.2408520  0.00   -0.0016152    0.0000075    0.0008442
n    -3.5640620    0.3913662   -0.6540247  0.00   -0.0026226   -0.0025389    0.0035970
h    -4.4518122    1.3084985    1.0099304  0.00   -0.0008304   -0.0011919    0.0022952
h    -3.8570273    0.4395882   -1.6604944  0.00   -0.0019983   -0.0012679   -0.0050950