    24
 Energy =       0.1431510935
c     1.6703672    2.6182922    0.2614132  0.00    0.0451627    0.0678116    0.0349901
c     0.3248649    2.9356558    0.1418766  0.00   -0.0084233    0.1013183    0.0376559
c    -0.5827484    1.9945952   -0.3219261  0.00   -0.0877212    0.0440427   -0.0018277
c     2.1038063    1.3347474   -0.0833024  0.00    0.0673723   -0.0109942    0.0077179
c     1.2047783    0.3610782   -0.5608861  0.00    0.0162945   -0.1007790   -0.0386545
c    -0.1441045    0.7159142   -0.6796715  0.00   -0.0286782   -0.0495782   -0.0315836
o    -0.1504797    4.1703171    0.4675790  0.00   -0.0615735   -0.0485866    0.0198039
h    -0.7850651    4.0755150    1.1967033  0.00    0.0570150   -0.0066551   -0.0488182
h    -0.8895274    0.0262790   -1.0546636  0.00   -0.0009441    0.0068136   -0.0067716
h     3.1621727    1.0964802    0.0165124  0.00    0.0028697   -0.0002121   -0.0002478
h     2.3926004    3.3457758    0.6178375  0.00    0.0097195   -0.0072876   -0.0005624
h    -1.6336796    2.2563998   -0.4108671  0.00   -0.0022543   -0.0012287    0.0017839
c     1.7669373   -1.0073413   -0.8964724  0.00   -0.0341753    0.0258604   -0.0329107
c     0.8861134   -2.0194266   -1.6556448  0.00    0.0855348    0.0454254    0.1169544
h     2.1212937   -1.4658931    0.0371405  0.00   -0.0006844    0.0102299   -0.0098571
h     2.6645729   -0.8285312   -1.5058794  0.00   -0.0140696    0.0016487    0.0079579
c     0.2877588   -1.3395944   -2.9073099  0.00   -0.3071675   -0.0860280   -0.2236549
o    -0.7378043   -1.6681139   -3.4822380  0.00    0.2494786    0.0741082    0.1276283
o     1.0840955   -0.3212778   -3.3324246  0.00    0.0212483   -0.0291048    0.0770824
h     0.4857958    0.4654474   -3.4016114  0.00    0.0117778   -0.0316855    0.0288338
n     1.5974427   -3.2508470   -2.1301054  0.00    0.0103059   -0.0470952   -0.0920925
h     0.0358579   -2.3311629   -1.0380560  0.00    0.0133372   -0.0001323   -0.0138284
h     1.3459883   -3.4027164   -3.1136797  0.00   -0.0035875    0.0419388    0.0371554
h     2.6013787   -3.0583561   -2.1544800  0.00   -0.0408372    0.0001699    0.0032454
    24
 Energy =       0.1198775715
c     1.6941557    2.5967755    0.2504438  0.00    0.0335214    0.0501999    0.0260590
c     0.3567023    2.9149764    0.1595531  0.00   -0.0064786    0.0748462    0.0275840
c    -0.5535848    1.9817430   -0.2869268  0.00   -0.0651771    0.0328182   -0.0017101
c     2.1216013    1.3267584   -0.1072192  0.00    0.0499566   -0.0082031    0.0060303
c     1.2204845    0.3668655   -0.5723975  0.00    0.0116227   -0.0746516   -0.0296664
c    -0.1249928    0.7140337   -0.6546162  0.00   -0.0211212   -0.0368780   -0.0249085
o    -0.0968520    4.1606663    0.5035082  0.00   -0.0452735   -0.0359829    0.0132208
h    -0.7125861    4.0852926    1.2664088  0.00    0.0419177   -0.0047580   -0.0346339
h    -0.8751232    0.0209224   -1.0163241  0.00   -0.0003648    0.0042714   -0.0053625
h     3.1821592    1.0898356   -0.0320748  0.00    0.0024363   -0.0002458   -0.0001297
h     2.4160367    3.3286912    0.5982362  0.00    0.0072271   -0.0053922   -0.0003819
h    -1.6053090    2.2461844   -0.3552603  0.00   -0.0018866   -0.0008524    0.0012787
c     1.7739026   -0.9939898   -0.9552237  0.00   -0.0255493    0.0202551   -0.0253074
c     0.8442938   -1.9772910   -1.6916883  0.00    0.0607309    0.0373436    0.0864883
h     2.1565127   -1.4774182   -0.0404583  0.00    0.0000222    0.0072108   -0.0067088
h     2.6505134   -0.8159162   -1.6037242  0.00   -0.0098695    0.0013353    0.0049642
c     0.2846250   -1.3184598   -2.9657953  0.00   -0.2294035   -0.0587293   -0.1652256
o    -0.7746917   -1.6937512   -3.5416059  0.00    0.1844154    0.0552786    0.0955186
o     1.0559953   -0.2991073   -3.4464921  0.00    0.0601029   -0.0760320    0.0425975
h     0.5003249    0.5535622   -3.2428583  0.00   -0.0329456    0.0278212    0.0384544
n     1.5071458   -3.2608412   -2.0794568  0.00    0.0014674   -0.0394529   -0.0666001
h    -0.0276182   -2.2204338   -1.0617789  0.00    0.0077088    0.0000064   -0.0086548
h     1.2824743   -3.4655998   -3.0671727  0.00   -0.0026189    0.0305476    0.0250518
h     2.5362464   -3.1602624   -2.0472327  0.00   -0.0204410   -0.0007564    0.0020422
    24
 Energy =       0.0986546047
c     1.7210846    2.5976683    0.1711440  0.00    0.0210578    0.0325175    0.0175069
c     0.3960525    2.9258706    0.0901165  0.00   -0.0034554    0.0436081    0.0186323
c    -0.5259147    1.9859905   -0.2888638  0.00   -0.0426463    0.0195778   -0.0012331
c     2.1310530    1.3228803   -0.1451124  0.00    0.0325755   -0.0052679    0.0041271
c     1.2206342    0.3651309   -0.5601648  0.00    0.0071694   -0.0475066   -0.0205945
c    -0.1178253    0.7109089   -0.6165531  0.00   -0.0132476   -0.0245970   -0.0176391
o    -0.0172556    4.2171900    0.3502178  0.00   -0.0225427   -0.0173996   -0.0022403
h    -0.5910281    4.2440458    1.1708410  0.00    0.0204494   -0.0019152   -0.0114538
h    -0.8786968    0.0030582   -0.9279929  0.00   -0.0009636    0.0015048   -0.0041015
h     3.1908766    1.0819378   -0.0827842  0.00    0.0017297   -0.0000185    0.0000110
h     2.4506782    3.3463829    0.4669164  0.00    0.0054803   -0.0021552    0.0001890
h    -1.5748364    2.2604308   -0.3519063  0.00   -0.0013197   -0.0005264    0.0008135
c     1.7517011   -1.0183776   -0.9051994  0.00   -0.0174516    0.0126309   -0.0176302
c     0.8144204   -1.9799414   -1.6656266  0.00    0.0379146    0.0250689    0.0549740
h     2.0827368   -1.5055416    0.0325949  0.00    0.0003035    0.0038480   -0.0030852
h     2.6537920   -0.8758401   -1.5346131  0.00   -0.0058329    0.0010185    0.0021008
c     0.2813719   -1.3228329   -2.9420323  0.00   -0.1474851   -0.0372497   -0.1051263
o    -0.8062793   -1.7384227   -3.5366155  0.00    0.1187703    0.0339828    0.0613108
o     1.0144328   -0.2759189   -3.4419055  0.00    0.0435284   -0.0558985    0.0257047
h     0.4130370    0.5563262   -3.3303275  0.00   -0.0255787    0.0252841    0.0283509
n     1.4717086   -3.2756930   -1.9988873  0.00   -0.0027263   -0.0255923   -0.0407412
h    -0.0746267   -2.2019862   -1.0450147  0.00    0.0045649    0.0000617   -0.0053357
h     1.2983263   -3.5058319   -2.9988000  0.00   -0.0019804    0.0198100    0.0135930
h     2.5069726   -3.2141981   -1.8995871  0.00   -0.0083136   -0.0007863    0.0018669
    24
 Energy =       0.0909212644
c     1.6822101    2.6276661    0.1187486  0.00    0.0152641    0.0235175    0.0127646
c     0.3577733    2.9385228    0.0405458  0.00   -0.0025172    0.0313404    0.0137938
c    -0.5500634    1.9873143   -0.3259507  0.00   -0.0307555    0.0143365   -0.0007677
c     2.1049323    1.3583697   -0.1776405  0.00    0.0235260   -0.0036916    0.0031018
c     1.2070260    0.3882375   -0.5712009  0.00    0.0046161   -0.0336309   -0.0152272
c    -0.1309640    0.7164387   -0.6333275  0.00   -0.0094516   -0.0176889   -0.0134219
o    -0.0699911    4.2273162    0.3055595  0.00   -0.0137125   -0.0119285   -0.0068190
h    -0.5807413    4.2544858    1.1750362  0.00    0.0123080   -0.0017949   -0.0033237
h    -0.8833992   -0.0080991   -0.9265222  0.00   -0.0008571    0.0008112   -0.0031520
h     3.1667399    1.1293380   -0.1093040  0.00    0.0013513   -0.0000469    0.0000249
h     2.4001949    3.3902580    0.4059237  0.00    0.0040714   -0.0014289    0.0002010
h    -1.6019342    2.2497210   -0.3880047  0.00   -0.0010286   -0.0003425    0.0005855
c     1.7494691   -1.0035225   -0.8680288  0.00   -0.0129368    0.0089445   -0.0129419
c     0.8335791   -1.9815980   -1.6376130  0.00    0.0264391    0.0192884    0.0399349
h     2.0465890   -1.4710277    0.0933641  0.00    0.0004885    0.0024362   -0.0012941
h     2.6729742   -0.8782025   -1.4731468  0.00   -0.0037089    0.0006232    0.0010429
c     0.3248705   -1.3561472   -2.9365430  0.00   -0.1064565   -0.0260226   -0.0748165
o    -0.7666409   -1.8111864   -3.5459425  0.00    0.0852368    0.0235052    0.0432859
o     1.0502353   -0.3168583   -3.4722560  0.00    0.0368957   -0.0480155    0.0169844
h     0.4198994    0.4996291   -3.4661529  0.00   -0.0238946    0.0262705    0.0221921
n     1.5096834   -3.2804923   -1.9085932  0.00   -0.0042584   -0.0190366   -0.0264627
h    -0.0708802   -2.1931647   -1.0322898  0.00    0.0030034    0.0001699   -0.0036309
h     1.4005206   -3.5370367   -2.9159834  0.00   -0.0015141    0.0133074    0.0061287
h     2.5403334   -3.2267250   -1.7408339  0.00   -0.0021084   -0.0009231    0.0018169
    24
 Energy =       0.0885028655
c     1.6490755    2.6629265    0.0642573  0.00    0.0129765    0.0202756    0.0109696
c     0.3246939    2.9627003   -0.0269990  0.00   -0.0022087    0.0266308    0.0120162
c    -0.5727234    1.9994306   -0.3803023  0.00   -0.0263260    0.0124621   -0.0005206
c     2.0819447    1.3926809   -0.2029407  0.00    0.0201337   -0.0032039    0.0026430
c     1.1940398    0.4097221   -0.5794006  0.00    0.0036757   -0.0282701   -0.0130187
c    -0.1440777    0.7267845   -0.6580862  0.00   -0.0080601   -0.0151790   -0.0116287
o    -0.1137883    4.2541148    0.2138538  0.00   -0.0108508   -0.0094226   -0.0076132
h    -0.5881349    4.3009240    1.1052228  0.00    0.0096311   -0.0017580   -0.0011533
h    -0.8892019   -0.0103430   -0.9383998  0.00   -0.0008369    0.0005413   -0.0027519
h     3.1445360    1.1719802   -0.1211415  0.00    0.0012848   -0.0001059    0.0000248
h     2.3587459    3.4370783    0.3405668  0.00    0.0035357   -0.0010688    0.0002171
h    -1.6258085    2.2538481   -0.4536443  0.00   -0.0009664   -0.0002212    0.0005074
c     1.7462218   -0.9886785   -0.8270342  0.00   -0.0110313    0.0074727   -0.0110430
c     0.8480510   -1.9907454   -1.5887059  0.00    0.0218550    0.0172020    0.0346285
h     2.0227177   -1.4291752    0.1542853  0.00    0.0006130    0.0018171   -0.0004070
h     2.6829025   -0.8793922   -1.4162730  0.00   -0.0028755    0.0004175    0.0006350
c     0.3622298   -1.4059609   -2.9150024  0.00   -0.0907882   -0.0220915   -0.0630577
o    -0.7216597   -1.8928074   -3.5332007  0.00    0.0721104    0.0197307    0.0360289
o     1.0956401   -0.3885322   -3.4855012  0.00    0.0341845   -0.0440095    0.0134479
h     0.4573484    0.4173501   -3.5555782  0.00   -0.0230182    0.0263040    0.0189601
n     1.5350809   -3.2947940   -1.8010505  0.00   -0.0045540   -0.0170802   -0.0207427
h    -0.0684364   -2.1869160   -0.9949076  0.00    0.0023612    0.0002077   -0.0028550
h     1.4752738   -3.5758676   -2.8080929  0.00   -0.0012651    0.0105179    0.0029143
h     2.5577450   -3.2430913   -1.5820808  0.00    0.0004195   -0.0011689    0.0017992
    24
 Energy =       0.0879377798
c     1.6251260    2.6989775    0.0039919  0.00    0.0121295    0.0193133    0.0103665
c     0.3016467    2.9934572   -0.1080057  0.00   -0.0020986    0.0248439    0.0113325
c    -0.5891553    2.0205488   -0.4489901  0.00   -0.0248600    0.0120161   -0.0003968
c     2.0635540    1.4243448   -0.2286453  0.00    0.0190094   -0.0032056    0.0024517
c     1.1822047    0.4309393   -0.5900430  0.00    0.0033426   -0.0261374   -0.0121329
c    -0.1549908    0.7430815   -0.6925791  0.00   -0.0076163   -0.0143576   -0.0109531
o    -0.1424421    4.2899272    0.0980598  0.00   -0.0101618   -0.0080289   -0.0075742
h    -0.6083082    4.3609882    0.9929105  0.00    0.0087585   -0.0016728   -0.0005769
h    -0.8952064   -0.0028857   -0.9625677  0.00   -0.0008661    0.0004476   -0.0025902
h     3.1254822    1.2075998   -0.1280848  0.00    0.0013925   -0.0002159    0.0000249
h     2.3296357    3.4815265    0.2696416  0.00    0.0033376   -0.0008747    0.0002338
h    -1.6419042    2.2711405   -0.5398362  0.00   -0.0010569   -0.0000884    0.0004830
c     1.7389807   -0.9750468   -0.7832154  0.00   -0.0102822    0.0068315   -0.0103964
c     0.8545993   -2.0028316   -1.5276262  0.00    0.0198183    0.0167918    0.0333016
h     1.9971799   -1.3835379    0.2177839  0.00    0.0007613    0.0014153    0.0004012
h     2.6868581   -0.8857773   -1.3587266  0.00   -0.0024082    0.0002738    0.0003185
c     0.3956658   -1.4646604   -2.8837755  0.00   -0.0858564   -0.0213293   -0.0588427
o    -0.6837930   -1.9700020   -3.5018345  0.00    0.0674235    0.0185479    0.0333548
o     1.1509061   -0.4826067   -3.4903534  0.00    0.0333615   -0.0411221    0.0111896
h     0.5238818    0.3263036   -3.6021869  0.00   -0.0223596    0.0259363    0.0176117
n     1.5452523   -3.3142276   -1.6785272  0.00   -0.0042199   -0.0172571   -0.0180972
h    -0.0740114   -2.1772932   -0.9449910  0.00    0.0019716    0.0002210   -0.0023402
h     1.5211520   -3.6256561   -2.6792273  0.00   -0.0010809    0.0091320    0.0010429
h     2.5601022   -3.2610729   -1.4233277  0.00    0.0015606   -0.0014808    0.0017879
    24
 Energy =       0.0838052698
c     1.5759547    2.7130095   -0.0200664  0.00    0.0084686    0.0130685    0.0070480
c     0.2480361    2.9778644   -0.1179135  0.00   -0.0014927    0.0166032    0.0083181
c    -0.6241603    1.9836442   -0.4313038  0.00   -0.0169384    0.0081297   -0.0003715
c     2.0376453    1.4482056   -0.2392199  0.00    0.0130833   -0.0021347    0.0017909
c     1.1741993    0.4344584   -0.5724497  0.00    0.0021522   -0.0176881   -0.0085151
c    -0.1686668    0.7143328   -0.6562365  0.00   -0.0056119   -0.0097306   -0.0077986
o    -0.2208516    4.2685573    0.0832024  0.00   -0.0034849   -0.0044315   -0.0145172
h    -0.5959338    4.3591119    1.0251213  0.00    0.0026628   -0.0013875    0.0081811
h    -0.8957058   -0.0530305   -0.9010261  0.00   -0.0010352   -0.0000718   -0.0019282
h     3.1054722    1.2563324   -0.1525037  0.00    0.0013638   -0.0001440    0.0000790
h     2.2652526    3.5156927    0.2243843  0.00    0.0025996   -0.0001899    0.0002460
h    -1.6830015    2.2114306   -0.5108674  0.00   -0.0010807   -0.0000071    0.0002077
c     1.7566983   -0.9617991   -0.7639318  0.00   -0.0067444    0.0045440   -0.0067165
c     0.8975460   -1.9970706   -1.5318905  0.00    0.0134069    0.0105766    0.0215950
h     2.0034826   -1.3727179    0.2389479  0.00    0.0005053    0.0010121    0.0003963
h     2.7118286   -0.8557555   -1.3259450  0.00   -0.0014394    0.0002299    0.0000483
c     0.4300407   -1.4578670   -2.8834172  0.00   -0.0564468   -0.0093625   -0.0337555
o    -0.5965112   -2.0583352   -3.5501970  0.00    0.0390822    0.0057498    0.0185025
o     1.1218420   -0.4125004   -3.4713040  0.00    0.0556208   -0.0513636    0.0152435
h     0.4065605    0.2928403   -3.7609400  0.00   -0.0434661    0.0438270    0.0032927
n     1.6174528   -3.2914133   -1.6774571  0.00   -0.0070732   -0.0114448   -0.0093201
h    -0.0315895   -2.1963814   -0.9562377  0.00    0.0010205    0.0000880   -0.0013468
h     1.6628477   -3.5794153   -2.6877866  0.00   -0.0002781    0.0046044   -0.0033949
h     2.6139773   -3.2359572   -1.3511176  0.00    0.0051257   -0.0004770    0.0027151
    24
 Energy =       0.0846007800
c     1.5457997    2.7416184   -0.0485334  0.00    0.0077157    0.0118686    0.0063823
c     0.2153397    2.9890293   -0.1495613  0.00   -0.0013616    0.0149574    0.0075889
c    -0.6431689    1.9825754   -0.4587223  0.00   -0.0153843    0.0073682   -0.0003324
c     2.0235371    1.4821948   -0.2593412  0.00    0.0119227   -0.0019484    0.0016322
c     1.1737445    0.4559968   -0.5862502  0.00    0.0019301   -0.0159428   -0.0077919
c    -0.1718818    0.7181012   -0.6742320  0.00   -0.0051660   -0.0088438   -0.0070675
o    -0.2706768    4.2747723    0.0457302  0.00   -0.0030102   -0.0036667   -0.0136231
h    -0.6233666    4.3724092    0.9955243  0.00    0.0022226   -0.0013423    0.0078624
h    -0.8887320   -0.0597495   -0.9149785  0.00   -0.0010304   -0.0001255   -0.0017504
h     3.0935904    1.3043005   -0.1701046  0.00    0.0013381   -0.0001500    0.0000798
h     2.2241629    3.5546033    0.1922235  0.00    0.0024196   -0.0000795    0.0002501
h    -1.7046252    2.1968542   -0.5409641  0.00   -0.0010756    0.0000184    0.0001824
c     1.7762335   -0.9330857   -0.7664795  0.00   -0.0059847    0.0047130   -0.0058759
c     0.9222054   -1.9993267   -1.4994071  0.00    0.0119930    0.0097563    0.0200484
h     2.0477336   -1.3217150    0.2395739  0.00    0.0006057    0.0006714    0.0008305
h     2.7197948   -0.8205283   -1.3472966  0.00   -0.0010394    0.0003987   -0.0000535
c     0.4431931   -1.5110301   -2.8683436  0.00   -0.0461497   -0.0038839   -0.0257313
o    -0.5092833   -2.2170883   -3.5602922  0.00    0.0278481   -0.0010495    0.0114370
o     1.0782144   -0.4342926   -3.4666784  0.00    0.0533029   -0.0457429    0.0136699
h     0.3359671    0.2305082   -3.7741114  0.00   -0.0405614    0.0409990    0.0024419
n     1.6555897   -3.2903537   -1.6041920  0.00   -0.0066231   -0.0110231   -0.0077508
h    -0.0024633   -2.1904802   -0.9138440  0.00    0.0008938   -0.0000625   -0.0011086
h     1.7287046   -3.5974550   -2.6077152  0.00   -0.0001296    0.0037422   -0.0039379
h     2.6428033   -3.2246217   -1.2521601  0.00    0.0053236   -0.0006320    0.0026175
    24
 Energy =       0.0828231609
c     1.5166904    2.7417999   -0.0783003  0.00    0.0071951    0.0115142    0.0060446
c     0.1867513    2.9849010   -0.1931888  0.00   -0.0012401    0.0140731    0.0071747
c    -0.6680283    1.9702758   -0.4841579  0.00   -0.0146510    0.0071888   -0.0003144
c     1.9977196    1.4787278   -0.2574554  0.00    0.0113790   -0.0019813    0.0015592
c     1.1515869    0.4443804   -0.5665805  0.00    0.0013950   -0.0150171   -0.0076544
c    -0.1936203    0.7019996   -0.6672434  0.00   -0.0047993   -0.0086914   -0.0067200
o    -0.3025680    4.2746513   -0.0307777  0.00   -0.0028473   -0.0027857   -0.0134482
h    -0.6465636    4.3984916    0.9192636  0.00    0.0018611   -0.0012170    0.0079551
h    -0.9072524   -0.0836588   -0.8931584  0.00   -0.0010324   -0.0002895   -0.0017177
h     3.0673362    1.3047303   -0.1568366  0.00    0.0013385   -0.0001865    0.0000725
h     2.1920533    3.5615523    0.1476909  0.00    0.0023014    0.0001094    0.0002310
h    -1.7293003    2.1809438   -0.5777723  0.00   -0.0010897    0.0000961    0.0001345
c     1.7519121   -0.9512171   -0.7062095  0.00   -0.0063036    0.0049816   -0.0052293
c     0.9294048   -2.0036450   -1.4957609  0.00    0.0111341    0.0083315    0.0186949
h     1.9563996   -1.3435476    0.3162736  0.00    0.0010810    0.0000746    0.0029596
h     2.7325409   -0.8507747   -1.2290813  0.00    0.0011491    0.0004912   -0.0011149
c     0.5031991   -1.4850452   -2.8706888  0.00   -0.0421682   -0.0031141   -0.0228371
o    -0.4962268   -2.1185738   -3.5725387  0.00    0.0228414   -0.0038000    0.0091149
o     1.2042743   -0.4377997   -3.4535029  0.00    0.0537031   -0.0417589    0.0122750
h     0.4947202    0.2449134   -3.7945496  0.00   -0.0397590    0.0398755    0.0016625
n     1.6658551   -3.2925541   -1.5972755  0.00   -0.0087997   -0.0101594   -0.0058224
h    -0.0187899   -2.2067000   -0.9508978  0.00   -0.0000988   -0.0003505   -0.0004425
h     1.7895924   -3.5727895   -2.6051536  0.00   -0.0000051    0.0029115   -0.0062358
h     2.6347296   -3.2378249   -1.1922543  0.00    0.0074156   -0.0002960    0.0036582
    24
 Energy =       0.0805149683
c     1.5123059    2.7142509   -0.0325109  0.00    0.0068852    0.0111486    0.0058160
c     0.1812022    2.9558585   -0.1349712  0.00   -0.0012183    0.0134803    0.0068764
c    -0.6733184    1.9429362   -0.4311086  0.00   -0.0141371    0.0070030   -0.0003012
c     1.9949306    1.4546743   -0.2305839  0.00    0.0109647   -0.0020035    0.0015023
c     1.1489354    0.4226788   -0.5467679  0.00    0.0014506   -0.0142875   -0.0073253
c    -0.1976025    0.6781470   -0.6319651  0.00   -0.0046760   -0.0083049   -0.0064497
o    -0.3097440    4.2426556    0.0465138  0.00   -0.0027332   -0.0025035   -0.0132084
h    -0.6369635    4.3584653    1.0035446  0.00    0.0016596   -0.0011301    0.0079395
h    -0.9111168   -0.1067640   -0.8614885  0.00   -0.0010537   -0.0002185   -0.0016172
h     3.0657276    1.2821486   -0.1410036  0.00    0.0013389   -0.0002291    0.0000749
h     2.1873037    3.5328756    0.1983179  0.00    0.0021959    0.0001266    0.0002246
h    -1.7357608    2.1522077   -0.5142632  0.00   -0.0011088    0.0001262    0.0001239
c     1.7494018   -0.9701109   -0.7158351  0.00   -0.0060304    0.0055609   -0.0048703
c     0.9337929   -1.9948721   -1.5491669  0.00    0.0108373    0.0085129    0.0187333
h     1.9386073   -1.3928859    0.2977916  0.00    0.0010720   -0.0001221    0.0034263
h     2.7372165   -0.8571489   -1.2225263  0.00    0.0012952    0.0006507   -0.0011851
c     0.5036639   -1.4189627   -2.8999131  0.00   -0.0351223   -0.0001931   -0.0187000
o    -0.5688716   -1.9598207   -3.5811246  0.00    0.0150319   -0.0068743    0.0041483
o     1.2401997   -0.3872948   -3.4690187  0.00    0.0528864   -0.0395785    0.0120361
h     0.5504584    0.3046152   -3.8292585  0.00   -0.0386806    0.0386199    0.0012323
n     1.6760063   -3.2760385   -1.7036510  0.00   -0.0080681   -0.0111144   -0.0048308
h    -0.0133312   -2.2244674   -1.0119431  0.00   -0.0002797   -0.0005572   -0.0000543
h     1.7908242   -3.5204968   -2.7224162  0.00    0.0002023    0.0024011   -0.0071352
h     2.6485482   -3.2294143   -1.3068075  0.00    0.0072881   -0.0005135    0.0035437
    24
 Energy =       0.0774627843
c     1.5226039    2.6866645    0.0162523  0.00    0.0060691    0.0099153    0.0051090
c     0.1893393    2.9248507   -0.0571395  0.00   -0.0012156    0.0116201    0.0059592
c    -0.6659934    1.9144482   -0.3552019  0.00   -0.0125610    0.0064450   -0.0002530
c     2.0067024    1.4336111   -0.2144578  0.00    0.0097710   -0.0020967    0.0012969
c     1.1593590    0.4049564   -0.5340963  0.00    0.0014597   -0.0122500   -0.0063220
c    -0.1894750    0.6559109   -0.5859614  0.00   -0.0043472   -0.0072016   -0.0056485
o    -0.3033530    4.2063621    0.1587217  0.00   -0.0021885   -0.0016919   -0.0132813
h    -0.5862482    4.3130295    1.1315556  0.00    0.0008666   -0.0008147    0.0087614
h    -0.9045343   -0.1276250   -0.8152409  0.00   -0.0009784   -0.0001251   -0.0013894
h     3.0799187    1.2641597   -0.1500043  0.00    0.0014932   -0.0003548    0.0000692
h     2.1980394    3.5039521    0.2496839  0.00    0.0019129    0.0001288    0.0002022
h    -1.7307612    2.1208291   -0.4143911  0.00   -0.0012542    0.0002556    0.0001102
c     1.7615697   -0.9811814   -0.7522054  0.00   -0.0051002    0.0048498   -0.0044132
c     0.9331619   -1.9821654   -1.6021546  0.00    0.0100645    0.0087388    0.0173601
h     1.9679240   -1.4332147    0.2455257  0.00    0.0010463   -0.0003437    0.0036167
h     2.7404487   -0.8508043   -1.2718679  0.00    0.0013503    0.0005091   -0.0012577
c     0.4641042   -1.3591856   -2.9187260  0.00   -0.0207936    0.0033420   -0.0115871
o    -0.7027467   -1.8010675   -3.5310801  0.00    0.0008640   -0.0100075   -0.0030760
o     1.2203222   -0.3528509   -3.5083657  0.00    0.0477631   -0.0344331    0.0115316
h     0.5461362    0.3292927   -3.9056261  0.00   -0.0346066    0.0344661    0.0003933
n     1.6806964   -3.2520495   -1.8184840  0.00   -0.0072764   -0.0111860   -0.0030585
h     0.0014556   -2.2366830   -1.0479699  0.00   -0.0006411   -0.0004756    0.0004757
h     1.7547049   -3.4728685   -2.8469310  0.00    0.0004326    0.0015724   -0.0080558
h     2.6690411   -3.2051343   -1.4619914  0.00    0.0078696   -0.0008623    0.0034571
    24
 Energy =       0.0742101891
c     1.4986286    2.6628104    0.0564911  0.00    0.0047182    0.0073150    0.0037567
c     0.1614435    2.8822277    0.0184583  0.00   -0.0011751    0.0082346    0.0044523
c    -0.6847971    1.8645685   -0.2735629  0.00   -0.0094991    0.0050666   -0.0002175
c     1.9956534    1.4221224   -0.2043723  0.00    0.0075055   -0.0019970    0.0009569
c     1.1564757    0.3872606   -0.5183459  0.00    0.0016657   -0.0088098   -0.0045727
c    -0.1960866    0.6177406   -0.5307809  0.00   -0.0037508   -0.0050651   -0.0041020
o    -0.3451593    4.1530686    0.2683514  0.00   -0.0011296   -0.0005172   -0.0138107
h    -0.5601861    4.2575035    1.2598818  0.00   -0.0003318   -0.0004990    0.0104250
h    -0.9047399   -0.1735805   -0.7527382  0.00   -0.0009373    0.0000417   -0.0009623
h     3.0726881    1.2681974   -0.1694744  0.00    0.0016557   -0.0004620    0.0000599
h     2.1665150    3.4869601    0.2861624  0.00    0.0014723    0.0001152    0.0001680
h    -1.7537754    2.0559103   -0.3040663  0.00   -0.0014475    0.0003697    0.0000748
c     1.7699316   -0.9866506   -0.7791490  0.00   -0.0034794    0.0037302   -0.0033567
c     0.9469860   -1.9620814   -1.6641607  0.00    0.0082178    0.0072863    0.0133950
h     1.9755131   -1.4698588    0.2035216  0.00    0.0008010   -0.0004508    0.0031650
h     2.7488537   -0.8350274   -1.2924028  0.00    0.0011494    0.0004418   -0.0011161
c     0.4613107   -1.2907338   -2.9493182  0.00   -0.0092797    0.0039147   -0.0061586
o    -0.7674349   -1.6423144   -3.5078619  0.00   -0.0074645   -0.0095150   -0.0059282
o     1.2440782   -0.3149746   -3.5569303  0.00    0.0387331   -0.0269421    0.0105702
h     0.5966935    0.3418406   -4.0226539  0.00   -0.0280903    0.0281586   -0.0015112
n     1.7079612   -3.2133208   -1.9330473  0.00   -0.0062558   -0.0098665    0.0002439
h     0.0225951   -2.2495481   -1.1130403  0.00   -0.0007591   -0.0006122    0.0008850
h     1.8165073   -3.3741346   -2.9706089  0.00    0.0006677    0.0001777   -0.0096954
h     2.6827605   -3.1847489   -1.5405084  0.00    0.0070135   -0.0001154    0.0032789
    24
 Energy =       0.0710323176
c     1.4470317    2.6491909    0.0801774  0.00    0.0036741    0.0045973    0.0023961
c     0.1049774    2.8362030    0.0827515  0.00   -0.0011361    0.0049637    0.0030425
c    -0.7236654    1.8013840   -0.1928623  0.00   -0.0065627    0.0034403   -0.0002050
c     1.9662642    1.4244901   -0.2045445  0.00    0.0053992   -0.0016169    0.0006678
c     1.1435953    0.3733337   -0.5012159  0.00    0.0019172   -0.0056042   -0.0029801
c    -0.2130843    0.5698587   -0.4708808  0.00   -0.0032918   -0.0030463   -0.0025183
o    -0.4251213    4.0924101    0.3609079  0.00   -0.0005942    0.0006511   -0.0128040
h    -0.5711307    4.2004747    1.3646552  0.00   -0.0009174   -0.0004009    0.0105012
h    -0.9079723   -0.2377871   -0.6776570  0.00   -0.0010640    0.0000198   -0.0006163
h     3.0475021    1.2969894   -0.2022529  0.00    0.0019365   -0.0004676    0.0000606
h     2.1004863    3.4880247    0.2974050  0.00    0.0012118    0.0002222    0.0001660
h    -1.7976873    1.9668660   -0.1912697  0.00   -0.0017820    0.0004042    0.0000339
c     1.7759330   -0.9854020   -0.7913232  0.00   -0.0020102    0.0027736   -0.0019075
c     0.9729427   -1.9364424   -1.7207586  0.00    0.0060525    0.0048841    0.0084342
h     1.9663922   -1.4967117    0.1793436  0.00    0.0005126   -0.0004134    0.0025023
h     2.7626943   -0.8134092   -1.2823993  0.00    0.0010822    0.0004466   -0.0009699
c     0.4926916   -1.2227457   -2.9826599  0.00   -0.0021743    0.0023906   -0.0015826
o    -0.7797654   -1.4835613   -3.4967693  0.00   -0.0115313   -0.0080663   -0.0060193
o     1.3174355   -0.2972363   -3.6162095  0.00    0.0308583   -0.0194224    0.0097583
h     0.7119930    0.3264928   -4.1669887  0.00   -0.0217160    0.0226745   -0.0045797
n     1.7524215   -3.1662459   -2.0255094  0.00   -0.0073042   -0.0073807    0.0033503
h     0.0472516   -2.2566160   -1.1897799  0.00   -0.0008641   -0.0008554    0.0010940
h     1.9173998   -3.2645891   -3.0646239  0.00    0.0010397   -0.0008084   -0.0115571
h     2.7038304   -3.1617350   -1.5776917  0.00    0.0072642    0.0006145    0.0037326
    24
 Energy =       0.0684850711
c     1.3745412    2.6467380    0.0767367  0.00    0.0036410    0.0028189    0.0014524
c     0.0279567    2.7895286    0.1289270  0.00   -0.0011695    0.0029974    0.0021168
c    -0.7759798    1.7272733   -0.1119852  0.00   -0.0050589    0.0018402   -0.0002405
c     1.9227955    1.4391864   -0.2215520  0.00    0.0044147   -0.0007694    0.0005933
c     1.1237614    0.3610212   -0.4817400  0.00    0.0020762   -0.0036619   -0.0020772
c    -0.2361261    0.5125166   -0.4019433  0.00   -0.0034523   -0.0018931   -0.0013490
o    -0.5323051    4.0290818    0.4247563  0.00   -0.0006630    0.0014183   -0.0100266
h    -0.6226556    4.1463242    1.4328015  0.00   -0.0008450   -0.0004269    0.0085491
h    -0.9103944   -0.3199004   -0.5797525  0.00   -0.0015802   -0.0003574   -0.0004799
h     3.0075079    1.3476274   -0.2584835  0.00    0.0025785   -0.0002855    0.0000830
h     2.0076957    3.5080337    0.2664376  0.00    0.0014464    0.0006523    0.0002270
h    -1.8546536    1.8575046   -0.0719074  0.00   -0.0024491    0.0002962    0.0000085
c     1.7804616   -0.9819232   -0.7861256  0.00   -0.0011487    0.0022595   -0.0004361
c     1.0107187   -1.9080601   -1.7682602  0.00    0.0041616    0.0025244    0.0044217
h     1.9413708   -1.5188029    0.1756389  0.00    0.0003153   -0.0003615    0.0022039
h     2.7823376   -0.7928031   -1.2393333  0.00    0.0014223    0.0004898   -0.0010233
c     0.5558495   -1.1558411   -3.0153283  0.00    0.0006582    0.0005999    0.0010731
o    -0.7417737   -1.3286869   -3.5028798  0.00   -0.0118747   -0.0062382   -0.0048922
o     1.4283316   -0.2877203   -3.6683732  0.00    0.0237498   -0.0127384    0.0079973
h     0.8707462    0.3041427   -4.2926748  0.00   -0.0156239    0.0172494   -0.0062266
n     1.8116718   -3.1170649   -2.0931861  0.00   -0.0064747   -0.0049055    0.0037319
h     0.0754667   -2.2575420   -1.2732049  0.00   -0.0011433   -0.0012232    0.0012265
h     2.0244113   -3.1673692   -3.1261816  0.00    0.0010772   -0.0009552   -0.0100862
h     2.7406800   -3.1300275   -1.6025422  0.00    0.0059421    0.0006700    0.0031530
    24
 Energy =       0.0669452870
c     1.3054768    2.6483186    0.0508896  0.00    0.0038385    0.0021910    0.0009867
c    -0.0421955    2.7516897    0.1502328  0.00   -0.0010618    0.0023345    0.0016729