    13
 Energy =       0.0848864220
c    -3.7133889    1.6950595    0.3173519  0.00   -0.1152651    0.0644921    0.0626777
c    -2.4962693    2.6345192    0.2419999  0.00    0.3708292   -0.0457753   -0.1654503
c    -4.9565486    2.3924193   -0.2155699  0.00    0.0208949    0.0225294    0.0199718
h    -5.3251685    1.8809395   -1.1121297  0.00    0.0120495    0.0020838    0.0117786
h    -4.7411586    3.4296290   -0.4944269  0.00    0.0109795   -0.0194432    0.0080620
h    -5.7692484    2.3924493    0.5188399  0.00    0.0081548    0.0009314   -0.0144424
n    -3.4097890    0.4519539   -0.4549189  0.00    0.0797798   -0.0314073   -0.0384086
h    -3.8575589    1.4177196    1.3669296  0.00   -0.0016494   -0.0053523   -0.0237650
h    -3.4845290    0.6754588   -1.4528996  0.00   -0.0041863    0.0007701    0.0394275
h    -2.4188593    0.2248379   -0.3273229  0.00   -0.0351147    0.0326840   -0.0071318
o    -1.4178396    2.3555893   -0.2533479  0.00   -0.2718131    0.0586319    0.1208630
o    -2.7764392    3.8468189    0.7908148  0.00   -0.0507577   -0.0417742   -0.0069495
h    -1.9782694    4.4042887    0.6111318  0.00   -0.0239015   -0.0383705   -0.0066331
    13
 Energy =       0.0714805391
c    -3.7069678    1.7170922    0.2998747  0.00   -0.0947640    0.0546467    0.0524731
c    -2.5179335    2.6817670    0.1870385  0.00    0.3076518   -0.0370431   -0.1377076
c    -4.9795535    2.3639472   -0.2349935  0.00    0.0171218    0.0187574    0.0165087
h    -5.3560701    1.8163663   -1.1106596  0.00    0.0094987    0.0013000    0.0091226
h    -4.7949345    3.4037081   -0.5419603  0.00    0.0096802   -0.0152178    0.0066152
h    -5.7767590    2.3651791    0.5203274  0.00    0.0065761    0.0007032   -0.0116982
n    -3.3976579    0.4447790   -0.4170102  0.00    0.0658298   -0.0291936   -0.0279623
h    -3.8273254    1.4875946    1.3684426  0.00   -0.0011704   -0.0047261   -0.0182501
h    -3.5153839    0.5996988   -1.4306098  0.00   -0.0044449    0.0012721    0.0273970
h    -2.3943949    0.2422324   -0.3047782  0.00   -0.0282005    0.0271862   -0.0055207
o    -1.4149241    2.3973093   -0.3235622  0.00   -0.2251354    0.0477295    0.0995776
o    -2.7773224    3.8946793    0.7544578  0.00   -0.0790726   -0.0540966   -0.0074902
h    -1.8858399    4.3873298    0.7698849  0.00    0.0164294   -0.0113179   -0.0030650
    13
 Energy =       0.0682742945
c    -3.7183142    1.7315927    0.3089448  0.00   -0.0825098    0.0518263    0.0478500
c    -2.5180631    2.6842114    0.2222657  0.00    0.2757335   -0.0339448   -0.1248155
c    -4.9571525    2.3818663   -0.3155445  0.00    0.0140802    0.0182672    0.0133108
h    -5.3045564    1.8223702   -1.1967593  0.00    0.0078781    0.0010806    0.0077032
h    -4.7388008    3.4119462   -0.6432339  0.00    0.0084979   -0.0127354    0.0053754
h    -5.7941058    2.4221535    0.4001193  0.00    0.0040502    0.0008357   -0.0090685
n    -3.3954321    0.4150754   -0.3278195  0.00    0.0560416   -0.0326515   -0.0051127
h    -3.8970237    1.5580478    1.3842995  0.00   -0.0013672   -0.0046168   -0.0132334
h    -3.6308036    0.4409456   -1.3479538  0.00   -0.0089866    0.0028369    0.0005776
h    -2.3686356    0.2702070   -0.3004691  0.00   -0.0158209    0.0250738   -0.0027270
o    -1.3999002    2.3913401   -0.2877445  0.00   -0.2014941    0.0422731    0.0892294
o    -2.7590314    3.8942398    0.8087460  0.00   -0.0709235   -0.0482115   -0.0063776
h    -1.8632475    4.3776870    0.8316016  0.00    0.0148207   -0.0100337   -0.0027118
    13
 Energy =       0.0701120803
c    -3.7288861    1.7484223    0.3299906  0.00   -0.0785121    0.0546747    0.0476716
c    -2.5168530    2.6889768    0.2492751  0.00    0.2716861   -0.0340153   -0.1234973
c    -4.9280196    2.3893596   -0.3896684  0.00    0.0127500    0.0197364    0.0114778
h    -5.2416148    1.8056296   -1.2681941  0.00    0.0065694    0.0014678    0.0067844
h    -4.6761680    3.4018650   -0.7528838  0.00    0.0079099   -0.0112342    0.0044322
h    -5.8024169    2.4773740    0.2802522  0.00    0.0017750    0.0012131   -0.0071990
n    -3.3918030    0.3871311   -0.2150915  0.00    0.0543179   -0.0376465    0.0127117
h    -3.9632313    1.6407031    1.4066515  0.00   -0.0018672   -0.0047981   -0.0094509
h    -3.7282303    0.2821925   -1.2143652  0.00   -0.0145810    0.0002646   -0.0206181
h    -2.3554251    0.2916925   -0.2756908  0.00   -0.0068099    0.0259730   -0.0012444
o    -1.3982737    2.3877140   -0.2609067  0.00   -0.1980233    0.0412853    0.0876566
o    -2.7554524    3.9094184    0.8154020  0.00   -0.0698111   -0.0471094   -0.0060670
h    -1.8586927    4.3912041    0.8316812  0.00    0.0145962   -0.0098115   -0.0026577
    13
 Energy =       0.0659574965
c    -3.7064921    1.7270411    0.3038653  0.00   -0.0697150    0.0534032    0.0449228
c    -2.5072817    2.6822331    0.2250224  0.00    0.2515519   -0.0322652   -0.1148126
c    -4.9613651    2.3934062   -0.2997027  0.00    0.0106979    0.0211367    0.0084267
h    -5.3333565    1.8478008   -1.1835747  0.00    0.0046015    0.0012484    0.0041259
h    -4.7464122    3.4296133   -0.6227303  0.00    0.0064844   -0.0086820    0.0031039
h    -5.7877809    2.4351207    0.4390054  0.00   -0.0015861    0.0016042   -0.0036488
n    -3.3919739    0.4042686   -0.3416372  0.00    0.0539566   -0.0408419    0.0149157
h    -3.8746190    1.5473237    1.3884948  0.00   -0.0021727   -0.0050439   -0.0040680
h    -3.7208583    0.3861376   -1.3520145  0.00   -0.0142464   -0.0009990   -0.0253170
h    -2.3565274    0.2940928   -0.4035956  0.00   -0.0061060    0.0238591   -0.0011400
o    -1.3762721    2.3901547   -0.2868456  0.00   -0.1824710    0.0383897    0.0810009
o    -2.7389082    3.8909072    0.8240204  0.00   -0.0644941   -0.0427975   -0.0051081
h    -1.8432195    4.3735832    0.8461445  0.00    0.0134990   -0.0090118   -0.0024013
    13
 Energy =       0.0626823834
c    -3.7289644    1.7361158    0.2998854  0.00   -0.0649728    0.0504898    0.0425432
c    -2.5279949    2.6866090    0.2496913  0.00    0.2381663   -0.0304378   -0.1087341
c    -4.9576628    2.3918848   -0.3671295  0.00    0.0097832    0.0208774    0.0074405
h    -5.2888508    1.8296728   -1.2589081  0.00    0.0039413    0.0008712    0.0030259
h    -4.7299099    3.4241921   -0.6963482  0.00    0.0060207   -0.0080341    0.0027846
h    -5.8163146    2.4419528    0.3353894  0.00   -0.0024353    0.0016445   -0.0027234
n    -3.3927546    0.4073886   -0.3160990  0.00    0.0388393   -0.0376066    0.0237319
h    -3.9406982    1.5739210    1.3809993  0.00   -0.0021892   -0.0048281   -0.0027260
h    -3.6083363    0.4117470   -1.3628712  0.00   -0.0160239   -0.0004833   -0.0353731
h    -2.3536063    0.2545041   -0.2448424  0.00    0.0094925    0.0197182    0.0004583
o    -1.3886203    2.3924966   -0.2580874  0.00   -0.1724060    0.0364468    0.0764815
o    -2.7543965    3.8864841    0.8700539  0.00   -0.0610943   -0.0402586   -0.0046794
h    -1.8569572    4.3647143    0.9047186  0.00    0.0128784   -0.0083995   -0.0022299
    13
 Energy =       0.0457981758
c    -3.7420205    1.7296007    0.2553632  0.00   -0.0220323    0.0180560    0.0132301
c    -2.5612822    2.6966916    0.3156806  0.00    0.0821269   -0.0122220   -0.0423462
c    -4.9761182    2.3776840   -0.4107750  0.00    0.0041723    0.0073792    0.0021165
h    -5.3043784    1.8211049   -1.3117381  0.00    0.0011487    0.0001678    0.0010886
h    -4.7682831    3.4271179   -0.7136956  0.00    0.0030232   -0.0020928    0.0013659
h    -5.8320269    2.3967699    0.2973659  0.00   -0.0011520    0.0005362   -0.0006113
n    -3.4012914    0.4453507   -0.4099733  0.00   -0.0072109   -0.0146294    0.0290942
h    -3.9808269    1.5169079    1.3252961  0.00   -0.0012610   -0.0018871    0.0007970
h    -3.4495832    0.5486195   -1.4760984  0.00   -0.0110160    0.0011308   -0.0415982
h    -2.3880300    0.2049270   -0.1838937  0.00    0.0281453    0.0060272    0.0077021
o    -1.3471447    2.3984837   -0.2003312  0.00   -0.0592493    0.0123849    0.0286276
o    -2.7436819    3.8796730    1.0080755  0.00   -0.0213361   -0.0113820    0.0010936
h    -1.8503993    4.3587521    1.0411762  0.00    0.0046412   -0.0034688   -0.0005599
    13
 Energy =       0.0444403377
c    -3.7622144    1.7240593    0.2292557  0.00   -0.0165588    0.0120414    0.0092762
c    -2.5619137    2.6608329    0.3797340  0.00    0.0606791   -0.0087683   -0.0318526
c    -4.9589010    2.4258577   -0.4560364  0.00    0.0022495    0.0051195    0.0011368
h    -5.2726976    1.9090593   -1.3873542  0.00    0.0002163   -0.0002633   -0.0003287
h    -4.7166522    3.4815621   -0.7154186  0.00    0.0025463   -0.0000743    0.0004935
h    -5.8366694    2.4405102    0.2257201  0.00   -0.0013303    0.0001947   -0.0000730
n    -3.4313001    0.4598668   -0.4747850  0.00   -0.0071246   -0.0121928    0.0227057
h    -4.0456477    1.4734362    1.2814927  0.00   -0.0010794   -0.0021413    0.0023154
h    -3.4371165    0.6029658   -1.5320009  0.00   -0.0087468    0.0008939   -0.0330980
h    -2.4372839    0.1791215   -0.2268279  0.00    0.0224144    0.0041791    0.0061423
o    -1.3288862    2.3522429   -0.1126732  0.00   -0.0422207    0.0095851    0.0213792
o    -2.7288987    3.8165281    1.1254164  0.00   -0.0159081   -0.0071980    0.0019097
h    -1.8268855    4.2756402    1.1999293  0.00    0.0048632   -0.0013757   -0.0000066
    13
 Energy =       0.0447199617
c    -3.7863031    1.7240063    0.2061903  0.00   -0.0157029    0.0093628    0.0085079
c    -2.5596046    2.6137396    0.4375878  0.00    0.0581733   -0.0087021   -0.0307126
c    -4.9311484    2.4905719   -0.5043429  0.00    0.0007827    0.0046339    0.0004332
h    -5.2269080    2.0167113   -1.4653950  0.00   -0.0006602   -0.0005080   -0.0016041
h    -4.6416626    3.5465980   -0.7186521  0.00    0.0028831    0.0018833   -0.0001818
h    -5.8353674    2.5131529    0.1432059  0.00   -0.0020999   -0.0000608    0.0004162
n    -3.4719472    0.4687230   -0.5219478  0.00   -0.0076804   -0.0122533    0.0213772
h    -4.1205352    1.4509275    1.2393224  0.00   -0.0012492   -0.0029315    0.0036989
h    -3.4605864    0.6300433   -1.5753822  0.00   -0.0082404    0.0008917   -0.0317362
h    -2.4886367    0.1590328   -0.2678100  0.00    0.0217980    0.0034968    0.0060366
o    -1.3206181    2.2874235   -0.0333681  0.00   -0.0388751    0.0095762    0.0203156
o    -2.7080511    3.7367417    1.2383613  0.00   -0.0159390   -0.0056695    0.0027920
h    -1.7936980    4.1640113    1.3586825  0.00    0.0068099    0.0002804    0.0006571
    13
 Energy =       0.0437420662
c    -3.7542332    1.7098245    0.2163698  0.00   -0.0143752    0.0065714    0.0086803
c    -2.5839697    2.6837829    0.4133484  0.00    0.0523694   -0.0089512   -0.0281850
c    -4.9654176    2.3899508   -0.4788878  0.00   -0.0016831    0.0039717   -0.0007956
h    -5.2437401    1.8866917   -1.4308497  0.00   -0.0013862   -0.0005810   -0.0018670
h    -4.7547196    3.4643339   -0.7071406  0.00    0.0028855    0.0048452   -0.0009475
h    -5.8595636    2.3543998    0.1843471  0.00   -0.0036805   -0.0000899    0.0009980
n    -3.3721846    0.4724610   -0.5099400  0.00   -0.0074338   -0.0132460    0.0184850
h    -4.0499326    1.4236124    1.2579847  0.00   -0.0013625   -0.0035750    0.0039555
h    -3.3426013    0.6464271   -1.5593560  0.00   -0.0067643    0.0003913   -0.0288459
h    -2.3827564    0.2014611   -0.2365445  0.00    0.0209397    0.0023384    0.0055883
o    -1.3228975    2.4179106   -0.0491942  0.00   -0.0318943    0.0086396    0.0172904
o    -2.8005675    3.8316964    1.1671015  0.00   -0.0168018   -0.0028449    0.0043063
h    -1.9124832    4.3191309    1.2692135  0.00    0.0091871    0.0025306    0.0013372
    13
 Energy =       0.0424491309
c    -3.7499872    1.7177710    0.2366572  0.00   -0.0124473    0.0050109    0.0067439
c    -2.5658693    2.6884153    0.3578241  0.00    0.0425858   -0.0083036   -0.0236939
c    -4.9858333    2.3825024   -0.4264729  0.00    0.0000013    0.0027763   -0.0001466
h    -5.3201943    1.8340780   -1.3382201  0.00   -0.0021387   -0.0020525   -0.0041564
h    -4.7715543    3.4415130   -0.7187849  0.00    0.0031791    0.0058358   -0.0012207
h    -5.8449031    2.3936161    0.2853626  0.00   -0.0049995   -0.0003304    0.0026695
n    -3.4066560    0.4654428   -0.4794021  0.00   -0.0071684   -0.0116197    0.0145641
h    -4.0040111    1.4580883    1.2964096  0.00   -0.0014339   -0.0030788    0.0044800
h    -3.3502512    0.6451922   -1.5241611  0.00   -0.0055622    0.0007565   -0.0239357
h    -2.4335381    0.1595581   -0.1908508  0.00    0.0182032    0.0013175    0.0048493
o    -1.3191981    2.3797160   -0.1308071  0.00   -0.0242510    0.0065121    0.0133928
o    -2.7445787    3.8773649    1.0584372  0.00   -0.0151556   -0.0002563    0.0049712
h    -1.8484922    4.3584250    1.1104604  0.00    0.0091871    0.0034320    0.0014825
    13
 Energy =       0.0408644865
c    -3.7388299    1.7208946    0.2516995  0.00   -0.0067803    0.0020336    0.0035030
c    -2.5628577    2.7027151    0.3132405  0.00    0.0247787   -0.0067177   -0.0150608
c    -5.0058097    2.3560063   -0.3755075  0.00    0.0004265    0.0013526    0.0000899
h    -5.3800960    1.7680970   -1.2470016  0.00   -0.0020597   -0.0022211   -0.0042468
h    -4.8105959    3.4009416   -0.7223544  0.00    0.0024318    0.0048417   -0.0011559
h    -5.8281135    2.3954888    0.3766120  0.00   -0.0041444   -0.0004645    0.0027497
n    -3.4125297    0.4701867   -0.4663136  0.00   -0.0067137   -0.0070485    0.0106867
h    -3.9505768    1.4724575    1.3221280  0.00   -0.0010081   -0.0020081    0.0034505
h    -3.2969606    0.6751111   -1.4977284  0.00   -0.0034079    0.0015101   -0.0168053
h    -2.4680303    0.1240977   -0.1409354  0.00    0.0131429    0.0001719    0.0037434
o    -1.3148237    2.3642468   -0.1726684  0.00   -0.0134168    0.0028932    0.0074122
o    -2.7341009    3.9320571    0.9435740  0.00   -0.0097078    0.0024890    0.0043506
h    -1.8417420    4.4193827    0.9517073  0.00    0.0064588    0.0031679    0.0012828
    13
 Energy =       0.0399711668
c    -3.7295963    1.7245021    0.2623422  0.00   -0.0022522    0.0000105    0.0010632
c    -2.5590639    2.7102793    0.2779262  0.00    0.0094937   -0.0054741   -0.0083028
c    -5.0190811    2.3404240   -0.3316608  0.00   -0.0001786    0.0003350   -0.0003884
h    -5.4048633    1.7448598   -1.1898409  0.00   -0.0008344   -0.0010338   -0.0019821
h    -4.8507668    3.3841913   -0.6877290  0.00    0.0011356    0.0023925   -0.0006092
h    -5.8201084    2.3720044    0.4400782  0.00   -0.0021216   -0.0002057    0.0013830
n    -3.4219553    0.4748165   -0.4592451  0.00   -0.0063969   -0.0032482    0.0068711
h    -3.9064994    1.4852369    1.3396161  0.00   -0.0005446   -0.0009855    0.0020481
h    -3.2417411    0.6987105   -1.4740460  0.00   -0.0015798    0.0019831   -0.0106066
h    -2.5129870    0.0832928   -0.0939687  0.00    0.0090393   -0.0008462    0.0029562
o    -1.2961446    2.3274289   -0.1535807  0.00   -0.0031006   -0.0016574    0.0020500
o    -2.7361462    3.9845212    0.8136064  0.00   -0.0058138    0.0065778    0.0046391
h    -1.8461134    4.4714153    0.7929542  0.00    0.0031541    0.0021520    0.0008783
    13
 Energy =       0.0396218646
c    -3.7192022    1.7299286    0.2728539  0.00   -0.0018643    0.0000691    0.0009500
c    -2.5645285    2.7319728    0.2398358  0.00   -0.0011078   -0.0011026   -0.0014258
c    -5.0289956    2.3154711   -0.3043680  0.00   -0.0002309    0.0000622   -0.0001936
h    -5.4261328    1.6948983   -1.1389892  0.00   -0.0007545   -0.0008315   -0.0015905
h    -4.8833149    3.3520402   -0.6886644  0.00    0.0008034    0.0019165   -0.0005535
h    -5.8113512    2.3552339    0.4849132  0.00   -0.0014052   -0.0002037    0.0010137
n    -3.4115733    0.4721603   -0.4325265  0.00   -0.0041659   -0.0022076    0.0039632
h    -3.8685445    1.5107547    1.3582686  0.00   -0.0003055   -0.0007519    0.0016587
h    -3.2108671    0.6879086   -1.4428646  0.00   -0.0008366    0.0013164   -0.0061414
h    -2.5134239    0.0776638   -0.0510714  0.00    0.0053187   -0.0005354    0.0017108
o    -1.3292854    2.3911258   -0.3123339  0.00    0.0077064   -0.0035619   -0.0032263
o    -2.7273078    3.9880407    0.8161742  0.00   -0.0081315    0.0034429    0.0038294
h    -1.8505397    4.4944844    0.7352244  0.00    0.0049738    0.0023874    0.0000054
    13
 Energy =       0.0393761509
c    -3.7159660    1.7385152    0.2772885  0.00    0.0003037    0.0001304   -0.0002153
c    -2.5725491    2.7471634    0.2185106  0.00   -0.0008425    0.0006154    0.0006562
c    -5.0320400    2.3001199   -0.3026808  0.00   -0.0000316   -0.0000675    0.0000125
h    -5.4169924    1.6685752   -1.1322792  0.00    0.0001315    0.0000687    0.0002095
h    -4.9052098    3.3344758   -0.6931939  0.00   -0.0001152   -0.0002080    0.0000729
h    -5.8137972    2.3325830    0.4848634  0.00    0.0002285    0.0000723   -0.0002070
n    -3.4043636    0.4718825   -0.4075456  0.00   -0.0033502    0.0005510    0.0015904
h    -3.8574879    1.5412450    1.3663234  0.00    0.0000709    0.0000263   -0.0000832
h    -3.1344864    0.6800613   -1.4015481  0.00    0.0006850    0.0009296   -0.0025414
h    -2.5454107    0.0505317    0.0269949  0.00    0.0025324   -0.0011381    0.0010750
o    -1.3592225    2.4236619   -0.3780864  0.00   -0.0000328    0.0001294    0.0002669
o    -2.7248646    3.9975571    0.7985110  0.00    0.0000517   -0.0011900   -0.0008517
h    -1.8626766    4.5153109    0.6792944  0.00    0.0003686    0.0000806    0.0000152
    13
 Energy =       0.0393767638
c    -3.7136168    1.7436977    0.2852347  0.00    0.0003380    0.0002700   -0.0001097
c    -2.5768146    2.7588521    0.2078017  0.00   -0.0007418    0.0003251    0.0004902
c    -5.0327155    2.2848872   -0.3077145  0.00   -0.0000965   -0.0000342    0.0000886
h    -5.4123316    1.6341780   -1.1252331  0.00    0.0000249   -0.0000785   -0.0000138
h    -4.9122899    3.3123006   -0.7187639  0.00   -0.0001181    0.0000399   -0.0000335
h    -5.8157639    2.3278300    0.4781547  0.00    0.0001855    0.0000723   -0.0001248
n    -3.3926665    0.4655016   -0.3739948  0.00   -0.0031869    0.0000420    0.0013522
h    -3.8552772    1.5672028    1.3780203  0.00    0.0000871   -0.0000173    0.0001445
h    -3.1219809    0.6557585   -1.3713517  0.00    0.0006574    0.0008856   -0.0025614
h    -2.5322813    0.0579145    0.0706325  0.00    0.0024614   -0.0011401    0.0010924
o    -1.3591056    2.4300335   -0.3770152  0.00    0.0000555   -0.0000185    0.0001588
o    -2.7396331    4.0212900    0.7592912  0.00   -0.0000461   -0.0005136   -0.0005156
h    -1.8805899    4.5422366    0.6313903  0.00    0.0003796    0.0001672    0.0000321
    13
 Energy =       0.0394143245
c    -3.7108548    1.7461099    0.2919488  0.00    0.0004903    0.0000653   -0.0001444
c    -2.5772521    2.7644027    0.2020280  0.00   -0.0025190   -0.0009255    0.0005470
c    -5.0334662    2.2750005   -0.3047790  0.00   -0.0001255   -0.0000318    0.0000854
h    -5.4112642    1.6141349   -1.1150379  0.00   -0.0000070   -0.0001121   -0.0000675
h    -4.9185357    3.2987054   -0.7267712  0.00   -0.0000734    0.0001175   -0.0000385
h    -5.8156050    2.3225558    0.4817327  0.00    0.0001676    0.0000649   -0.0000975
n    -3.3861652    0.4622991   -0.3545256  0.00   -0.0029453   -0.0000962    0.0012039
h    -3.8500115    1.5805796    1.3867407  0.00    0.0000925   -0.0000195    0.0001858
h    -3.1117774    0.6436715   -1.3523277  0.00    0.0006128    0.0008185   -0.0023739
h    -2.5274501    0.0593583    0.0973528  0.00    0.0022677   -0.0010465    0.0010084
o    -1.3329481    2.4073388   -0.3115138  0.00    0.0033842   -0.0023686   -0.0016476
o    -2.7660812    4.0552526    0.6813021  0.00   -0.0017944    0.0033631    0.0013428
h    -1.9036553    4.5722740    0.5603024  0.00    0.0004497    0.0001709   -0.0000036
    13
 Energy =       0.0393781133
c    -3.7235782    1.7580428    0.2977180  0.00    0.0007409    0.0011481    0.0004384
c    -2.5866388    2.7725737    0.2122370  0.00   -0.0009925   -0.0001947    0.0001860
c    -5.0233513    2.2687926   -0.3650760  0.00   -0.0004650    0.0005297   -0.0005539
h    -5.3758656    1.5778903   -1.1625395  0.00   -0.0002386   -0.0004179   -0.0007818
h    -4.8892125    3.2755400   -0.8227201  0.00   -0.0002800    0.0008897   -0.0005215
h    -5.8325895    2.3500415    0.3926841  0.00   -0.0008408    0.0002566    0.0009177
n    -3.3770250    0.4508266   -0.2909928  0.00   -0.0015357   -0.0017677    0.0003749
h    -3.9027047    1.6316578    1.3933166  0.00   -0.0001265   -0.0000742    0.0015886
h    -3.0752698    0.5944668   -1.2870830  0.00    0.0006618    0.0003907   -0.0024450
h    -2.5309779    0.0676273    0.1997571  0.00    0.0020316   -0.0011012    0.0009917
o    -1.3542281    2.4265284   -0.3333249  0.00    0.0017363   -0.0011010   -0.0007483
o    -2.7667495    4.0541397    0.7149473  0.00   -0.0008807    0.0013806    0.0005650
h    -1.9068760    4.5735555    0.5875284  0.00    0.0001893    0.0000612   -0.0000118
    13
 Energy =       0.0393421265
c    -3.7309782    1.7633438    0.2958427  0.00    0.0005105    0.0003238    0.0001373
c    -2.5924485    2.7759869    0.2172042  0.00   -0.0029361   -0.0008802    0.0007055
c    -5.0170272    2.2674212   -0.3956852  0.00   -0.0002337    0.0002790   -0.0003353
h    -5.3579756    1.5663021   -1.1886496  0.00   -0.0001215   -0.0001695   -0.0003551
h    -4.8716711    3.2667239   -0.8647402  0.00   -0.0000914    0.0004240   -0.0001910
h    -5.8386183    2.3609213    0.3464428  0.00   -0.0004277    0.0001130    0.0004730
n    -3.3759894    0.4486649   -0.2686402  0.00   -0.0006046   -0.0008868    0.0000845
h    -3.9297819    1.6514752    1.3890017  0.00   -0.0000483   -0.0000218    0.0007599
h    -3.0644800    0.5772184   -1.2629629  0.00    0.0002750    0.0001674   -0.0009888
h    -2.5348642    0.0756200    0.2360829  0.00    0.0008333   -0.0004331    0.0003874
o    -1.3896300    2.4596019   -0.4119072  0.00    0.0048888   -0.0029575   -0.0029538
o    -2.7477924    4.0314248    0.7930026  0.00   -0.0023889    0.0040061    0.0023894
h    -1.8938099    4.5569785    0.6514605  0.00    0.0003445    0.0000355   -0.0001130
    13
 Energy =       0.0392961793
c    -3.7489628    1.7785347    0.2996826  0.00    0.0011681    0.0016799    0.0005953
c    -2.6049084    2.7852530    0.2334486  0.00   -0.0012743   -0.0004380    0.0004717
c    -5.0003502    2.2581671   -0.4726556  0.00   -0.0007814    0.0011349   -0.0013112
h    -5.3048996    1.5268125   -1.2542511  0.00   -0.0004227   -0.0005767   -0.0012270
h    -4.8301771    3.2383864   -0.9739236  0.00   -0.0004041    0.0010238   -0.0007504
h    -5.8571035    2.3818621    0.2262572  0.00   -0.0016252    0.0004483    0.0014500
n    -3.3703715    0.4402152   -0.1938137  0.00   -0.0013420   -0.0026300    0.0001892
h    -3.9997629    1.7115500    1.3876980  0.00   -0.0004102    0.0000057    0.0026185
h    -3.0204581    0.5259522   -1.1813585  0.00    0.0010442    0.0000507   -0.0030353
h    -2.5488552    0.0900871    0.3595407  0.00    0.0024171   -0.0012836    0.0014556
o    -1.4185020    2.4849988   -0.4304323  0.00    0.0028362   -0.0017671   -0.0016984
o    -2.7465682    4.0262934    0.8400412  0.00   -0.0013633    0.0023211    0.0012817
h    -1.8941473    4.5535706    0.6962187  0.00    0.0001576    0.0000310   -0.0000397
    13
 Energy =       0.0392220151
c    -3.7577008    1.7867364    0.2981325  0.00    0.0007206    0.0008593    0.0001809
c    -2.6113693    2.7903209    0.2351633  0.00   -0.0033023   -0.0012702    0.0012689
c    -4.9923678    2.2541097   -0.5050214  0.00   -0.0004043    0.0006891   -0.0007311
h    -5.2810707    1.5116473   -1.2813804  0.00   -0.0002501   -0.0003097   -0.0006714
h    -4.8118941    3.2263414   -1.0168278  0.00   -0.0002050    0.0005334   -0.0003537
h    -5.8625577    2.3863970    0.1739887  0.00   -0.0008740    0.0002381    0.0007997
n    -3.3724726    0.4401621   -0.1636292  0.00   -0.0007099   -0.0016043    0.0001205
h    -4.0288607    1.7390429    1.3813435  0.00   -0.0002022    0.0000154    0.0014363
h    -3.0109316    0.5066507   -1.1476588  0.00    0.0005369    0.0000446   -0.0016355
h    -2.5585208    0.1019088    0.4061750  0.00    0.0012820   -0.0006534    0.0007284
o    -1.4638097    2.5271593   -0.5122057  0.00    0.0057887   -0.0033226   -0.0043729
o    -2.7195948    3.9986988    0.9139397  0.00   -0.0027837    0.0047438    0.0034007
h    -1.8739162    4.5325078    0.7544328  0.00    0.0004034    0.0000367   -0.0001709
    13
 Energy =       0.0391134906
c    -3.7791192    1.8070416    0.2999195  0.00    0.0012953    0.0024579    0.0005396
c    -2.6268552    2.8035794    0.2461907  0.00   -0.0015035   -0.0009232    0.0010070
c    -4.9697066    2.2378760   -0.5895210  0.00   -0.0008209    0.0015761   -0.0016975
h    -5.2159704    1.4610866   -1.3480903  0.00   -0.0004901   -0.0008572   -0.0016095
h    -4.7615962    3.1865557   -1.1352184  0.00   -0.0004786    0.0010861   -0.0009820
h    -5.8762633    2.3985855    0.0359156  0.00   -0.0020832    0.0006414    0.0015812
n    -3.3735700    0.4377392   -0.0751412  0.00   -0.0019165   -0.0034165    0.0005552
h    -4.1064934    1.8126594    1.3705524  0.00   -0.0007166    0.0001932    0.0032621
h    -2.9660363    0.4539760   -1.0449462  0.00    0.0016267   -0.0002733   -0.0040594
h    -2.5882049    0.1270602    0.5501989  0.00    0.0031151   -0.0015978    0.0021972
o    -1.5122679    2.5711947   -0.5559219  0.00    0.0034884   -0.0020494   -0.0028079
o    -2.7054390    3.9835277    0.9747336  0.00   -0.0017012    0.0031381    0.0020784
h    -1.8635442    4.5208013    0.8077805  0.00    0.0001851    0.0000247   -0.0000644
    13
 Energy =       0.0389779738
c    -3.7905439    1.8198886    0.2968284  0.00    0.0004465    0.0010326    0.0000293
c    -2.6357460    2.8126060    0.2412889  0.00   -0.0038234   -0.0028515    0.0015668
c    -4.9601533    2.2286761   -0.6259824  0.00   -0.0002663    0.0007190   -0.0006094
h    -5.1860935    1.4372688   -1.3743140  0.00   -0.0002192   -0.0003437   -0.0006345
h    -4.7415913    3.1663452   -1.1848177  0.00   -0.0001811    0.0003728   -0.0003053
h    -5.8806881    2.3961791   -0.0260770  0.00   -0.0007390    0.0002321    0.0005980
n    -3.3798464    0.4434009   -0.0362883  0.00   -0.0008803   -0.0014555    0.0002922
h    -4.1396629    1.8507053    1.3583995  0.00   -0.0002192    0.0000594    0.0012411
h    -2.9516042    0.4365297   -0.9957206  0.00    0.0005998   -0.0000993   -0.0016658
h    -2.6112802    0.1463146    0.6134568  0.00    0.0012966   -0.0006484    0.0008138
o    -1.5787994    2.6338599   -0.6524979  0.00    0.0068754   -0.0036685   -0.0071430
o    -2.6609206    3.9421449    1.0539041  0.00   -0.0034280    0.0066111    0.0061252
h    -1.8281370    4.4877639    0.8682723  0.00    0.0005381    0.0000399   -0.0003084
    13
 Energy =       0.0388414891
c    -3.8102032    1.8408060    0.2966739  0.00    0.0009903    0.0026740    0.0005752
c    -2.6524463    2.8297558    0.2442660  0.00   -0.0010418   -0.0013824    0.0007094
c    -4.9365543    2.2032167   -0.6998210  0.00   -0.0006862    0.0014939   -0.0014812
h    -5.1232842    1.3772329   -1.4227759  0.00   -0.0003645   -0.0010664   -0.0016085
h    -4.6939274    3.1153546   -1.2915417  0.00   -0.0004078    0.0009702   -0.0010312
h    -5.8863071    2.3936511   -0.1523462  0.00   -0.0018735    0.0006657    0.0012048
n    -3.3836024    0.4493050    0.0495302  0.00   -0.0026105   -0.0030252    0.0005399
h    -4.2083218    1.9226609    1.3399884  0.00   -0.0008011    0.0003696    0.0029135
h    -2.9061824    0.3972717   -0.8869301  0.00    0.0020266   -0.0006144   -0.0041614
h    -2.6506617    0.1815421    0.7536010  0.00    0.0032830   -0.0016345    0.0028347
o    -1.6197050    2.6734085   -0.6761670  0.00    0.0028151   -0.0015487   -0.0029157
o    -2.6522040    3.9350016    1.0855985  0.00   -0.0015287    0.0030833    0.0025214
h    -1.8216669    4.4824762    0.8963761  0.00    0.0001992    0.0000149   -0.0001009
    13
 Energy =       0.0387069493
c    -3.8218469    1.8552368    0.2920321  0.00    0.0001250    0.0009075    0.0001216
c    -2.6624306    2.8413822    0.2334963  0.00   -0.0028775   -0.0038428    0.0001058
c    -4.9294266    2.1909886   -0.7305455  0.00   -0.0001550    0.0005138   -0.0003384
h    -5.0984562    1.3502644   -1.4388946  0.00   -0.0001227   -0.0003113   -0.0004617
h    -4.6783522    3.0906496   -1.3361897  0.00   -0.0000991    0.0002476   -0.0002330
h    -5.8894421    2.3862298   -0.2064874  0.00   -0.0004411    0.0001635    0.0003185
n    -3.3917226    0.4606704    0.0855690  0.00   -0.0009068   -0.0008925    0.0001810
h    -4.2374561    1.9609063    1.3243656  0.00   -0.0001740    0.0000292    0.0007970
h    -2.8915496    0.3894101   -0.8356067  0.00    0.0005515   -0.0001524   -0.0012787
h    -2.6798828    0.2076144    0.8135088  0.00    0.0010519   -0.0005341    0.0008103
o    -1.6929301    2.7431026   -0.7643842  0.00    0.0052316   -0.0027321   -0.0071527
o    -2.5966245    3.8850350    1.1525073  0.00   -0.0026128    0.0065779    0.0074443
h    -1.7749465    4.4401929    0.9470812  0.00    0.0004291    0.0000258   -0.0003140
    13
 Energy =       0.0386023500
c    -3.8396104    1.8763445    0.2902883  0.00    0.0007752    0.0029335    0.0007634
c    -2.6820587    2.8642671    0.2296591  0.00   -0.0005487   -0.0014362    0.0001121
c    -4.9051913    2.1531637   -0.7962498  0.00   -0.0007152    0.0014239   -0.0013100
h    -5.0362986    1.2766514   -1.4706397  0.00   -0.0002435   -0.0013634   -0.0016202
h    -4.6341625    3.0243623   -1.4356425  0.00   -0.0003345    0.0008945   -0.0010867
h    -5.8895420    2.3658380   -0.3240905  0.00   -0.0016249    0.0006660    0.0008501
n    -3.3929465    0.4745313    0.1726563  0.00   -0.0026067   -0.0030409    0.0000777
h    -4.2997688    2.0318726    1.2991390  0.00   -0.0008426    0.0005642    0.0025711
h    -2.8464820    0.3616145   -0.7195614  0.00    0.0021834   -0.0008753   -0.0036614