    13
 Energy =       0.4261247074
c    -3.7133889    1.6950595    0.3173519  0.00   -0.1135149    0.1209457   -0.0220638
c    -2.4962693    2.6345192    0.2419999  0.00    0.3510707   -0.0427457    0.1012175
c    -4.9565486    2.3924193   -0.2155699  0.00    0.7188991    0.7498001   -0.2501728
h    -5.8072983    1.7014095   -0.2223689  0.00    0.0155069    0.0102335   -0.0033876
h    -4.8071186    2.7393792   -1.2437896  0.00    0.7357235    0.6614764    0.4163572
h    -5.2375685    3.2516891    0.4029209  0.00    0.0568197    0.0017676   -0.0532408
n    -3.4097890    0.4519539   -0.4549189  0.00    0.0458302   -0.0432283   -0.0511566
h    -3.8575589    1.4177196    1.3669296  0.00   -0.0017858   -0.0020380   -0.0246520
h    -4.2340588    0.2238779   -1.0206697  0.00    0.0217493    0.0314880    0.0220076
h    -2.6878492    0.6694128   -1.1486897  0.00   -0.0297692    0.0095057    0.0359273
o    -1.4040496    2.4172293    0.7380088  0.00   -0.2615728    0.0525094   -0.1190015
o    -2.7835192    3.7545589   -0.4737969  0.00   -0.1104623   -0.0731886    0.0012906
h    -3.7512389    3.6942389   -0.6738148  0.00   -1.4284945   -1.4765259   -0.0531250
    13
 Energy =       0.3602761484
c    -3.7144579    1.7348780    0.3326488  0.00   -0.0894154    0.1043781   -0.0148285
c    -2.5122803    2.6842579    0.2198602  0.00    0.2810005   -0.0314916    0.0817134
c    -4.9647421    2.3695296   -0.3000854  0.00    0.5892044    0.6184479   -0.2099005
h    -5.7935398    1.6464123   -0.3158871  0.00    0.0114520    0.0079504   -0.0025246
h    -4.8437268    2.7555567   -1.3182885  0.00    0.6012190    0.5434588    0.3416633
h    -5.3039320    3.2326064    0.2878587  0.00    0.0457929    0.0035265   -0.0436925
n    -3.3828953    0.4242282   -0.3105212  0.00    0.0395458   -0.0424007   -0.0359501
h    -3.8873179    1.5616070    1.4093850  0.00   -0.0017377   -0.0022009   -0.0139340
h    -4.1935124    0.0986553   -0.8619166  0.00    0.0132282    0.0209938    0.0121216
h    -2.6230480    0.5533947   -0.9983686  0.00   -0.0193647    0.0061075    0.0226175
o    -1.3828450    2.4724129    0.7181045  0.00   -0.2096853    0.0424952   -0.0959411
o    -2.7945362    3.8049013   -0.4996938  0.00   -0.0860821   -0.0585988    0.0020773
h    -3.7494224    3.7050269   -0.7495032  0.00   -1.1751577   -1.2126661   -0.0434217
    13
 Energy =       0.3149323600
c    -3.7079332    1.7021864    0.3032172  0.00   -0.0725058    0.0928954   -0.0094366
c    -2.4790945    2.6058133    0.1769473  0.00    0.2348549   -0.0258826    0.0677830
c    -4.9555504    2.4322563   -0.2100233  0.00    0.4982033    0.5317526   -0.1840277
h    -5.8244147    1.7516340   -0.2153142  0.00    0.0077845    0.0061634   -0.0019709
h    -4.8169998    2.8003084   -1.2251671  0.00    0.5147170    0.4600248    0.2919633
h    -5.2256867    3.2807101    0.4466118  0.00    0.0367319    0.0064275   -0.0339787
n    -3.4803664    0.4144089   -0.4335091  0.00    0.0416933   -0.0437819   -0.0312294
h    -3.8192848    1.4733609    1.3831136  0.00   -0.0010090   -0.0017416   -0.0081995
h    -4.3241734    0.1792975   -0.9955167  0.00    0.0055524    0.0145070    0.0052647
h    -2.7245954    0.5329638   -1.1317774  0.00   -0.0163693    0.0048179    0.0184092
o    -1.3608266    2.3442166    0.7328343  0.00   -0.1746521    0.0339928   -0.0779570
o    -2.7029488    3.7394237   -0.5565717  0.00   -0.0317793   -0.0492044    0.0009693
h    -3.7243813    3.7868874   -0.6612519  0.00   -1.0432218   -1.0299709   -0.0375896
    13
 Energy =       0.2348575815
c    -3.7199338    1.6669578    0.2771773  0.00   -0.0456998    0.0613712   -0.0066048
c    -2.5062957    2.5926334    0.2484892  0.00    0.1406498   -0.0167161    0.0419971
c    -4.9579461    2.4320019   -0.1956241  0.00    0.3407565    0.3663119   -0.1278577
h    -5.8392672    1.7612025   -0.2045145  0.00    0.0045764    0.0036977   -0.0011177
h    -4.8086846    2.7951331   -1.2054745  0.00    0.3501504    0.3089594    0.2008620
h    -5.2059533    3.2696228    0.4893066  0.00    0.0245126    0.0047375   -0.0217759
n    -3.4925145    0.4416405   -0.5519997  0.00    0.0242383   -0.0336058   -0.0188772
h    -3.8463231    1.3566499    1.3414857  0.00   -0.0010020   -0.0022313   -0.0017206
h    -4.3223092    0.2389335   -1.1542698  0.00    0.0021998    0.0077175    0.0008102
h    -2.7049019    0.5967465   -1.2179541  0.00   -0.0077550    0.0036341    0.0093003
o    -1.3752402    2.2624656    0.8476209  0.00   -0.1048210    0.0173694   -0.0455489
o    -2.6799162    3.7979490   -0.4063496  0.00   -0.0012625   -0.0198097    0.0013935
h    -3.6869702    3.8315306   -0.6543008  0.00   -0.7265435   -0.7014359   -0.0308601
    13
 Energy =       0.1261668694
c    -3.7435171    1.6726816    0.2826570  0.00    0.0077921   -0.0048761    0.0005001
c    -2.5579353    2.6319368    0.2952073  0.00   -0.0252023    0.0039687   -0.0066766
c    -5.0041705    2.3931174   -0.2567592  0.00    0.1051725    0.1184897   -0.0454494
h    -5.8679518    1.6888724   -0.2834045  0.00   -0.0014420   -0.0011991   -0.0000193
h    -4.8350776    2.7826425   -1.2759682  0.00    0.1116041    0.1031451    0.0599515
h    -5.2985945    3.2362443    0.4093662  0.00    0.0064504    0.0035035   -0.0058845
n    -3.4897241    0.4468449   -0.5038971  0.00   -0.0205057    0.0048823    0.0237926
h    -3.8990235    1.3886090    1.3518657  0.00    0.0001536    0.0005365    0.0011114
h    -4.2525581    0.2350755   -1.2005247  0.00   -0.0080676   -0.0026970   -0.0077687
h    -2.5793216    0.5056414   -1.0592010  0.00    0.0264444   -0.0004833   -0.0160623
o    -1.3608291    2.2717950    0.9260563  0.00    0.0187449   -0.0049969    0.0080842
o    -2.6541616    3.8617027   -0.3504840  0.00    0.0118967    0.0041583    0.0000164
h    -3.6033913    3.9283037   -0.7213211  0.00   -0.2330411   -0.2244318   -0.0115953
    13
 Energy =       0.0951774010
c    -3.7483883    1.6626517    0.2610325  0.00   -0.0042887    0.0030893   -0.0006729
c    -2.5803343    2.6513374    0.3712246  0.00   -0.0039340    0.0028394   -0.0001359
c    -5.0278703    2.3432131   -0.2679868  0.00    0.0393029    0.0423912   -0.0152695
h    -5.8697798    1.6157534   -0.3116013  0.00   -0.0005945   -0.0004156    0.0000672
h    -4.8558400    2.7590059   -1.2811505  0.00    0.0458599    0.0420619    0.0233633
h    -5.3401799    3.1699485    0.4089856  0.00    0.0029920    0.0013307   -0.0022777
n    -3.4216827    0.4821865   -0.5740564  0.00   -0.0058569   -0.0043747    0.0078692
h    -3.9264409    1.3154670    1.3095622  0.00   -0.0009759   -0.0004427    0.0022007
h    -4.2111348    0.2066705   -1.2123331  0.00   -0.0064879   -0.0001867   -0.0038746
h    -2.5707391    0.6474767   -1.1816985  0.00    0.0144201   -0.0008014   -0.0071025
o    -1.4377949    2.2990745    1.0848094  0.00    0.0071610   -0.0010812    0.0020794
o    -2.6281399    3.8906178   -0.2659030  0.00    0.0084269    0.0007478    0.0019949
h    -3.5279311    4.0000643   -0.7272920  0.00   -0.0960248   -0.0851580   -0.0082416
    13
 Energy =       0.0907958605
c    -3.7221733    1.6333765    0.2275801  0.00   -0.0028045    0.0055399    0.0015916
c    -2.5767978    2.6439819    0.3762002  0.00   -0.0027178    0.0013154    0.0007832
c    -5.0439079    2.3134021   -0.1984738  0.00    0.0281423    0.0325759   -0.0104869
h    -5.8682033    1.5661301   -0.2469785  0.00   -0.0008507   -0.0005406    0.0004412
h    -4.9383232    2.8014206   -1.1938540  0.00    0.0357056    0.0350327    0.0140153
h    -5.3437388    3.0886326    0.5468124  0.00    0.0008924    0.0034463    0.0004541
n    -3.3921180    0.5265389   -0.7080817  0.00   -0.0047163   -0.0106160    0.0052760
h    -3.8517179    1.2002039    1.2553755  0.00   -0.0013772   -0.0022949    0.0061070
h    -4.1992895    0.2687129   -1.3304229  0.00   -0.0049727   -0.0008220   -0.0040502
h    -2.5763511    0.7657609   -1.3404516  0.00    0.0151503   -0.0005673   -0.0096340
o    -1.4239106    2.2808759    1.0659414  0.00    0.0056087   -0.0013400    0.0018834
o    -2.6532218    3.9151012   -0.1969182  0.00    0.0063459    0.0037182    0.0001988
h    -3.5565027    4.0393297   -0.6431361  0.00   -0.0744061   -0.0654476   -0.0065797
    13
 Energy =       0.0908550502
c    -3.7229733    1.6170925    0.2050723  0.00   -0.0011341    0.0064623    0.0019447
c    -2.5664507    2.6144502    0.3617470  0.00   -0.0034829    0.0003814    0.0008662
c    -5.0558416    2.3186063   -0.1553514  0.00    0.0253387    0.0309353   -0.0095796
h    -5.8804981    1.5723557   -0.2157676  0.00   -0.0009306   -0.0005759    0.0005123
h    -4.9805421    2.8548736   -1.1309099  0.00    0.0335278    0.0339149    0.0116726
h    -5.3350946    3.0591275    0.6338438  0.00    0.0003460    0.0043887    0.0016048
n    -3.4281410    0.5369315   -0.7758937  0.00   -0.0003384   -0.0140139    0.0214003
h    -3.8267667    1.1493272    1.2211298  0.00   -0.0012519   -0.0024925    0.0067188
h    -4.2053983    0.4050864   -1.4891760  0.00   -0.0194440   -0.0041783   -0.0170130
h    -2.5339057    0.7313084   -1.3236503  0.00    0.0250531    0.0036225   -0.0139666
o    -1.3955982    2.2128938    1.0008774  0.00    0.0073339   -0.0025422    0.0031074
o    -2.6503051    3.9110230   -0.1520701  0.00    0.0062940    0.0052784   -0.0003575
h    -3.5647407    4.0603914   -0.5662586  0.00   -0.0713116   -0.0611808   -0.0069104
    13
 Energy =       0.0824637109
c    -3.7232363    1.6149804    0.1922651  0.00   -0.0030215    0.0029920    0.0013029
c    -2.6052509    2.6447241    0.4339545  0.00   -0.0022952    0.0026515   -0.0013098
c    -5.0762697    2.2547581   -0.1856252  0.00    0.0088117    0.0109450   -0.0035717
h    -5.8691772    1.4754125   -0.2559419  0.00   -0.0009941   -0.0006962   -0.0000784
h    -4.9953583    2.7730305   -1.1663091  0.00    0.0157977    0.0127886    0.0056758
h    -5.3940039    2.9905667    0.5888725  0.00    0.0001941    0.0013549    0.0005293
n    -3.3532193    0.5879876   -0.8132137  0.00   -0.0031676   -0.0071876    0.0034842
h    -3.8405576    1.1053714    1.1815604  0.00   -0.0009268   -0.0005475    0.0022288
h    -4.1169957    0.4115400   -1.5134666  0.00   -0.0046993    0.0002136   -0.0033994
h    -2.4958324    0.8653170   -1.3628829  0.00    0.0096656    0.0001592   -0.0050395
o    -1.4792285    2.2642087    1.1596305  0.00    0.0067629   -0.0011969    0.0030302
o    -2.6623712    3.9420143   -0.0802118  0.00    0.0056190    0.0004072    0.0018408
h    -3.5347549    4.1135560   -0.5650392  0.00   -0.0317464   -0.0218840   -0.0046933
    13
 Energy =       0.0817103831
c    -3.7302884    1.5939301    0.1615560  0.00   -0.0020468    0.0038267    0.0019876
c    -2.6124435    2.6077911    0.4702361  0.00   -0.0020629    0.0014001   -0.0002237
c    -5.0881215    2.2509707   -0.1721256  0.00    0.0064583    0.0086541   -0.0022463
h    -5.8768440    1.4708612   -0.2781889  0.00   -0.0011011   -0.0011529   -0.0000376
h    -5.0217670    2.8224226   -1.1263374  0.00    0.0121788    0.0110571    0.0028032
h    -5.4024849    2.9434063    0.6443639  0.00   -0.0002755    0.0021807    0.0016444
n    -3.3611650    0.6274933   -0.9052368  0.00    0.0002107   -0.0105864    0.0125104
h    -3.8453077    1.0231292    1.1190732  0.00   -0.0008210   -0.0015918    0.0036726
h    -4.0879712    0.5597335   -1.6722197  0.00   -0.0125043   -0.0021008   -0.0135694
h    -2.4511136    0.8941381   -1.3755911  0.00    0.0137795    0.0030914   -0.0065368
o    -1.4992447    2.1843615    1.1914077  0.00    0.0061403   -0.0013648    0.0029864
o    -2.6535339    3.9312687    0.0221132  0.00    0.0051634    0.0033595    0.0008661
h    -3.5159705    4.1339611   -0.4654580  0.00   -0.0251194   -0.0167729   -0.0038569
    13
 Energy =       0.0803035065
c    -3.7038441    1.5894883    0.1419188  0.00   -0.0028804    0.0012026    0.0039956
c    -2.6651920    2.6697417    0.5135089  0.00    0.0002820    0.0006200    0.0007953
c    -5.1060656    2.1491414   -0.1947177  0.00    0.0017000    0.0065937   -0.0008829
h    -5.8355710    1.3121080   -0.3143656  0.00   -0.0028494   -0.0029501   -0.0001577
h    -5.0744626    2.7287922   -1.1450320  0.00    0.0069542    0.0061561    0.0010145
h    -5.4778869    2.8103528    0.6240582  0.00   -0.0011933    0.0024300    0.0019337
n    -3.2426068    0.6889879   -0.9481772  0.00   -0.0004609   -0.0113960    0.0035340
h    -3.7952464    0.9765820    1.0748476  0.00   -0.0013348   -0.0019203    0.0025556
h    -3.9426455    0.6000461   -1.7304800  0.00   -0.0063087   -0.0015851   -0.0072838
h    -2.3436568    1.0302125   -1.3863633  0.00    0.0110555    0.0022574   -0.0056538
o    -1.5461091    2.2931337    1.2491019  0.00    0.0043552   -0.0005005    0.0020770
o    -2.7771979    4.0071973    0.1142869  0.00    0.0041139    0.0066952   -0.0001253
h    -3.6357713    4.1876832   -0.3849940  0.00   -0.0134332   -0.0076030   -0.0018020
    13
 Energy =       0.0800658849
c    -3.7073502    1.5909916    0.1569302  0.00   -0.0032540    0.0007016    0.0060164
c    -2.6361946    2.6543817    0.4871860  0.00    0.0004892   -0.0033426    0.0029995
c    -5.1055582    2.1855789   -0.1423345  0.00    0.0015800    0.0075334   -0.0013787
h    -5.8642498    1.3670840   -0.2207370  0.00   -0.0045331   -0.0044574   -0.0002814
h    -5.0917629    2.7468913   -1.1040711  0.00    0.0081140    0.0069643    0.0004331
h    -5.4290539    2.8755041    0.6761970  0.00   -0.0018653    0.0038580    0.0035029
n    -3.2966930    0.6721319   -0.9410229  0.00   -0.0002289   -0.0152542    0.0066290
h    -3.7868150    0.9871789    1.0978635  0.00   -0.0016876   -0.0022882    0.0032989
h    -4.0397638    0.5598492   -1.6837328  0.00   -0.0097162   -0.0025759   -0.0111730
h    -2.4226179    1.0129488   -1.4341132  0.00    0.0156764    0.0035359   -0.0084618
o    -1.5464891    2.2838340    1.2715906  0.00    0.0063602   -0.0023094    0.0037090
o    -2.6900259    3.9688490   -0.0064158  0.00    0.0054547    0.0147370   -0.0023890
h    -3.5296817    4.1382439   -0.5437471  0.00   -0.0163894   -0.0071025   -0.0029047
    13
 Energy =       0.0792056815
c    -3.7203682    1.5859391    0.1618359  0.00   -0.0029791   -0.0000947    0.0061134
c    -2.6158198    2.6091181    0.5069772  0.00   -0.0015707   -0.0061132    0.0042442
c    -5.0998840    2.2364402   -0.1165866  0.00    0.0006903    0.0078994   -0.0017442
h    -5.8917175    1.4478219   -0.1828274  0.00   -0.0052073   -0.0050345   -0.0003794
h    -5.0845818    2.7989001   -1.0769360  0.00    0.0071249    0.0062039    0.0001895
h    -5.3833522    2.9388155    0.7071827  0.00   -0.0020536    0.0044280    0.0039707
n    -3.3424274    0.6815983   -0.9591848  0.00   -0.0003336   -0.0173563    0.0131260
h    -3.8143257    0.9637676    1.0898472  0.00   -0.0014958   -0.0025725    0.0034650
h    -4.1345839    0.5239014   -1.6455380  0.00   -0.0141829   -0.0034516   -0.0147378
h    -2.5215606    1.0646290   -1.5164994  0.00    0.0206479    0.0055767   -0.0122888
o    -1.5883254    2.2236592    1.3705941  0.00    0.0102677   -0.0054625    0.0076459
o    -2.5783811    3.8998019   -0.0574131  0.00    0.0084214    0.0199414   -0.0029366
h    -3.3709286    4.0690750   -0.6678593  0.00   -0.0193292   -0.0039642   -0.0066681
    13
 Energy =       0.0786853490
c    -3.7076064    1.5873299    0.1646943  0.00   -0.0016059   -0.0001453    0.0069487
c    -2.5930547    2.6171708    0.4497927  0.00   -0.0007506   -0.0079847    0.0051778
c    -5.1083042    2.2319135   -0.0200837  0.00   -0.0018300    0.0067987   -0.0007783
h    -5.8973412    1.4381514   -0.0499782  0.00   -0.0056376   -0.0048330   -0.0003205
h    -5.1615707    2.8106460   -0.9706292  0.00    0.0052651    0.0059867   -0.0020574
h    -5.3461044    2.9202250    0.8307203  0.00   -0.0023642    0.0048418    0.0048990
n    -3.3914286    0.6951995   -0.9863705  0.00    0.0020407   -0.0174405    0.0113367
h    -3.7408547    0.9566624    1.0928725  0.00   -0.0014197   -0.0029696    0.0050124
h    -4.1999091    0.5910408   -1.6647792  0.00   -0.0149662   -0.0038397   -0.0154585
h    -2.5609682    1.0519590   -1.5457889  0.00    0.0196766    0.0056377   -0.0114826
o    -1.5660848    2.2707889    1.3305598  0.00    0.0101627   -0.0057802    0.0077708
o    -2.5456511    3.8724428   -0.1908050  0.00    0.0094193    0.0218889   -0.0033986
h    -3.3273778    3.9999373   -0.8266124  0.00   -0.0179902   -0.0021609   -0.0076495
    13
 Energy =       0.0766991879
c    -3.7154935    1.5819765    0.1587604  0.00   -0.0012884    0.0004813    0.0038722
c    -2.5826620    2.5757494    0.4716624  0.00   -0.0035928   -0.0053587    0.0029595
c    -5.1001919    2.2609363    0.0123464  0.00   -0.0013366    0.0034508   -0.0008413
h    -5.9051033    1.4882700   -0.0145918  0.00   -0.0027548   -0.0024617   -0.0002798
h    -5.1642849    2.8585766   -0.9237336  0.00    0.0018402    0.0029319   -0.0010004
h    -5.3040338    2.9356703    0.8787807  0.00   -0.0012390    0.0027232    0.0026788
n    -3.4282054    0.7389368   -1.0295209  0.00   -0.0010133   -0.0126706    0.0126408
h    -3.7503780    0.9142667    1.0583747  0.00   -0.0004556   -0.0019053    0.0031882
h    -4.2777069    0.5932985   -1.6417413  0.00   -0.0117186   -0.0017228   -0.0106847
h    -2.6729852    1.1634243   -1.6426863  0.00    0.0169540    0.0052501   -0.0113523
o    -1.6330009    2.2385393    1.4393986  0.00    0.0100087   -0.0061933    0.0089813
o    -2.4435854    3.7885185   -0.2265849  0.00    0.0066970    0.0150801   -0.0024441
h    -3.1686247    3.9053041   -0.9268716  0.00   -0.0121008    0.0003949   -0.0077182
    13
 Energy =       0.0756259644
c    -3.7430864    1.5766562    0.1571281  0.00   -0.0006669   -0.0007351    0.0006434
c    -2.5803565    2.5085864    0.5520344  0.00   -0.0032420   -0.0050226    0.0019763
c    -5.0833112    2.3250942   -0.0717759  0.00   -0.0040918    0.0037849    0.0003986
h    -5.9280746    1.5962853   -0.1181879  0.00   -0.0036123   -0.0027748    0.0002679
h    -5.0707684    2.9018804   -1.0261969  0.00    0.0012385    0.0037389   -0.0034806
h    -5.2931446    3.0292758    0.7690389  0.00   -0.0016476    0.0023829    0.0024335
n    -3.4205349    0.7473238   -1.0273143  0.00    0.0046240   -0.0174617    0.0318066
h    -3.8647235    0.8961575    1.0426966  0.00   -0.0009331   -0.0036705    0.0052187
h    -4.2994309    0.4533755   -1.5584223  0.00   -0.0283123   -0.0079746   -0.0177448
h    -2.7885847    1.2792407   -1.7105492  0.00    0.0276219    0.0171907   -0.0223235
o    -1.7068533    2.1161677    1.5717811  0.00    0.0117821   -0.0061897    0.0114161
o    -2.3434919    3.7240679   -0.1159984  0.00    0.0084868    0.0153857   -0.0018947
h    -3.0238952    3.8893559   -0.8506414  0.00   -0.0112473    0.0013459   -0.0087176
    13
 Energy =       0.0732159951
c    -3.7639849    1.5734760    0.1472334  0.00   -0.0006145   -0.0011003    0.0002719
c    -2.5795038    2.4491209    0.5868765  0.00   -0.0034816   -0.0025621    0.0000191
c    -5.0668064    2.3741589   -0.0828695  0.00   -0.0014072    0.0016852   -0.0002257
h    -5.9365189    1.6807928   -0.1546066  0.00   -0.0017809   -0.0015523    0.0000269
h    -5.0217705    2.9672402   -1.0233191  0.00    0.0000411    0.0014155   -0.0015000
h    -5.2579287    3.0682618    0.7678020  0.00   -0.0004435    0.0008614    0.0007495
n    -3.4522695    0.7788798   -1.0570119  0.00   -0.0013829   -0.0083125    0.0143620
h    -3.9225099    0.8704059    1.0050460  0.00   -0.0001676   -0.0018438    0.0022345
h    -4.3306727    0.4370102   -1.5319051  0.00   -0.0107964   -0.0020293   -0.0069022
h    -2.9120559    1.3551217   -1.7625928  0.00    0.0133136    0.0076325   -0.0104118
o    -1.7971366    2.0434814    1.6694631  0.00    0.0075324   -0.0045581    0.0082984
o    -2.2399561    3.6305972   -0.0885676  0.00    0.0046926    0.0090897   -0.0018274
h    -2.8651420    3.8149206   -0.8619556  0.00   -0.0055050    0.0012741   -0.0050951
    13
 Energy =       0.0718227232
c    -3.7859692    1.5727000    0.1374082  0.00   -0.0008432   -0.0019246   -0.0001045
c    -2.5757411    2.3835910    0.6245855  0.00   -0.0030410   -0.0021855   -0.0006971
c    -5.0439392    2.4357481   -0.1078629  0.00   -0.0004814    0.0014897    0.0000894
h    -5.9417869    1.7852605   -0.2270644  0.00   -0.0024623   -0.0018064   -0.0001821
h    -4.9439093    3.0553392   -1.0274350  0.00   -0.0001286    0.0014953   -0.0021726
h    -5.2289206    3.1122115    0.7576558  0.00   -0.0000162    0.0005034    0.0004717
n    -3.4794203    0.8025121   -1.0797376  0.00    0.0021020   -0.0088408    0.0186705
h    -3.9954841    0.8552943    0.9719162  0.00   -0.0002715   -0.0018881    0.0016614
h    -4.3586649    0.3698588   -1.4756954  0.00   -0.0135190   -0.0046038   -0.0056263
h    -3.0681331    1.4346799   -1.8261402  0.00    0.0119241    0.0125396   -0.0139333
o    -1.8834909    1.9569394    1.7584469  0.00    0.0057643   -0.0041046    0.0079726
o    -2.1344075    3.5345406   -0.0432123  0.00    0.0047190    0.0077040   -0.0016169
h    -2.7063889    3.7447919   -0.8492720  0.00   -0.0037463    0.0016219   -0.0045329
    13
 Energy =       0.0707991131
c    -3.8050968    1.5737003    0.1212819  0.00   -0.0006642   -0.0017717    0.0012884
c    -2.5701835    2.3195855    0.6411193  0.00   -0.0021313   -0.0013465   -0.0004077
c    -5.0245142    2.4932081   -0.0981304  0.00    0.0007142   -0.0003781    0.0003490
h    -5.9397371    1.8839767   -0.2831998  0.00   -0.0021638   -0.0019737   -0.0005864
h    -4.8784160    3.1709139   -0.9704243  0.00   -0.0003053    0.0021870   -0.0028677
h    -5.2073491    3.1184324    0.8071233  0.00    0.0002289    0.0011986    0.0016798
n    -3.5229970    0.8365705   -1.1208849  0.00   -0.0001438   -0.0041362    0.0060271
h    -4.0459966    0.8376375    0.9290825  0.00    0.0000627   -0.0008926    0.0005144
h    -4.3926003    0.3543572   -1.4592447  0.00   -0.0041572   -0.0009141   -0.0013107
h    -3.2138645    1.4954283   -1.8813165  0.00    0.0044249    0.0045688   -0.0055273
o    -1.9682632    1.8902005    1.8216482  0.00    0.0024848   -0.0028680    0.0049810
o    -2.0296018    3.4236202   -0.0284644  0.00    0.0030990    0.0050264   -0.0016172
h    -2.5476358    3.6458362   -0.8649976  0.00   -0.0014490    0.0013001   -0.0025228
    13
 Energy =       0.0703858336
c    -3.8117035    1.5792905    0.1095734  0.00   -0.0005883   -0.0006768    0.0010260
c    -2.5617603    2.2866995    0.6400363  0.00   -0.0009929   -0.0005682   -0.0005580
c    -5.0113726    2.5286164   -0.0755156  0.00    0.0008629   -0.0012845    0.0002096
h    -5.9299650    1.9497103   -0.3229085  0.00   -0.0011690   -0.0012039   -0.0003755
h    -4.8305714    3.2628307   -0.8929931  0.00    0.0000796    0.0017030   -0.0021020
h    -5.2063510    3.0947739    0.8652879  0.00   -0.0000113    0.0010664    0.0016293
n    -3.5523539    0.8708746   -1.1535643  0.00    0.0044153   -0.0040692    0.0087808
h    -4.0619240    0.8287254    0.9002893  0.00    0.0000266   -0.0001394    0.0000176
h    -4.4024003    0.3131320   -1.4247353  0.00   -0.0067049   -0.0035266   -0.0009204
h    -3.3686076    1.5558531   -1.9336710  0.00    0.0027672    0.0075184   -0.0081118
o    -2.0254381    1.8840718    1.8588604  0.00    0.0005945   -0.0015592    0.0023741
o    -1.9536698    3.3405767   -0.0468962  0.00    0.0011706    0.0018485   -0.0007007
h    -2.4301384    3.5483124   -0.9101706  0.00   -0.0004502    0.0008915   -0.0012689
    13
 Energy =       0.0702357987
c    -3.8258957    1.5835326    0.1038337  0.00   -0.0000194   -0.0006889    0.0005277
c    -2.5578416    2.2528288    0.6410090  0.00   -0.0007682   -0.0008260    0.0003309
c    -5.0003337    2.5671061   -0.0609615  0.00    0.0002260    0.0000071    0.0005890
h    -5.9262911    2.0242540   -0.3558466  0.00   -0.0009271   -0.0006755   -0.0003726
h    -4.7820499    3.3357013   -0.8349861  0.00   -0.0000005    0.0009648   -0.0008570
h    -5.2023611    3.0915197    0.9006875  0.00    0.0001317    0.0002439    0.0004479
n    -3.5890835    0.8882760   -1.1712655  0.00   -0.0014515    0.0003667   -0.0019037
h    -4.0922439    0.8277037    0.8844314  0.00    0.0000037   -0.0001918    0.0000487
h    -4.4294824    0.3171473   -1.4225718  0.00    0.0014403    0.0010261    0.0000997
h    -3.4461067    1.5738414   -1.9484460  0.00   -0.0000821   -0.0017297    0.0014536
o    -2.0728410    1.8742296    1.8880192  0.00    0.0001610   -0.0009081    0.0015092
o    -1.8887759    3.2567325   -0.0636370  0.00    0.0014435    0.0019676   -0.0010673
h    -2.3329494    3.4505944   -0.9466737  0.00   -0.0001574    0.0004438   -0.0008061
    13
 Energy =       0.0702203503
c    -3.8106547    1.5835158    0.1008373  0.00   -0.0000395   -0.0005111    0.0001085
c    -2.5512260    2.2779661    0.6259245  0.00   -0.0003543   -0.0005068    0.0000094
c    -5.0093953    2.5415276   -0.0394223  0.00   -0.0002627    0.0000839    0.0003850
h    -5.9241546    1.9824799   -0.3374832  0.00   -0.0006372   -0.0004522   -0.0001768
h    -4.8131481    3.3281853   -0.8010001  0.00    0.0001144    0.0008290   -0.0007259
h    -5.2175051    3.0449306    0.9321442  0.00   -0.0000889    0.0002860    0.0004347
n    -3.5753570    0.9044370   -1.1833716  0.00    0.0009315   -0.0005774    0.0008269
h    -4.0485788    0.8155433    0.8793467  0.00   -0.0001364   -0.0004487    0.0003103
h    -4.3965306    0.2943812   -1.4126380  0.00   -0.0008403   -0.0006176   -0.0000675
h    -3.4880548    1.6000657   -1.9628164  0.00    0.0001983    0.0009501   -0.0010839
o    -2.0548855    1.9197324    1.8741880  0.00    0.0002359   -0.0005141    0.0010611
o    -1.9031430    3.2870574   -0.0893804  0.00    0.0010835    0.0012048   -0.0004287
h    -2.3536227    3.4636451   -0.9727360  0.00   -0.0002042    0.0002742   -0.0006531
    13
 Energy =       0.0702149331
c    -3.8104888    1.5840060    0.1000773  0.00   -0.0000003   -0.0000016    0.0000055
c    -2.5512389    2.2778027    0.6248922  0.00   -0.0000076   -0.0000018   -0.0000103
c    -5.0087896    2.5416009   -0.0366843  0.00    0.0000038   -0.0000053   -0.0000005
h    -5.9225699    1.9844915   -0.3385933  0.00   -0.0000058   -0.0000079   -0.0000001
h    -4.8116148    3.3313032   -0.7934073  0.00    0.0000015    0.0000082   -0.0000137
h    -5.2181091    3.0398457    0.9367428  0.00   -0.0000013    0.0000092    0.0000117
n    -3.5770685    0.9073679   -1.1855936  0.00    0.0000031   -0.0000136    0.0000126
h    -4.0470775    0.8151132    0.8773683  0.00   -0.0000010   -0.0000007    0.0000019
h    -4.3964175    0.2953257   -1.4133495  0.00   -0.0000085   -0.0000013   -0.0000010
h    -3.4948954    1.6035183   -1.9639929  0.00    0.0000095    0.0000119   -0.0000162
o    -2.0582653    1.9245135    1.8751658  0.00    0.0000079   -0.0000138    0.0000199
o    -1.9007358    3.2825379   -0.0922112  0.00    0.0000053    0.0000107    0.0000009
h    -2.3489850    3.4560407   -0.9768216  0.00   -0.0000065    0.0000061   -0.0000106
    13
 Energy =       0.0702149026
c    -3.8104232    1.5841178    0.0999630  0.00   -0.0000002    0.0000000   -0.0000000
c    -2.5513235    2.2780653    0.6249283  0.00   -0.0000007    0.0000000   -0.0000010
c    -5.0089070    2.5415231   -0.0363592  0.00    0.0000004   -0.0000005   -0.0000000
h    -5.9223994    1.9845502   -0.3393576  0.00   -0.0000004   -0.0000004   -0.0000002
h    -4.8114739    3.3321283   -0.7920617  0.00    0.0000002    0.0000006   -0.0000006
h    -5.2188213    3.0386384    0.9375024  0.00   -0.0000001    0.0000004    0.0000007
n    -3.5769706    0.9079627   -1.1859636  0.00    0.0000013   -0.0000007    0.0000016
h    -4.0467658    0.8149241    0.8770322  0.00   -0.0000001   -0.0000001    0.0000000
h    -4.3956251    0.2947827   -1.4131402  0.00   -0.0000014   -0.0000010   -0.0000001
h    -3.4964853    1.6042810   -1.9643751  0.00    0.0000003    0.0000016   -0.0000016
o    -2.0594644    1.9260669    1.8759914  0.00    0.0000006   -0.0000008    0.0000020
o    -1.9000431    3.2818987   -0.0927106  0.00    0.0000006    0.0000004    0.0000003
h    -2.3475535    3.4545281   -0.9778567  0.00   -0.0000005    0.0000004   -0.0000012
    13
 Energy =       0.0702149026
c    -3.8104229    1.5841187    0.0999621  0.00   -0.0000000    0.0000000    0.0000000
c    -2.5513242    2.2780670    0.6249285  0.00   -0.0000000    0.0000000   -0.0000000
c    -5.0089081    2.5415225   -0.0363570  0.00    0.0000000   -0.0000000   -0.0000000
h    -5.9223989    1.9845504   -0.3393594  0.00   -0.0000000   -0.0000000   -0.0000000
h    -4.8114750    3.3321313   -0.7920545  0.00    0.0000000    0.0000000   -0.0000000
h    -5.2188244    3.0386321    0.9375061  0.00   -0.0000000    0.0000000    0.0000000
n    -3.5769701    0.9079670   -1.1859663  0.00    0.0000000   -0.0000000    0.0000000
h    -4.0467636    0.8149229    0.8770297  0.00   -0.0000000   -0.0000000    0.0000000
h    -4.3956194    0.2947808   -1.4131404  0.00   -0.0000000   -0.0000000   -0.0000000
h    -3.4964948    1.6042854   -1.9643769  0.00    0.0000000    0.0000000   -0.0000000
o    -2.0594726    1.9260772    1.8759956  0.00    0.0000000   -0.0000000    0.0000000
o    -1.9000385    3.2818944   -0.0927128  0.00    0.0000000    0.0000000    0.0000000
h    -2.3475434    3.4545174   -0.9778621  0.00   -0.0000000    0.0000000   -0.0000000
