    27
 Energy =       0.9756894454
c    -1.4235396    2.6054793   -0.0667700  0.00   -0.0465781    0.0382633    0.0031908
c    -1.3072796    1.2134697   -0.1072300  0.00   -0.0859391   -0.0332635    0.0023104
c    -0.0178900    0.6711998   -0.1697000  0.00   -0.0888187   -0.1884463   -0.0019513
c    -0.2940599    3.4190890   -0.0891300  0.00   -0.0188450    0.0689226    0.0033508
c     0.9872197    2.8590292   -0.1560400  0.00    0.3305637    0.4646919    0.2273589
c     1.1340797    1.4562096   -0.1970299  0.00    0.1340778    0.1495451   -0.0056709
n     0.3879399   -0.6395298   -0.2140799  0.00    0.1417826    0.1071374   -0.0015940
c     2.2666594    0.5727398   -0.2659299  0.00    0.3362906   -0.1302627    0.1877350
c     1.7555995   -0.7123598   -0.2706899  0.00   -0.0918484   -0.0929542    0.0118742
h    -0.2400399   -1.4313496   -0.2047299  0.00    0.0367100    0.0484257   -0.0011429
c     3.7030089    1.0223397   -0.3320099  0.00   -0.1271137   -0.6757322    1.4452483
c     4.0547688    2.2615794    0.5049969  0.00    0.0242420   -0.1716487   -0.0844097
h     3.9407589    1.2278196   -1.3843196  0.00   -0.0013564   -0.0060131    0.0129328
h     4.3455988    0.1801669   -0.0411573  0.00   -0.6888693    0.0489177    1.1191057
c     4.1070688    1.8611695    1.9910894  0.00    0.0804073    0.1830872    0.3277722
n     3.0543991    3.3796390    0.3726399  0.00   -0.3732320   -0.1736534   -0.3035677
h     5.0442386    2.6531392    0.2410219  0.00   -0.0224161    0.0103656    0.0096484
h     3.5723190    4.2128988    0.0750977  0.00   -0.0852736   -0.0645880   -0.0060405
h     2.4528293    3.1644491   -0.4302769  0.00    0.1699822    0.5796794    0.6001831
h    -2.4108593    3.0588691   -0.0157800  0.00    0.0001104    0.0001280   -0.0002639
h    -2.1896094    0.5822398   -0.0890100  0.00   -0.0034955    0.0044372   -0.0001823
h    -0.4052699    4.5000487   -0.0535400  0.00    0.0001604   -0.0000550   -0.0003881
h     1.8590495    3.5066790   -0.1715100  0.00   -0.1314280   -0.8016729   -0.4745192
h     2.2327294   -1.6813195   -0.3062999  0.00   -0.0408672   -0.0101538    0.0021155
o     4.4286787    2.5928493    2.9125692  0.00   -0.0786326   -0.1751162   -0.2215630
o     3.7415389    0.5622178    2.1634194  0.00   -0.0057038    0.0250655   -0.1492735
h     3.5614390    0.2232059    1.2484096  0.00    0.6360904    0.7948935   -2.7022590
    27
 Energy =       0.8948555164
c    -1.4100757    2.5976162   -0.2055181  0.00   -0.0432322    0.0358601    0.0029706
c    -1.3005944    1.2050995   -0.2130682  0.00   -0.0794657   -0.0308472    0.0021548
c    -0.0181802    0.6545591   -0.2449213  0.00   -0.0837291   -0.1690334   -0.0022911
c    -0.2781319    3.4077526   -0.2203654  0.00   -0.0180858    0.0638322    0.0030899
c     1.0012682    2.8446212   -0.2507782  0.00    0.2957629    0.4207509    0.1976266
c     1.1285717    1.4315900   -0.2578263  0.00    0.1227086    0.1408221   -0.0039378
n     0.3872029   -0.6643811   -0.1995889  0.00    0.1314380    0.0952399   -0.0012148
c     2.2653331    0.5591215   -0.2418521  0.00    0.3135797   -0.1217701    0.1741390
c     1.7641807   -0.7272960   -0.2105445  0.00   -0.0842921   -0.0855946    0.0107086
h    -0.2394024   -1.4605814   -0.1725047  0.00    0.0337400    0.0443475   -0.0009427
c     3.6946568    1.0332446   -0.2849946  0.00   -0.1175954   -0.6254795    1.3361309
c     4.0364984    2.2826595    0.5636564  0.00    0.0220676   -0.1580374   -0.0778531
h     3.9438346    1.2442874   -1.3347594  0.00   -0.0012394   -0.0055271    0.0118516
h     4.3347338    0.2051069    0.0056530  0.00   -0.6374009    0.0459357    1.0339304
c     4.0884085    1.8807072    2.0450524  0.00    0.0740663    0.1686999    0.3021074
n     3.0354253    3.3988139    0.4292747  0.00   -0.3394362   -0.1531729   -0.2691975
h     5.0265988    2.6761025    0.3000382  0.00   -0.0206143    0.0095002    0.0088739
h     3.5600076    4.2631680    0.2067241  0.00   -0.0729944   -0.0540698   -0.0060688
h     2.4262822    3.1192143   -0.3782859  0.00    0.1470893    0.5080353    0.5300411
h    -2.3962909    3.0557555   -0.1745331  0.00   -0.0000825    0.0002551   -0.0002291
h    -2.1858005    0.5781417   -0.1840164  0.00   -0.0032365    0.0039661   -0.0001350
h    -0.3862727    4.4890672   -0.1872384  0.00    0.0001761   -0.0000324   -0.0002726
h     1.9065426    3.4947616   -0.1756761  0.00   -0.1132042   -0.7193292   -0.4133436
h     2.2594216   -1.6899356   -0.1774360  0.00   -0.0362235   -0.0115526    0.0020187
o     4.4148379    2.6248095    2.9725238  0.00   -0.0724570   -0.1613421   -0.2042731
o     3.7267937    0.5809694    2.2257023  0.00   -0.0053100    0.0231601   -0.1377047
h     3.5555264    0.2369936    1.3092936  0.00    0.5879708    0.7353832   -2.4981796
    27
 Energy =       0.6366167558
c    -1.3843758    2.6150842   -0.2642232  0.00   -0.0259771    0.0215058    0.0024566
c    -1.2810736    1.2386688   -0.2244534  0.00   -0.0481773   -0.0193297    0.0012718
c    -0.0214755    0.6848918   -0.2147582  0.00   -0.0476625   -0.1016231   -0.0019674
c    -0.2539969    3.4062644   -0.3065944  0.00   -0.0109688    0.0376728    0.0030065
c     1.0109579    2.8398843   -0.3093341  0.00    0.1912670    0.2658927    0.1302051
c     1.1157299    1.4440934   -0.2313430  0.00    0.0760017    0.0881822    0.0016011
n     0.3288335   -0.6630441   -0.1523905  0.00    0.0777507    0.0555360   -0.0010560
c     2.2174991    0.5775019   -0.1785512  0.00    0.1999627   -0.0734457    0.1160796
c     1.7254384   -0.6979003   -0.1471674  0.00   -0.0509713   -0.0505090    0.0061653
h    -0.3143957   -1.4626524   -0.1248915  0.00    0.0201456    0.0266837   -0.0005701
c     3.6681773    0.9738132   -0.2213557  0.00   -0.0754940   -0.4365705    0.9105342
c     4.0490148    2.2302020    0.5754846  0.00    0.0133520   -0.1011169   -0.0479128
h     3.9223382    1.1544118   -1.2814862  0.00   -0.0003803   -0.0030929    0.0066942
h     4.3060731    0.1689319    0.0804395  0.00   -0.4291517    0.0393429    0.6913778
c     4.0459924    1.8851088    2.0553106  0.00    0.0444280    0.0993223    0.1766159
n     3.1123010    3.3697556    0.3585019  0.00   -0.2202823   -0.1067486   -0.1643611
h     5.0757095    2.5459035    0.3098996  0.00   -0.0095975    0.0063246    0.0041457
h     3.6920513    4.2151299    0.1927436  0.00   -0.0427150   -0.0330094   -0.0032717
h     2.4907673    3.1427168   -0.5370391  0.00    0.0928828    0.3404845    0.3349913
h    -2.3680383    3.0808293   -0.2617897  0.00   -0.0003713    0.0005652   -0.0000987
h    -2.1671823    0.6130750   -0.1920755  0.00   -0.0018772    0.0022949   -0.0000954
h    -0.3553036    4.4901744   -0.3288411  0.00   -0.0000137    0.0015964   -0.0003476
h     1.9241733    3.5861034   -0.2831023  0.00   -0.0780277   -0.4622188   -0.2774552
h     2.2708566   -1.6350166   -0.1091039  0.00   -0.0208714   -0.0073089    0.0013860
o     4.4013043    2.7432941    2.9646303  0.00   -0.0404617   -0.0889215   -0.1222837
o     3.6148536    0.6101947    2.3441847  0.00   -0.0087274    0.0128456   -0.0660991
h     3.5151463    0.1645489    1.4313165  0.00    0.3959376    0.4856454   -1.7010123
    27
 Energy =       0.6354465561
c    -1.3805635    2.6490407   -0.2715194  0.00   -0.0259117    0.0216899    0.0024133
c    -1.2909610    1.2730128   -0.1944679  0.00   -0.0477356   -0.0197702    0.0013315
c    -0.0378004    0.7055165   -0.1836454  0.00   -0.0467330   -0.0980016   -0.0023244
c    -0.2427728    3.4276357   -0.3443455  0.00   -0.0105970    0.0377890    0.0029376
c     1.0157973    2.8479106   -0.3464377  0.00    0.1888204    0.2633920    0.1284398
c     1.1078749    1.4507377   -0.2342054  0.00    0.0753134    0.0875996    0.0016424
n     0.2941128   -0.6436960   -0.0506735  0.00    0.0761017    0.0525072   -0.0007226
c     2.2003497    0.5673128   -0.1700309  0.00    0.1982330   -0.0725420    0.1146513
c     1.6907737   -0.7001345   -0.0973974  0.00   -0.0489808   -0.0496498    0.0059617
h    -0.3619336   -1.4313344    0.0338616  0.00    0.0181447    0.0241525   -0.0003084
c     3.6602861    0.9385417   -0.2434633  0.00   -0.0751776   -0.4306694    0.9001803
c     4.0643457    2.1973898    0.5300805  0.00    0.0133723   -0.0999407   -0.0474568
h     3.8994864    1.0988566   -1.3106851  0.00   -0.0003664   -0.0029510    0.0062969
h     4.3356153    0.1682644    0.0818339  0.00   -0.4230166    0.0385716    0.6823440
c     4.0865781    1.8675347    2.0143575  0.00    0.0439540    0.0978044    0.1743558
n     3.1239663    3.3292848    0.3285852  0.00   -0.2213774   -0.1113659   -0.1604403
h     5.0837529    2.5129371    0.2363560  0.00   -0.0089978    0.0061289    0.0039554
h     3.6912993    4.2015747    0.2554425  0.00   -0.0372887   -0.0261647   -0.0037036
h     2.5012599    3.1349000   -0.5842235  0.00    0.0920859    0.3369353    0.3301861
h    -2.3594140    3.1249378   -0.2682343  0.00   -0.0004459    0.0005746   -0.0000974
h    -2.1833662    0.6580891   -0.1269961  0.00   -0.0023685    0.0017308   -0.0000346
h    -0.3327509    4.5120833   -0.3879383  0.00    0.0000347    0.0018905   -0.0003589
h     1.9498215    3.5829629   -0.3266078  0.00   -0.0781763   -0.4573061   -0.2746983
h     2.2237258   -1.6444170   -0.0484997  0.00   -0.0207175   -0.0074807    0.0013924
o     4.4258996    2.7521301    2.9069242  0.00   -0.0399105   -0.0873985   -0.1205870
o     3.6564617    0.5969000    2.3265924  0.00   -0.0084200    0.0128545   -0.0642396
h     3.5195316    0.1439969    1.4193483  0.00    0.3901612    0.4796200   -1.6811166
    27
 Energy =       0.6230791729
c    -1.3851216    2.6113796   -0.2629847  0.00   -0.0258148    0.0218315    0.0023723
c    -1.2812119    1.2343300   -0.2237752  0.00   -0.0471971   -0.0201587    0.0013824
c    -0.0216511    0.6817061   -0.2156563  0.00   -0.0458106   -0.0942908   -0.0023857
c    -0.2550186    3.4038655   -0.3050570  0.00   -0.0102056    0.0378406    0.0028541
c     1.0102297    2.8386236   -0.3080315  0.00    0.1860141    0.2600837    0.1263786
c     1.1146943    1.4428187   -0.2323973  0.00    0.0744920    0.0868573    0.0016970
n     0.3278511   -0.6708182   -0.1530723  0.00    0.0743843    0.0494790   -0.0007068
c     2.2165493    0.5790643   -0.1817006  0.00    0.1960285   -0.0715859    0.1129208
c     1.7275656   -0.6986632   -0.1512410  0.00   -0.0470188   -0.0487861    0.0059090
h    -0.3157692   -1.4750159   -0.1248915  0.00    0.0161484    0.0215186   -0.0002409
c     3.6672467    0.9794612   -0.2199462  0.00   -0.0745392   -0.4229485    0.8877361
c     4.0482676    2.2347883    0.5792018  0.00    0.0133865   -0.0986213   -0.0468813
h     3.9226886    1.1632450   -1.2801349  0.00   -0.0003420   -0.0027634    0.0058100
h     4.3011237    0.1677577    0.0788974  0.00   -0.4161204    0.0371847    0.6713610
c     4.0416169    1.8880686    2.0584086  0.00    0.0432702    0.0959642    0.1715797
n     3.1156074    3.3778106    0.3569294  0.00   -0.2243145   -0.1179563   -0.1542598
h     5.0784138    2.5451984    0.3163679  0.00   -0.0081955    0.0058387    0.0037336
h     3.7065427    4.2247073    0.1689799  0.00   -0.0290563   -0.0163134   -0.0057061
h     2.4907403    3.1434265   -0.5372046  0.00    0.0913194    0.3322964    0.3243572
h    -2.3692487    3.0764180   -0.2598066  0.00   -0.0005259    0.0005903   -0.0000975
h    -2.1673402    0.6066043   -0.1906849  0.00   -0.0028427    0.0011603   -0.0000029
h    -0.3569628    4.4882755   -0.3264412  0.00    0.0000842    0.0022048   -0.0003636
h     1.9215094    3.5900740   -0.2813733  0.00   -0.0789372   -0.4513521   -0.2713479
h     2.2773133   -1.6336685   -0.1129150  0.00   -0.0204485   -0.0076828    0.0013982
o     4.4016202    2.7458262    2.9704955  0.00   -0.0391687   -0.0856411   -0.1184977
o     3.6132493    0.6115578    2.3477410  0.00   -0.0081227    0.0127523   -0.0624372
h     3.5108702    0.1651272    1.4343036  0.00    0.3835329    0.4724980   -1.6565626
    27
 Energy =       0.5731011680
c    -1.3857254    2.5695026   -0.2766106  0.00   -0.0230815    0.0195681    0.0020945
c    -1.2668531    1.1951097   -0.2691829  0.00   -0.0419232   -0.0183704    0.0013574
c    -0.0040229    0.6582869   -0.2557528  0.00   -0.0403347   -0.0814368   -0.0016200
c    -0.2647109    3.3737571   -0.2852069  0.00   -0.0087454    0.0339417    0.0024316
c     1.0055383    2.8244002   -0.2800662  0.00    0.1666564    0.2300964    0.1123904
c     1.1192203    1.4326234   -0.2363591  0.00    0.0662400    0.0774188    0.0014005
n     0.3609914   -0.6958417   -0.2561463  0.00    0.0647262    0.0420031   -0.0013199
c     2.2284852    0.5951563   -0.1907556  0.00    0.1748424   -0.0634320    0.1000859
c     1.7646639   -0.6908199   -0.2021915  0.00   -0.0400901   -0.0427694    0.0057223
h    -0.2683614   -1.5156701   -0.2836446  0.00    0.0126256    0.0167362   -0.0004370
c     3.6727718    1.0211698   -0.1862324  0.00   -0.0661818   -0.3738604    0.7917201
c     4.0289748    2.2742295    0.6426799  0.00    0.0120966   -0.0879790   -0.0410493
h     3.9503428    1.2291881   -1.2376434  0.00   -0.0002673   -0.0021957    0.0046204
h     4.2590871    0.1638214    0.0853128  0.00   -0.3712469    0.0308437    0.5953884
c     3.9791916    1.9111970    2.1155717  0.00    0.0375086    0.0840384    0.1513844
n     3.1161055    3.4323431    0.3821247  0.00   -0.2049226   -0.1081131   -0.1329115
h     5.0739810    2.5716763    0.4199851  0.00   -0.0060531    0.0048969    0.0032321
h     3.7257867    4.2445922    0.0963943  0.00   -0.0204041   -0.0072937   -0.0079447
h     2.4879894    3.1448453   -0.4962741  0.00    0.0815880    0.2920867    0.2857308
h    -2.3750542    3.0234819   -0.2800590  0.00   -0.0005884    0.0005209   -0.0000885
h    -2.1456746    0.5554755   -0.2719083  0.00   -0.0030846    0.0004937    0.0000035
h    -0.3790487    4.4572441   -0.2887918  0.00    0.0001471    0.0022084   -0.0003302
h     1.8975369    3.6074084   -0.2444523  0.00   -0.0715151   -0.3990400   -0.2406404
h     2.3394634   -1.6112306   -0.1701926  0.00   -0.0179430   -0.0071706    0.0013239
o     4.3711506    2.7416377    3.0541326  0.00   -0.0339014   -0.0751928   -0.1039669
o     3.5540740    0.6284673    2.3873047  0.00   -0.0069347    0.0115770   -0.0540011
h     3.4954725    0.1799171    1.4719755  0.00    0.3407872    0.4204239   -1.4745768
    27
 Energy =       0.4533676432
c    -1.3639839    2.6132985   -0.3943222  0.00   -0.0144047    0.0127194    0.0016881
c    -1.2668514    1.2454462   -0.3362792  0.00   -0.0257626   -0.0115670    0.0010110
c    -0.0240505    0.6904864   -0.2762112  0.00   -0.0239355   -0.0475270   -0.0018983
c    -0.2330630    3.3945705   -0.4062898  0.00   -0.0061867    0.0212506    0.0019488
c     1.0227793    2.8285985   -0.3540423  0.00    0.1080758    0.1442173    0.0732323
c     1.1008327    1.4406300   -0.2572926  0.00    0.0390292    0.0467241    0.0010565
n     0.3025716   -0.6794960   -0.2077160  0.00    0.0402963    0.0226642   -0.0001588
c     2.1863579    0.6002825   -0.1536441  0.00    0.1132454   -0.0401959    0.0673224
c     1.7158936   -0.6756740   -0.1408471  0.00   -0.0240900   -0.0262402    0.0028569
h    -0.3426108   -1.4942011   -0.2096166  0.00    0.0071461    0.0094963   -0.0000766
c     3.6478494    0.9884895   -0.1398224  0.00   -0.0449347   -0.2554416    0.5358609
c     4.0287634    2.2397955    0.6937334  0.00    0.0082030   -0.0556429   -0.0238067
h     3.9356120    1.1916113   -1.1916529  0.00   -0.0001584   -0.0011610    0.0027613
h     4.2325000    0.1236150    0.1371419  0.00   -0.2496382    0.0215311    0.4010336
c     3.9556148    1.8849107    2.1640616  0.00    0.0199829    0.0499652    0.0904972
n     3.1662135    3.4197666    0.3910194  0.00   -0.1341115   -0.0664883   -0.0811845
h     5.0905459    2.4906319    0.4787274  0.00   -0.0025445    0.0031113    0.0017261
h     3.8125032    4.2142715    0.1360206  0.00   -0.0110554   -0.0031042   -0.0049098
h     2.5604999    3.1054801   -0.5350106  0.00    0.0532480    0.1771270    0.1816883
h    -2.3458211    3.0829384   -0.4337565  0.00   -0.0010375    0.0008455   -0.0000527
h    -2.1542936    0.6186980   -0.3328458  0.00   -0.0019265    0.0000964    0.0000365
h    -0.3303644    4.4790108   -0.4475449  0.00   -0.0002146    0.0022165   -0.0002130
h     1.9459674    3.6532025   -0.3166148  0.00   -0.0464128   -0.2446781   -0.1591467
h     2.3038498   -1.5881848   -0.0811877  0.00   -0.0105186   -0.0046334    0.0008661
o     4.4009573    2.7267891    3.1127911  0.00   -0.0180645   -0.0446755   -0.0622300
o     3.5337270    0.6036274    2.4722398  0.00   -0.0041163    0.0071667   -0.0320020
h     3.4593760    0.1233738    1.5729728  0.00    0.2298860    0.2822236   -0.9979070
    27
 Energy =       0.4144996635
c    -1.3434987    2.6703025   -0.4732610  0.00   -0.0116184    0.0106507    0.0013825
c    -1.2750928    1.3057088   -0.3596330  0.00   -0.0200825   -0.0099749    0.0008134
c    -0.0483784    0.7280584   -0.2690672  0.00   -0.0182270   -0.0361107   -0.0018177
c    -0.1972871    3.4260820   -0.5138034  0.00   -0.0047173    0.0173104    0.0016532
c     1.0443666    2.8378204   -0.4330686  0.00    0.0832199    0.1074027    0.0584747
c     1.0878863    1.4530184   -0.2737396  0.00    0.0286684    0.0343960    0.0013048
n     0.2434356   -0.6487605   -0.1398328  0.00    0.0317137    0.0154423    0.0002824
c     2.1529880    0.5986805   -0.1276304  0.00    0.0889881   -0.0307554    0.0533323
c     1.6607513   -0.6660488   -0.0735816  0.00   -0.0184961   -0.0210035    0.0019571
h    -0.4203475   -1.4509076   -0.1090233  0.00    0.0047089    0.0062411    0.0000584
c     3.6271748    0.9567464   -0.1113135  0.00   -0.0357400   -0.2013466    0.4249500
c     4.0234503    2.2054797    0.7236579  0.00    0.0069448   -0.0432550   -0.0179720
h     3.9201685    1.1539967   -1.1637643  0.00   -0.0002261   -0.0006261    0.0021521
h     4.2110917    0.0893849    0.1648983  0.00   -0.1971551    0.0179135    0.3170817
c     3.9594306    1.8454128    2.1928145  0.00    0.0100913    0.0341624    0.0637343
n     3.1797464    3.3958821    0.4062339  0.00   -0.1038860   -0.0512506   -0.0562323
h     5.0887557    2.4368172    0.5005160  0.00   -0.0017192    0.0023567    0.0012822
h     3.8420694    4.1952442    0.2079522  0.00   -0.0048303    0.0002552   -0.0033373
h     2.6359502    3.0451324   -0.5709461  0.00    0.0416927    0.1235438    0.1396375
h    -2.3152190    3.1584700   -0.5374474  0.00   -0.0012081    0.0011060   -0.0000731
h    -2.1751163    0.6973166   -0.3350373  0.00   -0.0017718   -0.0004096    0.0000593
h    -0.2715589    4.5100949   -0.6062980  0.00   -0.0002684    0.0033355   -0.0003294
h     2.0077861    3.6728999   -0.4555594  0.00   -0.0381740   -0.1727929   -0.1310675
h     2.2387360   -1.5834177    0.0195562  0.00   -0.0078206   -0.0042214    0.0007241
o     4.5159493    2.6523229    3.1357277  0.00   -0.0089131   -0.0296794   -0.0422393
o     3.5163404    0.5702994    2.5161905  0.00   -0.0029910    0.0053178   -0.0240916
h     3.4317977    0.0659322    1.6294708  0.00    0.1818170    0.2219922   -0.7917198
    27
 Energy =       0.3967556846
c    -1.3839332    2.5972491   -0.3899801  0.00   -0.0118641    0.0109692    0.0012675
c    -1.2785690    1.2308762   -0.3259227  0.00   -0.0196271   -0.0105955    0.0008413
c    -0.0363692    0.6829049   -0.2588927  0.00   -0.0177916   -0.0334818   -0.0016920
c    -0.2586625    3.3851168   -0.4000519  0.00   -0.0043229    0.0177352    0.0014972
c     0.9982871    2.8274302   -0.3408514  0.00    0.0787590    0.0990450    0.0542983
c     1.0803684    1.4381945   -0.2420894  0.00    0.0261523    0.0318758    0.0013828
n     0.2940087   -0.6923946   -0.1940131  0.00    0.0307205    0.0126070    0.0003467
c     2.1689386    0.6082906   -0.1489001  0.00    0.0858684   -0.0289905    0.0512599
c     1.7128503   -0.6712703   -0.1406326  0.00   -0.0175108   -0.0210597    0.0018916
h    -0.3464187   -1.5152288   -0.1917829  0.00    0.0037100    0.0047075    0.0000501
c     3.6379708    0.9982016   -0.1452289  0.00   -0.0341771   -0.1911804    0.4050772
c     4.0358235    2.2471827    0.6803282  0.00    0.0074465   -0.0411008   -0.0175837
h     3.9193255    1.1940404   -1.2010099  0.00   -0.0003944   -0.0003553    0.0020222
h     4.2494007    0.1525243    0.1531109  0.00   -0.1872648    0.0169928    0.3029290
c     3.9834111    1.8980984    2.1528883  0.00    0.0096290    0.0326175    0.0607727
n     3.1916263    3.4330946    0.3703260  0.00   -0.0950003   -0.0523788   -0.0449941
h     5.0998493    2.4789164    0.4501868  0.00   -0.0016082    0.0021886    0.0011903
h     3.8529625    4.2148274    0.0947814  0.00    0.0016862    0.0046366   -0.0037337
h     2.5474274    3.1055054   -0.5533493  0.00    0.0354360    0.1099382    0.1289875
h    -2.3687537    3.0615955   -0.4361365  0.00   -0.0016062    0.0014516   -0.0001002
h    -2.1620349    0.5971627   -0.3251571  0.00   -0.0022140   -0.0010200    0.0000711
h    -0.3622889    4.4709360   -0.4475449  0.00   -0.0003018    0.0046999   -0.0003919
h     1.9250143    3.6886603   -0.3105003  0.00   -0.0408515   -0.1524200   -0.1271409
h     2.3196355   -1.5751020   -0.0956092  0.00   -0.0066426   -0.0055686    0.0007721
o     4.5411530    2.7172776    3.0865921  0.00   -0.0084489   -0.0282189   -0.0402269
o     3.5374946    0.6288281    2.4926703  0.00   -0.0028823    0.0049842   -0.0228535
h     3.4428588    0.1190506    1.6107802  0.00    0.1731007    0.2119213   -0.7559406
    27
 Energy =       0.4027035265
c    -1.3874179    2.6186684   -0.3634484  0.00   -0.0121606    0.0106457    0.0012734
c    -1.2906327    1.2523400   -0.2832964  0.00   -0.0196278   -0.0106616    0.0008288
c    -0.0513806    0.6964941   -0.2299970  0.00   -0.0177130   -0.0333383   -0.0016555
c    -0.2566519    3.3985516   -0.4076552  0.00   -0.0040523    0.0176903    0.0014931
c     0.9974386    2.8331522   -0.3648443  0.00    0.0793807    0.0949345    0.0538263
c     1.0702485    1.4440431   -0.2427795  0.00    0.0259266    0.0313093    0.0014756
n     0.2708828   -0.6802182   -0.1523460  0.00    0.0300552    0.0124723    0.0003467
c     2.1556448    0.6083066   -0.1551965  0.00    0.0853141   -0.0283366    0.0506785
c     1.6912753   -0.6682205   -0.1269547  0.00   -0.0169299   -0.0208263    0.0019052
h    -0.3753367   -1.4985302   -0.1269588  0.00    0.0033571    0.0043018    0.0000658
c     3.6293167    0.9923395   -0.1575420  0.00   -0.0340700   -0.1886536    0.4008423
c     4.0340030    2.2419336    0.6645719  0.00    0.0072606   -0.0411275   -0.0180271
h     3.9069012    1.1844274   -1.2151404  0.00   -0.0004179   -0.0002995    0.0020120
h     4.2471298    0.1528113    0.1406707  0.00   -0.1852410    0.0168633    0.2996840
c     4.0180757    1.8772297    2.1352530  0.00    0.0040514    0.0265402    0.0527430
n     3.1783700    3.4268857    0.3692783  0.00   -0.0948723   -0.0518923   -0.0424969
h     5.0923203    2.4786021    0.4120129  0.00   -0.0012886    0.0021128    0.0011068
h     3.8366097    4.2200263    0.1173468  0.00    0.0024694    0.0052364   -0.0037173
h     2.5679382    3.0720920   -0.5733070  0.00    0.0335808    0.1025259    0.1256579
h    -2.3697633    3.0892251   -0.3994759  0.00   -0.0016857    0.0014316   -0.0001153
h    -2.1785555    0.6249035   -0.2586918  0.00   -0.0024586   -0.0011968    0.0000694
h    -0.3532446    4.4840007   -0.4765951  0.00   -0.0001811    0.0049418   -0.0004392
h     1.9426226    3.6944280   -0.4034438  0.00   -0.0396518   -0.1418144   -0.1257642
h     2.2927129   -1.5754132   -0.0762640  0.00   -0.0066030   -0.0055741    0.0007798
o     4.6999061    2.6355278    3.0495815  0.00   -0.0024300   -0.0213134   -0.0316403
o     3.5407558    0.6165660    2.4745045  0.00   -0.0029752    0.0043463   -0.0226732
h     3.4322074    0.1017961    1.5947283  0.00    0.1709630    0.2096822   -0.7482595
    27
 Energy =       0.3878227991
c    -1.3842981    2.5980890   -0.3829184  0.00   -0.0117863    0.0100010    0.0012237
c    -1.2800210    1.2324174   -0.3135394  0.00   -0.0187682   -0.0102166    0.0008040
c    -0.0385738    0.6839453   -0.2492926  0.00   -0.0168536   -0.0317517   -0.0015376
c    -0.2581318    3.3849351   -0.4021717  0.00   -0.0037384    0.0168928    0.0014239
c     0.9985201    2.8271869   -0.3464299  0.00    0.0763464    0.0886344    0.0508802
c     1.0785164    1.4380808   -0.2410172  0.00    0.0247008    0.0296479    0.0014403
n     0.2900389   -0.6919828   -0.1822248  0.00    0.0283795    0.0118228    0.0003004
c     2.1665419    0.6087613   -0.1514068  0.00    0.0812832   -0.0267606    0.0481809
c     1.7103382   -0.6702616   -0.1381802  0.00   -0.0158951   -0.0197754    0.0018494
h    -0.3514116   -1.5147804   -0.1735865  0.00    0.0030252    0.0038848    0.0000623
c     3.6374081    0.9977585   -0.1489037  0.00   -0.0325645   -0.1792509    0.3812327
c     4.0358603    2.2460885    0.6765851  0.00    0.0067774   -0.0397384   -0.0179153
h     3.9187840    1.1927118   -1.2049898  0.00   -0.0004097   -0.0002527    0.0019122
h     4.2528806    0.1551893    0.1520582  0.00   -0.1762544    0.0159439    0.2851106
c     3.9775948    1.8988610    2.1506460  0.00   -0.0003704    0.0189190    0.0425898
n     3.1982257    3.4345117    0.3576044  0.00   -0.0908952   -0.0497742   -0.0389811
h     5.1026953    2.4720773    0.4502163  0.00   -0.0007529    0.0019313    0.0009548
h     3.8645222    4.2111892    0.0766546  0.00    0.0032952    0.0059127   -0.0036866
h     2.5530237    3.0952780   -0.5664997  0.00    0.0306875    0.0945681    0.1181390
h    -2.3690006    3.0628877   -0.4273810  0.00   -0.0016711    0.0013569   -0.0001103
h    -2.1642620    0.5992659   -0.3067419  0.00   -0.0024928   -0.0012460    0.0000693
h    -0.3606433    4.4706144   -0.4567431  0.00   -0.0001142    0.0048324   -0.0004303
h     1.9310004    3.6965661   -0.3370991  0.00   -0.0375616   -0.1303477   -0.1191810
h     2.3183162   -1.5732953   -0.0929904  0.00   -0.0062742   -0.0053488    0.0007491
o     4.5411530    2.7269520    3.0953175  0.00    0.0024261   -0.0129729   -0.0214934
o     3.5327592    0.6278464    2.4927104  0.00   -0.0029665    0.0035082   -0.0216244
h     3.4395395    0.1110750    1.6143347  0.00    0.1624478    0.1995796   -0.7119626
    27
 Energy =       0.3691829853
c    -1.4096848    2.5242840   -0.3081143  0.00   -0.0117314    0.0100198    0.0011204
c    -1.2718891    1.1594017   -0.2872030  0.00   -0.0179114   -0.0105545    0.0007907
c    -0.0173843    0.6389788   -0.2438979  0.00   -0.0161263   -0.0289940   -0.0013263
c    -0.3033563    3.3387882   -0.2944936  0.00   -0.0032637    0.0168751    0.0012759
c     0.9658932    2.8094588   -0.2568454  0.00    0.0705625    0.0793088    0.0454306
c     1.0809321    1.4196134   -0.2120377  0.00    0.0220238    0.0266328    0.0015420
n     0.3455407   -0.7321642   -0.2369452  0.00    0.0269443    0.0092569    0.0002669
c     2.1890513    0.6157244   -0.1718344  0.00    0.0767315   -0.0247414    0.0451719
c     1.7662709   -0.6742958   -0.2027878  0.00   -0.0146956   -0.0194264    0.0017535
h    -0.2745292   -1.5721683   -0.2570921  0.00    0.0021658    0.0025088    0.0000266
c     3.6533287    1.0362215   -0.1755281  0.00   -0.0306616   -0.1668215    0.3563332
c     4.0409718    2.2881633    0.6422629  0.00    0.0068381   -0.0376380   -0.0179525
h     3.9299212    1.2291946   -1.2331674  0.00   -0.0005117   -0.0000801    0.0018039
h     4.2925992    0.2147420    0.1459247  0.00   -0.1641810    0.0147906    0.2670912
c     3.9514451    1.9631919    2.1207040  0.00   -0.0016224    0.0152949    0.0370231
n     3.2196338    3.4760536    0.2974303  0.00   -0.0801416   -0.0524769   -0.0264935
h     5.1139867    2.5065710    0.4372374  0.00   -0.0002690    0.0014733    0.0008653
h     3.8841762    4.2172067   -0.0820985  0.00    0.0111850    0.0126074   -0.0063973
h     2.4728184    3.1510146   -0.5535363  0.00    0.0244933    0.0811759    0.1070628
h    -2.4055777    2.9666240   -0.3367595  0.00   -0.0019386    0.0016039   -0.0001178
h    -2.1405028    0.5044416   -0.3049458  0.00   -0.0027765   -0.0017434    0.0000638
h    -0.4320376    4.4240397   -0.3044707  0.00   -0.0001576    0.0059206   -0.0004395
h     1.8676104    3.6956255   -0.1900697  0.00   -0.0425001   -0.1093488   -0.1123784
h     2.3999228   -1.5618325   -0.2005927  0.00   -0.0051600   -0.0062517    0.0007190
o     4.4390873    2.8364875    3.0716693  0.00    0.0038435   -0.0091762   -0.0165737
o     3.5275300    0.6888548    2.4762757  0.00   -0.0028400    0.0032582   -0.0197805
h     3.4556183    0.1577480    1.6049270  0.00    0.1517008    0.1865257   -0.6668814
    27
 Energy =       0.3629050118
c    -1.4197922    2.4837618   -0.2150324  0.00   -0.0118058    0.0103921    0.0011057
c    -1.2649518    1.1200074   -0.2289065  0.00   -0.0178943   -0.0105819    0.0007822
c    -0.0033618    0.6136864   -0.2179187  0.00   -0.0160915   -0.0280251   -0.0012538
c    -0.3234136    3.3114126   -0.1970038  0.00   -0.0036216    0.0170840    0.0012415
c     0.9522413    2.7960631   -0.1911043  0.00    0.0667444    0.0771334    0.0440605
c     1.0854761    1.4069234   -0.1865221  0.00    0.0209349    0.0258322    0.0015897
n     0.3778129   -0.7531964   -0.2565882  0.00    0.0265241    0.0082870    0.0002473
c     2.2049092    0.6172781   -0.1964469  0.00    0.0762075   -0.0249155    0.0445502
c     1.7989619   -0.6770112   -0.2522320  0.00   -0.0138517   -0.0195955    0.0016890
h    -0.2314871   -1.6009649   -0.2860235  0.00    0.0020392    0.0022560    0.0000181
c     3.6660642    1.0570417   -0.2084358  0.00   -0.0302856   -0.1634584    0.3499025
c     4.0424093    2.3142706    0.5998202  0.00    0.0068271   -0.0379893   -0.0184918
h     3.9385221    1.2452777   -1.2679427  0.00   -0.0005508   -0.0000181    0.0017604
h     4.3261335    0.2565357    0.1282861  0.00   -0.1607531    0.0143522    0.2621196
c     3.9139133    2.0081690    2.0807205  0.00   -0.0024887    0.0134319    0.0348171