    24
 Energy =       3.6190493895
c     0.0448833    2.3534058   -1.3813971  0.00   -0.0473935    0.0517832   -0.0541563
c     0.1418476    2.9248573   -0.1206726  0.00   -0.0509843    0.0957344   -0.0078230
c     0.7555652    2.2402731    0.9181560  0.00   -0.0013265    0.0613786    0.0777859
c     0.5800579    1.0803682   -1.5985351  0.00   -0.0538742   -0.2406329   -0.2365508
c     1.2047783    0.3610782   -0.5608861  0.00    0.0849347   -0.0887034    0.0390858
c     1.2772621    0.9610456    0.7017654  0.00    0.0250589   -0.0339786    0.0375828
o    -0.3596449    4.1638607    0.1435223  0.00   -0.0079491   -0.0385033    0.0737692
h    -1.0078207    4.0887669    0.8629229  0.00    0.0453870   -0.0119512   -0.0603742
h     1.7275121    0.4624698    1.5506282  0.00   -0.0067039    0.0137571    0.0061053
h     0.4997167    0.6426498   -2.5929302  0.00   -7.8775881  -32.8641479   -7.7927142
h    -0.4370006    2.8749235   -2.2021886  0.00    0.0006355   -0.0084910   -0.0080922
h     0.8245662    2.6993933    1.9006814  0.00   -0.0000159    0.0002564    0.0018427
c     1.7669373   -1.0073413   -0.8964724  0.00   -0.0491232   -0.0273773   -0.0080745
c     0.8861134   -2.0194266   -1.6556448  0.00    0.1059130   -0.0069115   -0.0533005
h     2.1212937   -1.4658931    0.0371405  0.00   -0.0068558    0.0113902   -0.0099621
h     2.6645729   -0.8285312   -1.5058794  0.00   -0.0107619    0.0008376    0.0070802
c    -0.2550706   -2.4993401   -0.7313897  0.00   -0.0548080   -0.0705227    0.3342956
o    -0.1765299   -2.6781136    0.4736491  0.00   -0.0218673    0.0548924   -0.2856406
o    -1.3862936   -2.7453732   -1.4466837  0.00    0.1762080    0.2011303   -0.2957686
h    -1.5213325   -3.7253525   -1.3910885  0.00    0.0259631    0.0319373   -0.0088556
n     0.2410616   -1.4915667   -2.9017470  0.00   -0.1161698    0.0551221    0.0001300
h     1.4642165   -2.9122299   -1.9206526  0.00   -0.0130375    0.0131283   -0.0017730
h    -0.7513888   -1.7528500   -2.8797219  0.00   -0.0658335   -0.1734847    0.2886521
h     0.2327904   -0.4700704   -2.8568985  0.00    7.9201923   32.9733564    7.9567559
    24
 Energy =       1.9328417377
c     0.1310907    2.3970293   -1.3664479  0.00   -0.0148786    0.0125665   -0.0159160
c     0.1863283    2.9127036   -0.1061682  0.00   -0.0137142    0.0273095   -0.0019395
c     0.7603416    2.1992887    0.9038755  0.00    0.0005731    0.0198855    0.0217777
c     0.6409339    1.1536855   -1.6145302  0.00   -0.0234052   -0.0979116   -0.0928600
c     1.1967152    0.4064647   -0.5981601  0.00    0.0267914   -0.0253193    0.0129054
c     1.2637099    0.9491271    0.6614542  0.00    0.0079706   -0.0086323    0.0106298
o    -0.3541750    4.1569506    0.1604289  0.00    0.0107106   -0.0090612    0.0180419
h    -1.1110529    4.0658777    0.8231054  0.00    0.0005420   -0.0074236   -0.0127886
h     1.7048588    0.3935521    1.4851669  0.00   -0.0006684    0.0025315    0.0022802
h     0.5567316    0.7032153   -2.6344163  0.00   -3.9524351  -16.4901832   -3.9210081
h    -0.3333977    2.9679103   -2.1639740  0.00   -0.0005861   -0.0019193   -0.0028996
h     0.8092428    2.6258787    1.9017473  0.00    0.0005524    0.0003298    0.0014708
c     1.7629664   -0.9711075   -0.9032238  0.00   -0.0151453   -0.0066006   -0.0013733
c     0.8077815   -1.9905927   -1.5774457  0.00    0.0285080   -0.0066445   -0.0104185
h     2.1553666   -1.4274668    0.0287097  0.00   -0.0025219    0.0031455   -0.0024536
h     2.6370818   -0.8282048   -1.5739028  0.00   -0.0014595    0.0005966   -0.0002028
c    -0.3482906   -2.4392153   -0.7015089  0.00   -0.0056603   -0.0139573    0.1072600
o    -0.2450723   -2.6257292    0.6187327  0.00   -0.0053116    0.0167283   -0.0849470
o    -1.4727224   -2.8464967   -1.4203176  0.00    0.0553038    0.1604255   -0.1560788
h    -1.3837853   -3.8841056   -1.5266611  0.00    0.0198684   -0.0572470   -0.0107115
n     0.2678202   -1.5136331   -2.8740400  0.00   -0.0370189    0.0194280    0.0029115
h     1.3826420   -2.9197235   -1.7746616  0.00   -0.0030722    0.0014784   -0.0015722
h    -0.7521754   -1.7581364   -2.8899137  0.00   -0.0449811   -0.0890213    0.1505817
h     0.2751540   -0.4702682   -2.9121711  0.00    3.9700380   16.5494961    3.9873104
    24
 Energy =       1.4229649752
c     0.1914293    2.4348867   -1.3387491  0.00   -0.0096473    0.0085403   -0.0106145
c     0.2266649    2.9249590   -0.0712454  0.00   -0.0118643    0.0162133   -0.0002046
c     0.7473569    2.1780316    0.9389196  0.00    0.0003813    0.0123951    0.0153371
c     0.6739475    1.1868444   -1.5964946  0.00   -0.0161623   -0.0648843   -0.0622619
c     1.1787402    0.4073081   -0.5804791  0.00    0.0180937   -0.0171870    0.0090443
c     1.2228348    0.9227242    0.6883983  0.00    0.0058256   -0.0059249    0.0076741
o    -0.2785111    4.1852692    0.2013953  0.00    0.0616430    0.0076048   -0.0165527
h    -1.2116024    4.0717091    0.6643523  0.00   -0.0511020   -0.0164870    0.0184234
h     1.6289443    0.3395252    1.5123670  0.00    0.0001014    0.0009760    0.0022183
h     0.6034378    0.7501490   -2.6332740  0.00   -2.7832851  -11.6113376   -2.7651829
h    -0.2318589    3.0371391   -2.1370375  0.00   -0.0009240   -0.0004581   -0.0027562
h     0.7788702    2.5870029    1.9447903  0.00    0.0005347    0.0001900    0.0014095
c     1.7445816   -0.9737758   -0.8854220  0.00   -0.0098903   -0.0040870   -0.0006808
c     0.8006818   -1.9876690   -1.5905861  0.00    0.0191577   -0.0044543   -0.0060682
h     2.1172541   -1.4440382    0.0496644  0.00   -0.0015519    0.0018395   -0.0014396
h     2.6354082   -0.8297639   -1.5347222  0.00   -0.0007020    0.0003894   -0.0004507
c    -0.3683211   -2.4695935   -0.7510739  0.00   -0.0037467   -0.0104630    0.0672577
o    -0.3045256   -2.6189482    0.5955660  0.00   -0.0036743    0.0117284   -0.0525900
o    -1.4748782   -2.9057367   -1.4807154  0.00    0.0364167    0.1147653   -0.1083070
h    -1.4286370   -3.9417490   -1.5031297  0.00    0.0145093   -0.0432995   -0.0087837
n     0.3033825   -1.4978520   -2.8960100  0.00   -0.0234825    0.0137814    0.0013749
h     1.3889827   -2.9100413   -1.7850749  0.00   -0.0021011    0.0008720   -0.0013050
h    -0.7201671   -1.7336675   -2.9482061  0.00   -0.0334688   -0.0618494    0.1056614
h     0.3140783   -0.4557095   -2.9175555  0.00    2.7949391   11.6511366    2.8087971
    24
 Energy =       0.9841261113
c     0.2580047    2.4815894   -1.3246919  0.00   -0.0063117    0.0059594   -0.0087918
c     0.2343753    2.9368690   -0.0457337  0.00   -0.0076900    0.0098585   -0.0007528
c     0.6674583    2.1444901    0.9730421  0.00    0.0017989    0.0048680    0.0124344
c     0.7088521    1.2256985   -1.5879908  0.00   -0.0106374   -0.0378081   -0.0389322
c     1.1376189    0.4079507   -0.5664720  0.00    0.0111347   -0.0113738    0.0059085
c     1.1221851    0.8869765    0.7157438  0.00    0.0041732   -0.0034557    0.0070495
o    -0.2404304    4.2144871    0.2218657  0.00    0.0491037    0.0079698   -0.0160149
h    -1.1059470    4.1432073    0.7969746  0.00   -0.0420809   -0.0118735    0.0166439
h     1.4701912    0.2713051    1.5450023  0.00    0.0009989   -0.0005398    0.0032476
h     0.6671844    0.8084865   -2.6421589  0.00   -1.8131973   -7.5606745   -1.8064230
h    -0.1018119    3.1198298   -2.1282480  0.00   -0.0013822    0.0012283   -0.0036252
h     0.6578053    2.5252443    1.9910532  0.00    0.0010252    0.0000687    0.0023996
c     1.7184731   -0.9715866   -0.8654799  0.00   -0.0058284   -0.0016269    0.0002500
c     0.8104339   -1.9846591   -1.6230817  0.00    0.0133341   -0.0020369   -0.0006191
h     2.0565798   -1.4554056    0.0776320  0.00   -0.0007211    0.0007471   -0.0002358
h     2.6368127   -0.8173518   -1.4749289  0.00    0.0004765    0.0002583   -0.0009934
c    -0.3828763   -2.5133889   -0.8462295  0.00   -0.0001194   -0.0122884    0.0162293
o    -0.4442516   -2.4950731    0.5392982  0.00   -0.0005281    0.0117312   -0.0013502
o    -1.4218518   -3.0487171   -1.6168631  0.00    0.0126760    0.0995751   -0.0819110
h    -1.4354163   -4.0782142   -1.4484262  0.00    0.0121721   -0.0556717   -0.0013794
n     0.3755712   -1.4791624   -2.9421674  0.00   -0.0108654    0.0095385   -0.0011093
h     1.4231407   -2.8940598   -1.8081336  0.00   -0.0011847    0.0002490   -0.0012686
h    -0.6420846   -1.7331258   -3.0603202  0.00   -0.0263102   -0.0398132    0.0678038
h     0.3680770   -0.4383862   -2.9340086  0.00    1.8199633    7.5851106    1.8314399
    24
 Energy =       0.8699887571
c     0.2773751    2.4977952   -1.3309800  0.00   -0.0053249    0.0053028   -0.0076581
c     0.2407770    2.9460104   -0.0506039  0.00   -0.0065781    0.0084852   -0.0007099
c     0.6479239    2.1414474    0.9689323  0.00    0.0017033    0.0039471    0.0109919
c     0.7149276    1.2381217   -1.5958542  0.00   -0.0091187   -0.0326021   -0.0336328
c     1.1242390    0.4115282   -0.5743167  0.00    0.0095932   -0.0099311    0.0051564
c     1.0938546    0.8818675    0.7100244  0.00    0.0036390   -0.0030444    0.0062869
o    -0.2201606    4.2301698    0.2152632  0.00    0.0448643    0.0074049   -0.0153588
h    -1.0511422    4.1783343    0.8369915  0.00   -0.0383954   -0.0104629    0.0159223
h     1.4261138    0.2580979    1.5395891  0.00    0.0008681   -0.0006122    0.0029653
h     0.6775851    0.8260900   -2.6524062  0.00   -1.5742159   -6.5636342   -1.5686686
h    -0.0633120    3.1454417   -2.1349632  0.00   -0.0010809    0.0012487   -0.0032424
h     0.6291532    2.5157060    1.9890188  0.00    0.0009971    0.0000413    0.0021842
c     1.7097520   -0.9661628   -0.8729568  0.00   -0.0050172   -0.0013394    0.0001834
c     0.8078643   -1.9815905   -1.6337461  0.00    0.0116237   -0.0017723   -0.0006792
h     2.0484789   -1.4506211    0.0699828  0.00   -0.0007752    0.0005156   -0.0001434
h     2.6296161   -0.8091221   -1.4790851  0.00    0.0003736    0.0000928   -0.0007449
c    -0.3705239   -2.5329928   -0.8494544  0.00   -0.0010069   -0.0073708   -0.0015953
o    -0.3513313   -2.6538262    0.5410414  0.00   -0.0003013    0.0076572    0.0144337
o    -1.4305707   -3.0456037   -1.6035312  0.00    0.0119065    0.0954538   -0.0738527
h    -1.5273810   -4.0555558   -1.3558293  0.00    0.0093028   -0.0581519    0.0014145
n     0.3688497   -1.4750747   -2.9504621  0.00   -0.0093325    0.0081867   -0.0010271
h     1.4299469   -2.8837489   -1.8244670  0.00   -0.0010928    0.0001151   -0.0010573
h    -0.6493037   -1.7246041   -3.0699414  0.00   -0.0228036   -0.0344070    0.0585725
h     0.3753619   -0.4347037   -2.9465679  0.00    1.5801717    6.5848772    1.5902596
    24
 Energy =       0.7732419215
c     0.2566753    2.4905002   -1.3735558  0.00   -0.0045091    0.0045345   -0.0078033
c     0.1576628    2.9371660   -0.0950790  0.00   -0.0060432    0.0073074    0.0003552
c     0.5398681    2.1394637    0.9400403  0.00    0.0010761    0.0042212    0.0106027
c     0.7311137    1.2406997   -1.6211646  0.00   -0.0076953   -0.0286744   -0.0298464
c     1.1209875    0.4256515   -0.5860294  0.00    0.0083567   -0.0093200    0.0031302
c     1.0258567    0.8910343    0.6973345  0.00    0.0030930   -0.0024307    0.0065829
o    -0.3410696    4.2133188    0.1487070  0.00    0.0407300    0.0084321   -0.0145362
h    -1.1349951    4.1632754    0.8140253  0.00   -0.0351269   -0.0098916    0.0154132
h     1.3375051    0.2718636    1.5382998  0.00    0.0006494   -0.0004801    0.0030702
h     0.7403296    0.8192803   -2.6741890  0.00   -1.3739500   -5.7310470   -1.3704286
h    -0.0675469    3.1304762   -2.1901441  0.00   -0.0009201    0.0011528   -0.0031054
h     0.4704001    2.5106694    1.9599640  0.00    0.0006523    0.0006088    0.0031216
c     1.7467193   -0.9361105   -0.8694325  0.00   -0.0039028   -0.0013767   -0.0002638
c     0.8622162   -1.9780405   -1.6133304  0.00    0.0100793   -0.0016286   -0.0004388
h     2.1041074   -1.3998379    0.0776913  0.00   -0.0004422    0.0000088    0.0001101
h     2.6594105   -0.7625587   -1.4820534  0.00    0.0005123    0.0001867   -0.0005695
c    -0.2940445   -2.5426567   -0.8054917  0.00   -0.0008071   -0.0057597   -0.0025123
o    -0.2302111   -2.6873384    0.5814082  0.00   -0.0003907    0.0062133    0.0139679
o    -1.3701840   -3.0608658   -1.5285858  0.00    0.0104820    0.0849822   -0.0647954
h    -1.4984687   -4.0508134   -1.2329710  0.00    0.0076667   -0.0530695    0.0016085
n     0.4040933   -1.4965896   -2.9351452  0.00   -0.0080008    0.0057879   -0.0015997
h     1.5019336   -2.8696321   -1.7966291  0.00   -0.0008244   -0.0001300   -0.0008277
h    -0.6186908   -1.7371745   -3.0368766  0.00   -0.0202162   -0.0301133    0.0507487
h     0.4344250   -0.4547773   -2.9711153  0.00    1.3795307    5.7504860    1.3880157
    24
 Energy =       0.6631999485
c     0.2408085    2.4808761   -1.4228722  0.00   -0.0035248    0.0037033   -0.0075084
c     0.0813790    2.9262357   -0.1496278  0.00   -0.0053604    0.0058576    0.0013027
c     0.4390312    2.1357832    0.9002737  0.00    0.0004244    0.0042047    0.0096997
c     0.7501671    1.2413679   -1.6507088  0.00   -0.0061284   -0.0241158   -0.0253598
c     1.1199560    0.4384030   -0.6024285  0.00    0.0070116   -0.0083904    0.0013290
c     0.9625493    0.8987826    0.6764594  0.00    0.0024609   -0.0018545    0.0064708
o    -0.4541478    4.1939090    0.0691098  0.00    0.0359985    0.0092322   -0.0142204
h    -1.2021167    4.1555256    0.7831632  0.00   -0.0314083   -0.0091777    0.0151414
h     1.2533875    0.2841814    1.5280869  0.00    0.0004095   -0.0003669    0.0029973
h     0.8040887    0.8109914   -2.6972248  0.00   -1.1482956   -4.7926283   -1.1466108
h    -0.0669695    3.1125899   -2.2518041  0.00   -0.0007284    0.0010267   -0.0028526
h     0.3205940    2.5036313    1.9174667  0.00    0.0002700    0.0010548    0.0036935
c     1.7813831   -0.9083379   -0.8680283  0.00   -0.0027519   -0.0012228   -0.0006373
c     0.9100704   -1.9761591   -1.5889998  0.00    0.0084743   -0.0013658   -0.0001583
h     2.1581053   -1.3481836    0.0836797  0.00   -0.0001047   -0.0004143    0.0004264
h     2.6853427   -0.7231683   -1.4902044  0.00    0.0005708    0.0002790   -0.0003821
c    -0.2189081   -2.5512713   -0.7494755  0.00   -0.0004848   -0.0038769   -0.0031815
o    -0.1010788   -2.7157136    0.6317697  0.00   -0.0003035    0.0046372    0.0134427
o    -1.3186165   -3.0714032   -1.4311491  0.00    0.0090136    0.0739835   -0.0552393
h    -1.4881584   -4.0312702   -1.0742178  0.00    0.0054001   -0.0483217    0.0023955
n     0.4265089   -1.5212501   -2.9135758  0.00   -0.0061381    0.0025113   -0.0022507
h     1.5655670   -2.8573758   -1.7677079  0.00   -0.0005777   -0.0003011   -0.0005586
h    -0.6041776   -1.7403591   -2.9884537  0.00   -0.0178827   -0.0254355    0.0419412
h     0.4933283   -0.4807813   -2.9978529  0.00    1.1536557    4.8109815    1.1601196
    24
 Energy =       0.5874815889
c     0.2371943    2.4700681   -1.4579882  0.00   -0.0029515    0.0032089   -0.0065107
c     0.0614445    2.9165446   -0.1879943  0.00   -0.0046913    0.0049135    0.0012827
c     0.4162342    2.1306739    0.8662765  0.00    0.0002862    0.0036983    0.0083695
c     0.7592726    1.2351317   -1.6781814  0.00   -0.0052286   -0.0208880   -0.0219481
c     1.1291652    0.4402382   -0.6266036  0.00    0.0060056   -0.0073603    0.0010278
c     0.9542883    0.8990074    0.6493876  0.00    0.0021086   -0.0016140    0.0056058
o    -0.4884984    4.1805017    0.0204651  0.00    0.0323644    0.0085430   -0.0136899
h    -1.2008924    4.1563199    0.7677922  0.00   -0.0283164   -0.0082395    0.0143500
h     1.2419642    0.2868254    1.5035210  0.00    0.0003174   -0.0003119    0.0025928
h     0.8234398    0.7992109   -2.7186818  0.00   -0.9951846   -4.1542023   -0.9936562
h    -0.0699048    3.0965854   -2.2906643  0.00   -0.0005883    0.0008966   -0.0024742
h     0.2839353    2.4976381    1.8816029  0.00    0.0002003    0.0009801    0.0032333
c     1.7996353   -0.9007741   -0.8887343  0.00   -0.0023317   -0.0007341   -0.0004512
c     0.9146999   -1.9794189   -1.5746799  0.00    0.0078664   -0.0010316    0.0000653
h     2.2026898   -1.3243380    0.0601009  0.00    0.0001043   -0.0005336    0.0007743
h     2.6874137   -0.7173467   -1.5348452  0.00    0.0007960    0.0003745   -0.0005222
c    -0.1864904   -2.5445333   -0.6909968  0.00    0.0002385   -0.0023877   -0.0030116
o    -0.0114853   -2.7124707    0.6841489  0.00    0.0000348    0.0037460    0.0135910
o    -1.3206787   -3.0542851   -1.3209441  0.00    0.0069253    0.0653195   -0.0491233
h    -1.5198216   -3.9860684   -0.9154647  0.00    0.0037137   -0.0443812    0.0027741
n     0.3946820   -1.5418046   -2.8933574  0.00   -0.0037372   -0.0005600   -0.0031261
h     1.5681471   -2.8609093   -1.7593564  0.00   -0.0004812   -0.0002770   -0.0004997
h    -0.6473388   -1.7229045   -2.9265552  0.00   -0.0181916   -0.0226067    0.0360255
h     0.5089979   -0.5068881   -3.0225698  0.00    1.0007409    4.1734476    1.0053210
    24
 Energy =       0.4922254315
c     0.2332334    2.4619130   -1.4944308  0.00   -0.0021526    0.0025386   -0.0054731
c     0.0237609    2.9059732   -0.2294013  0.00   -0.0039007    0.0037082    0.0015096
c     0.3640343    2.1227014    0.8316607  0.00    0.0000423    0.0030958    0.0068691
c     0.7738849    1.2337935   -1.7032488  0.00   -0.0040719   -0.0168212   -0.0177482
c     1.1311273    0.4446549   -0.6457489  0.00    0.0047999   -0.0060537    0.0003788
c     0.9215296    0.8982058    0.6257314  0.00    0.0016283   -0.0012170    0.0047497
o    -0.5463490    4.1646960   -0.0366960  0.00    0.0283373    0.0079131   -0.0142139
h    -1.2058470    4.1655475    0.7557017  0.00   -0.0250008   -0.0071685    0.0145231
h     1.1964445    0.2869414    1.4844088  0.00    0.0001983   -0.0002352    0.0021906
h     0.8626301    0.7959361   -2.7381574  0.00   -0.8045074   -3.3595927   -0.8036438
h    -0.0638683    3.0844895   -2.3331733  0.00   -0.0004196    0.0007214   -0.0020618
h     0.2043937    2.4852978    1.8442420  0.00    0.0000778    0.0009820    0.0028799
c     1.8174088   -0.8888140   -0.8979025  0.00   -0.0016911   -0.0005138   -0.0004821
c     0.9330100   -1.9811429   -1.5611119  0.00    0.0065659   -0.0005676    0.0001976
h     2.2366532   -1.2953745    0.0515598  0.00    0.0002025   -0.0005966    0.0008330
h     2.6960029   -0.7039765   -1.5559624  0.00    0.0007050    0.0003531   -0.0004202
c    -0.1389877   -2.5528970   -0.6447937  0.00    0.0005934   -0.0011359   -0.0028643
o     0.0872716   -2.7308289    0.7213418  0.00    0.0002673    0.0026596    0.0124186
o    -1.2987277   -3.0570827   -1.2291136  0.00    0.0062388    0.0565971   -0.0420330
h    -1.5400812   -3.9440417   -0.7567116  0.00    0.0011934   -0.0407063    0.0045249
n     0.3822249   -1.5563463   -2.8728091  0.00   -0.0015199   -0.0030391   -0.0032011
h     1.5934622   -2.8557973   -1.7535285  0.00   -0.0003244   -0.0002880   -0.0003305
h    -0.6675747   -1.6950055   -2.8697279  0.00   -0.0171885   -0.0186435    0.0288064
h     0.5424568   -0.5318392   -3.0464513  0.00    0.8099267    3.3780102    0.8125906
    24
 Energy =       0.3976842919
c     0.2252073    2.4541483   -1.5282151  0.00   -0.0013844    0.0018908   -0.0044177
c    -0.0215324    2.8922965   -0.2685003  0.00   -0.0030885    0.0025671    0.0017649
c     0.3038338    2.1100855    0.7980823  0.00   -0.0001952    0.0024943    0.0053646
c     0.7882652    1.2351562   -1.7267300  0.00   -0.0029132   -0.0128889   -0.0136509
c     1.1313104    0.4497255   -0.6642952  0.00    0.0036367   -0.0047590   -0.0002700
c     0.8832732    0.8945436    0.6022516  0.00    0.0011444   -0.0008171    0.0039210
o    -0.6150905    4.1436336   -0.0907578  0.00    0.0238711    0.0070570   -0.0147725
h    -1.2142544    4.1749105    0.7453575  0.00   -0.0213493   -0.0059028    0.0147554
h     1.1444298    0.2826945    1.4644998  0.00    0.0000847   -0.0001514    0.0017866
h     0.9056840    0.7995242   -2.7566690  0.00   -0.6183277   -2.5839226   -0.6183035
h    -0.0612696    3.0739991   -2.3721604  0.00   -0.0002669    0.0005321   -0.0016417
h     0.1136336    2.4650621    1.8077241  0.00   -0.0000489    0.0009836    0.0025598
c     1.8354240   -0.8749127   -0.9068124  0.00   -0.0010766   -0.0003540   -0.0005506
c     0.9553598   -1.9814011   -1.5509647  0.00    0.0052981    0.0000120    0.0003496
h     2.2693208   -1.2646268    0.0432209  0.00    0.0002777   -0.0006123    0.0008082
h     2.7059724   -0.6868325   -1.5744196  0.00    0.0005765    0.0003111   -0.0003016
c    -0.0826676   -2.5685148   -0.6037514  0.00    0.0008181   -0.0002920   -0.0024737
o     0.1950041   -2.7543307    0.7513954  0.00    0.0004797    0.0016514    0.0108869
o    -1.2648959   -3.0707535   -1.1411718  0.00    0.0059268    0.0475611   -0.0353844
h    -1.5459856   -3.9013547   -0.5979585  0.00   -0.0013757   -0.0364199    0.0066679
n     0.3691722   -1.5642753   -2.8507713  0.00    0.0009221   -0.0050903   -0.0032317
h     1.6257627   -2.8453432   -1.7577496  0.00   -0.0000695   -0.0003580   -0.0001826
h    -0.6859598   -1.6507993   -2.8057138  0.00   -0.0166212   -0.0145900    0.0218211
h     0.5780961   -0.5556312   -3.0702131  0.00    0.6236811    2.6010981    0.6244951
    24
 Energy =       0.3199438830
c     0.1790585    2.4499572   -1.5342469  0.00   -0.0010469    0.0017262   -0.0032456
c    -0.0774143    2.8693862   -0.2710048  0.00   -0.0024121    0.0017346    0.0016300
c     0.2658573    2.0826492    0.7865902  0.00   -0.0003226    0.0020097    0.0040063
c     0.7705522    1.2470769   -1.7455193  0.00   -0.0019421   -0.0098778   -0.0102893
c     1.1323852    0.4595695   -0.6928120  0.00    0.0026251   -0.0038195   -0.0003700
c     0.8730415    0.8829858    0.5775922  0.00    0.0009143   -0.0008163    0.0029317
o    -0.7001789    4.1059794   -0.0832891  0.00    0.0196994    0.0062281   -0.0149473
h    -1.2340896    4.1533531    0.7933087  0.00   -0.0180393   -0.0045981    0.0146833
h     1.1467552    0.2658334    1.4319209  0.00    0.0000898   -0.0002089    0.0013773
h     0.8942239    0.8241751   -2.7767714  0.00   -0.4683122   -1.9580396   -0.4685727
h    -0.1230110    3.0714358   -2.3712168  0.00   -0.0002564    0.0005164   -0.0012594
h     0.0662194    2.4200126    1.7998547  0.00   -0.0000981    0.0008680    0.0020133
c     1.8595483   -0.8482664   -0.9528901  0.00   -0.0008576   -0.0002474   -0.0005665
c     0.9795298   -1.9708499   -1.5680083  0.00    0.0053807    0.0006533    0.0011075
h     2.3316633   -1.2252858   -0.0153611  0.00    0.0006780   -0.0008207    0.0012146
h     2.7057230   -0.6442845   -1.6476095  0.00    0.0010196    0.0004370   -0.0006387
c    -0.0017797   -2.5862275   -0.5758619  0.00    0.0009363    0.0001856   -0.0020039
o     0.3438443   -2.7670449    0.7646907  0.00    0.0009728    0.0006833    0.0108672
o    -1.2021027   -3.1076438   -1.0513539  0.00    0.0043440    0.0382364   -0.0297785
h    -1.4963521   -3.8808918   -0.4392054  0.00   -0.0031127   -0.0314073    0.0080109
n     0.3293165   -1.5561652   -2.8400116  0.00    0.0020098   -0.0038213   -0.0052516
h     1.6610820   -2.8178184   -1.8091177  0.00    0.0006426   -0.0007077   -0.0001482
h    -0.7243855   -1.6102504   -2.7383953  0.00   -0.0158472   -0.0108954    0.0159472
h     0.5586070   -0.5606819   -3.0956048  0.00    0.4729350    1.9719813    0.4732824
    24
 Energy =       0.2573213394
c     0.1412643    2.4536008   -1.5419689  0.00   -0.0007133    0.0013881   -0.0024007
c    -0.1372317    2.8541621   -0.2777622  0.00   -0.0018100    0.0011257    0.0016179
c     0.2084276    2.0613123    0.7743386  0.00   -0.0004053    0.0016370    0.0029596
c     0.7586591    1.2654439   -1.7601757  0.00   -0.0012170   -0.0075208   -0.0076190
c     1.1217270    0.4727995   -0.7126639  0.00    0.0018356   -0.0029271   -0.0006749
c     0.8390762    0.8753586    0.5586472  0.00    0.0006386   -0.0005837    0.0022853
o    -0.7855505    4.0775957   -0.0857856  0.00    0.0154207    0.0051791   -0.0136622
h    -1.2625749    4.1448494    0.8193611  0.00   -0.0144008   -0.0034706    0.0133642
h     1.1132281    0.2520077    1.4080977  0.00    0.0000462   -0.0001488    0.0010287
h     0.9016323    0.8581610   -2.7934546  0.00   -0.3489002   -1.4604145   -0.3500891
h    -0.1630346    3.0788005   -2.3749789  0.00   -0.0001867    0.0003683   -0.0009066
h    -0.0099725    2.3812721    1.7890438  0.00   -0.0001449    0.0007875    0.0017089
c     1.8712371   -0.8200313   -0.9801711  0.00   -0.0006096    0.0000318   -0.0009092
c     1.0043805   -1.9581580   -1.5861704  0.00    0.0068474    0.0023974    0.0030063
h     2.3654667   -1.1857657   -0.0497112  0.00    0.0007258   -0.0007942    0.0010578
h     2.7043005   -0.5996278   -1.6855721  0.00    0.0009242    0.0004060   -0.0005953
c     0.0957754   -2.6394247   -0.5641653  0.00    0.0006271   -0.0007537    0.0003974
o     0.5025975   -2.8167954    0.7595135  0.00    0.0010708   -0.0001171    0.0101846
o    -1.1016770   -3.2059622   -0.9931072  0.00    0.0021738    0.0283484   -0.0239760
h    -1.3896543   -3.9315658   -0.3274135  0.00   -0.0034074   -0.0251362    0.0079837
n     0.2727716   -1.5274210   -2.8098000  0.00    0.0077523   -0.0056291   -0.0099650
h     1.7048234   -2.7724196   -1.8875273  0.00    0.0023145   -0.0020740   -0.0004492
h    -0.7743270   -1.5020884   -2.6161507  0.00   -0.0235549   -0.0070860    0.0126104
h     0.5567490   -0.5590999   -3.1167456  0.00    0.3549729    1.4749866    0.3530422
    24
 Energy =       0.2392233878
c     0.1681121    2.4371405   -1.5563429  0.00   -0.0006376    0.0012537   -0.0021972
c    -0.1015379    2.8443006   -0.2924527  0.00   -0.0016398    0.0010207    0.0014884
c     0.2465336    2.0542090    0.7608454  0.00   -0.0003841    0.0014994    0.0027116
c     0.7787027    1.2452488   -1.7729325  0.00   -0.0010970   -0.0069322   -0.0070227
c     1.1445508    0.4563260   -0.7247290  0.00    0.0015452   -0.0025912   -0.0005285
c     0.8704293    0.8646892    0.5463885  0.00    0.0005607   -0.0005330    0.0020927
o    -0.7436907    4.0713564   -0.1022369  0.00    0.0141400    0.0046915   -0.0127212
h    -1.2017966    4.1518548    0.8105443  0.00   -0.0132419   -0.0031124    0.0124719
h     1.1442895    0.2421651    1.3964633  0.00    0.0000406   -0.0001422    0.0009298
h     0.9162514    0.8350933   -2.8030255  0.00   -0.3167160   -1.3258101   -0.3176737
h    -0.1377547    3.0603173   -2.3901776  0.00   -0.0001663    0.0003316   -0.0008260
h     0.0341373    2.3782504    1.7753636  0.00   -0.0001371    0.0007212    0.0015689
c     1.8764773   -0.8457566   -0.9924859  0.00   -0.0004889    0.0007394   -0.0009373
c     0.9791018   -1.9746024   -1.5686815  0.00    0.0075845    0.0030848    0.0030438
h     2.3786954   -1.2091407   -0.0654519  0.00    0.0007537   -0.0006710    0.0010098
h     2.7006813   -0.6453819   -1.7144341  0.00    0.0011000    0.0004303   -0.0007826
c     0.0318290   -2.5785125   -0.5280474  0.00    0.0022965   -0.0000553    0.0025051
o     0.4414265   -2.7567327    0.7941739  0.00    0.0010122   -0.0001500    0.0092862
o    -1.2066038   -3.0784221   -0.9302873  0.00   -0.0013663    0.0245193   -0.0221281
h    -1.5264935   -3.7728127   -0.2467901  0.00   -0.0040310   -0.0241961    0.0081134
n     0.2872473   -1.5619056   -2.8233623  0.00    0.0081068   -0.0041702   -0.0109085
h     1.6547041   -2.8258060   -1.8268197  0.00    0.0031671   -0.0033106   -0.0007782
h    -0.7656221   -1.5422919   -2.6703344  0.00   -0.0226576   -0.0056483    0.0108550
h     0.5684236   -0.5925825   -3.1295096  0.00    0.3222564    1.3390304    0.3204274
    24
 Energy =       0.2098093280
c     0.1803200    2.4216929   -1.5639908  0.00   -0.0005016    0.0010270   -0.0018462
c    -0.0782970    2.8300138   -0.2985219  0.00   -0.0013618    0.0008372    0.0012637
c     0.2787204    2.0405385    0.7520771  0.00   -0.0003196    0.0012010    0.0022694
c     0.7889297    1.2298225   -1.7848795  0.00   -0.0009069   -0.0058579   -0.0059684
c     1.1639156    0.4424141   -0.7399092  0.00    0.0011595   -0.0021338   -0.0003302
c     0.9001363    0.8509487    0.5329866  0.00    0.0004362   -0.0004523    0.0017526
o    -0.7188071    4.0574386   -0.1044731  0.00    0.0121895    0.0038076   -0.0116745
h    -1.1406829    4.1549740    0.8226552  0.00   -0.0114646   -0.0024807    0.0114383
h     1.1786211    0.2274274    1.3807053  0.00    0.0000315   -0.0001322    0.0007716
h     0.9200534    0.8229184   -2.8134241  0.00   -0.2636447   -1.1037563   -0.2642300
h    -0.1321505    3.0444756   -2.3955119  0.00   -0.0001378    0.0002794   -0.0007000
h     0.0736998    2.3638233    1.7680504  0.00   -0.0001146    0.0005927    0.0013110
c     1.8827759   -0.8650163   -1.0135642  0.00   -0.0003582    0.0012198   -0.0008214
c     0.9587766   -1.9868493   -1.5584512  0.00    0.0070552    0.0031389    0.0024867
h     2.3987039   -1.2255442   -0.0930892  0.00    0.0007359   -0.0005101    0.0009429
h     2.6936550   -0.6792757   -1.7544128  0.00    0.0011569    0.0003977   -0.0008865
c    -0.0127206   -2.5217706   -0.4995426  0.00    0.0030955    0.0004874    0.0033708
o     0.4016992   -2.6916595    0.8214793  0.00    0.0007413   -0.0002124    0.0077367
o    -1.2806398   -2.9685185   -0.8742478  0.00   -0.0024827    0.0207780   -0.0193582
h    -1.6330012   -3.6140595   -0.1606128  0.00   -0.0048443   -0.0222454    0.0086094
n     0.2957989   -1.5958535   -2.8361199  0.00    0.0075099   -0.0029751   -0.0101627
h     1.6113748   -2.8663610   -1.7799390  0.00    0.0032727   -0.0037371   -0.0009216
h    -0.7593260   -1.5894685   -2.7170565  0.00   -0.0194736   -0.0040040    0.0083195
h     0.5665382   -0.6251074   -3.1445298  0.00    0.2682261    1.1147304    0.2666272
    24
 Energy =       0.1790822803
c     0.1836883    2.4088473   -1.5630322  0.00   -0.0003700    0.0008165   -0.0015336
c    -0.0591771    2.8146257   -0.2940155  0.00   -0.0010821    0.0006651    0.0010337