    13
 Energy =       0.1261668993
c    -3.7133889    1.6950595    0.3173519  0.00   -0.0531169   -0.0146380    0.0032500
c    -2.4962693    2.6345192    0.2419999  0.00    0.0742390    0.3407713    0.0692203
c    -4.9565486    2.3924193   -0.2155699  0.00    0.0055220    0.0149555    0.0181579
h    -4.7854386    2.7464192   -1.2386596  0.00   -0.0039027   -0.0021178    0.0159990
h    -5.2149185    3.2645991    0.3947669  0.00    0.0018735   -0.0124338   -0.0129027
h    -5.8205083    1.7195795   -0.2420919  0.00    0.0078816    0.0157998   -0.0034704
n    -3.4097890    0.4519539   -0.4549189  0.00    0.1116194   -0.0356336   -0.0095129
h    -3.8575589    1.4177196    1.3669296  0.00    0.0050787   -0.0113240   -0.0258385
h    -2.5963493    0.6418898   -1.0496997  0.00    0.0873726    0.1524995    0.1080981
h    -3.0749291   -0.2623099    0.1989099  0.00   -0.0129154    0.0286990   -0.0219575
o    -2.4571893    3.7760389    0.6681628  0.00   -0.0095343   -0.2774247   -0.0959470
o    -1.4389296    2.0221094   -0.3549299  0.00   -0.1796964   -0.1739145   -0.0632041
h    -1.1721897    2.6250993   -1.0934297  0.00   -0.0344210   -0.0252389    0.0181079
    13
 Energy =       0.1020946996
c    -3.7237277    1.7006586    0.3415438  0.00   -0.0332844   -0.0119428    0.0035156
c    -2.4758493    2.5928040    0.3275468  0.00    0.0530896    0.2322281    0.0444983
c    -4.9089193    2.4246484   -0.2987951  0.00    0.0008188    0.0116184    0.0136415
h    -4.6383529    2.7780311   -1.3107547  0.00   -0.0011915   -0.0001366    0.0063485
h    -5.2078210    3.3004623    0.2991490  0.00    0.0005885   -0.0079387   -0.0079215
h    -5.7821235    1.7577188   -0.4008450  0.00    0.0026057    0.0095019   -0.0030312
n    -3.4350826    0.4478836   -0.4040563  0.00    0.0768076   -0.0227861   -0.0073515
h    -3.9565878    1.4523783    1.3931252  0.00    0.0022847   -0.0090411   -0.0138471
h    -2.6099396    0.6177134   -1.0045068  0.00    0.0662210    0.1128254    0.0765286
h    -3.1141218   -0.2644806    0.2708338  0.00   -0.0087024    0.0191162   -0.0143144
o    -2.4479728    3.7833520    0.7767085  0.00   -0.0069693   -0.1872733   -0.0659259
o    -1.3965653    2.0112107   -0.2819332  0.00   -0.1296833   -0.1549036   -0.0023973
h    -1.2969437    2.5227163   -1.1691946  0.00   -0.0225850    0.0087322   -0.0297437
    13
 Energy =       0.0947134348
c    -3.7083894    1.6895767    0.3341038  0.00   -0.0289759   -0.0094359    0.0036410
c    -2.4702349    2.5915488    0.3015489  0.00    0.0479953    0.2086892    0.0397780
c    -4.9243868    2.4171962   -0.2446610  0.00    0.0028411    0.0105642    0.0136556
h    -4.7233866    2.7127585   -1.2958182  0.00    0.0002046    0.0004668    0.0012821
h    -5.1489275    3.3317090    0.3358997  0.00    0.0004740   -0.0045425   -0.0046353
h    -5.8237947    1.7679806   -0.2420919  0.00   -0.0024908    0.0055092   -0.0027958
n    -3.4432605    0.4591415   -0.4552682  0.00    0.0688603   -0.0198358   -0.0091337
h    -3.8978361    1.4166981    1.3908333  0.00    0.0017925   -0.0081940   -0.0111536
h    -2.6105202    0.6299321   -1.0492912  0.00    0.0602168    0.1024049    0.0690101
h    -3.1519175   -0.2950336    0.1914447  0.00   -0.0070119    0.0150597   -0.0113135
o    -2.4533308    3.7902032    0.7633596  0.00   -0.0065125   -0.1683906   -0.0591301
o    -1.3848641    2.0290026   -0.3180126  0.00   -0.1172710   -0.1415629    0.0002976
h    -1.2531581    2.5843830   -1.1732255  0.00   -0.0201228    0.0092676   -0.0295025
    13
 Energy =       0.0906084403
c    -3.7346897    1.7022079    0.3347108  0.00   -0.0259580   -0.0082064    0.0040359
c    -2.4833501    2.5842150    0.3274598  0.00    0.0442684    0.1944847    0.0370417
c    -4.9115008    2.4234280   -0.3329569  0.00    0.0006458    0.0088064    0.0133037
h    -4.6686398    2.6407745   -1.3981076  0.00    0.0010237    0.0012815   -0.0024950
h    -5.1314050    3.3845500    0.1771466  0.00   -0.0007351   -0.0011922   -0.0029937
h    -5.8280272    1.7976291   -0.3125765  0.00   -0.0026815    0.0046348   -0.0021978
n    -3.4503580    0.4388721   -0.3952469  0.00    0.0644281   -0.0189181   -0.0118773
h    -3.9826546    1.4749552    1.3929224  0.00    0.0009785   -0.0079426   -0.0077938
h    -2.6151496    0.5952163   -0.9925853  0.00    0.0565432    0.0958160    0.0642715
h    -3.1424102   -0.2742889    0.2933342  0.00   -0.0055312    0.0119180   -0.0085949
o    -2.4562919    3.7867949    0.7978831  0.00   -0.0057638   -0.1568479   -0.0549758
o    -1.3847770    2.0040871   -0.2562709  0.00   -0.1087737   -0.1334544    0.0015358
h    -1.2047534    2.5666556   -1.0968915  0.00   -0.0184444    0.0096200   -0.0292602
    13
 Energy =       0.0757932977
c    -3.7340371    1.6919005    0.3156217  0.00   -0.0182532   -0.0050105    0.0035367
c    -2.4804059    2.5640203    0.3013577  0.00    0.0315569    0.1399913    0.0250888
c    -4.9219655    2.4265301   -0.3155037  0.00    0.0000223    0.0062320    0.0094723
h    -4.6993263    2.6645106   -1.3804370  0.00    0.0008285    0.0009857   -0.0022099
h    -5.1329885    3.3760830    0.2212541  0.00   -0.0006840   -0.0005136   -0.0019534
h    -5.8343163    1.7945903   -0.2892955  0.00   -0.0019494    0.0033163   -0.0015980
n    -3.4909118    0.4395160   -0.4411043  0.00    0.0445837   -0.0110241   -0.0113514
h    -3.9595209    1.4578544    1.3793884  0.00    0.0006361   -0.0055187   -0.0052052
h    -2.6310344    0.5668140   -1.0196364  0.00    0.0452748    0.0736347    0.0472502
h    -3.2461393   -0.3184858    0.2326675  0.00   -0.0028840    0.0047033   -0.0033005
o    -2.4520983    3.7813042    0.8088662  0.00   -0.0041528   -0.1129345   -0.0388153
o    -1.3652625    1.9995108   -0.2761746  0.00   -0.0915839   -0.1245526    0.0271109
h    -1.0460002    2.6809484   -0.9981828  0.00   -0.0033950    0.0306907   -0.0480251
    13
 Energy =       0.0648786017
c    -3.7389709    1.6889268    0.2893111  0.00   -0.0115799   -0.0023840    0.0027367
c    -2.4703274    2.5367128    0.3000531  0.00    0.0194349    0.0909844    0.0147838
c    -4.9136192    2.4562277   -0.3260034  0.00   -0.0002572    0.0040974    0.0058752
h    -4.6883014    2.7119637   -1.3856808  0.00    0.0004996    0.0007133   -0.0016380
h    -5.1091810    3.3970007    0.2331455  0.00   -0.0004894   -0.0000040   -0.0010939
h    -5.8335593    1.8343913   -0.3107497  0.00   -0.0013710    0.0020318   -0.0010947
n    -3.5401560    0.4460663   -0.4913474  0.00    0.0223372   -0.0004888   -0.0121973
h    -3.9685842    1.4470411    1.3520396  0.00    0.0004072   -0.0034913   -0.0031907
h    -2.6348379    0.5182325   -1.0200131  0.00    0.0380356    0.0529301    0.0299264
h    -3.4048925   -0.3588539    0.1712132  0.00   -0.0005043   -0.0059829    0.0048268
o    -2.4366761    3.7621822    0.8506117  0.00   -0.0021474   -0.0733843   -0.0240168
o    -1.3332517    1.9798186   -0.2512709  0.00   -0.0671993   -0.0952395    0.0276883
h    -0.9216497    2.7053869   -0.8724875  0.00    0.0028339    0.0302178   -0.0426058
    13
 Energy =       0.0566530274
c    -3.7572996    1.6792198    0.2776908  0.00   -0.0063892   -0.0021186    0.0019402
c    -2.4902645    2.5268965    0.3343771  0.00    0.0118678    0.0555692    0.0065644
c    -4.9007360    2.4422582   -0.4003876  0.00   -0.0012289    0.0030584    0.0036946
h    -4.6292235    2.6824141   -1.4535119  0.00    0.0006430    0.0009245   -0.0021990
h    -5.1163271    3.3914437    0.1384172  0.00   -0.0003974    0.0005340   -0.0003838
h    -5.8228355    1.8229406   -0.4139932  0.00   -0.0013270    0.0015308   -0.0008140
n    -3.5431538    0.4231918   -0.4734440  0.00    0.0140022   -0.0000506   -0.0088356
h    -4.0380299    1.4594667    1.3351988  0.00   -0.0001829   -0.0023037   -0.0006422
h    -2.6472967    0.4976549   -1.0198387  0.00    0.0269145    0.0358652    0.0202921
h    -3.3849855   -0.3618543    0.2057181  0.00   -0.0010821   -0.0046903    0.0032906
o    -2.4797846    3.7426829    0.9495337  0.00   -0.0014119   -0.0436637   -0.0125315
o    -1.3324538    2.0176793   -0.2272044  0.00   -0.0516123   -0.0778646    0.0276369
h    -0.8516167    2.8011027   -0.7137344  0.00    0.0102042    0.0332094   -0.0380126
    13
 Energy =       0.0548631584
c    -3.7583359    1.6714866    0.2898808  0.00   -0.0053480   -0.0014114    0.0020101
c    -2.5080706    2.5433066    0.3368982  0.00    0.0105079    0.0525588    0.0066634
c    -4.9126428    2.4007952   -0.4072914  0.00   -0.0012466    0.0029667    0.0031271
h    -4.6407684    2.6298753   -1.4626593  0.00    0.0005704    0.0008847   -0.0021528
h    -5.1502206    3.3539621    0.1156993  0.00   -0.0004434    0.0008309   -0.0002122
h    -5.8220171    1.7623559   -0.4152363  0.00   -0.0014732    0.0012840   -0.0008159
n    -3.5149324    0.4080181   -0.4382755  0.00    0.0003065    0.0064680   -0.0119922
h    -4.0421079    1.4624591    1.3486947  0.00   -0.0002906   -0.0019988   -0.0004181
h    -2.6744196    0.5411575   -1.0678930  0.00    0.0337065    0.0365318    0.0127172
h    -3.2262324   -0.3389192    0.2542312  0.00    0.0029319   -0.0149141    0.0129580
o    -2.5164940    3.7589018    0.9561760  0.00   -0.0013044   -0.0408059   -0.0116776
o    -1.3510287    2.0656374   -0.2549072  0.00   -0.0478170   -0.0741939    0.0258675
h    -0.8767368    2.8660604   -0.7164963  0.00    0.0099001    0.0317992   -0.0360746
    13
 Energy =       0.0488556890
c    -3.7681192    1.6478173    0.2763347  0.00   -0.0027670   -0.0016872    0.0008502
c    -2.5283648    2.5301658    0.3790835  0.00    0.0037161    0.0273277   -0.0001558
c    -4.9086697    2.3783029   -0.4386650  0.00   -0.0004754    0.0015055    0.0017342
h    -4.6126402    2.6268665   -1.4825853  0.00    0.0004515    0.0005254   -0.0017131
h    -5.1687442    3.3193269    0.0956599  0.00   -0.0002848    0.0007545    0.0001437
h    -5.8103201    1.7293082   -0.4788851  0.00   -0.0013011    0.0003932   -0.0004881
n    -3.5035440    0.3994740   -0.4650124  0.00   -0.0074029    0.0068494   -0.0073599
h    -4.0822091    1.4187331    1.3231919  0.00   -0.0005300   -0.0010777    0.0005087
h    -2.7200222    0.5778861   -1.1566223  0.00    0.0262054    0.0243510    0.0033351
h    -3.1240498   -0.3237459    0.2072892  0.00    0.0036076   -0.0135321    0.0119486
o    -2.5528410    3.6987892    1.1149291  0.00   -0.0019775   -0.0148906    0.0005062
o    -1.3651544    2.1346885   -0.2693675  0.00   -0.0349580   -0.0685134    0.0200272
h    -0.8493285    2.9874842   -0.5665294  0.00    0.0157161    0.0379943   -0.0293370
    13
 Energy =       0.0450465452
c    -3.7711084    1.6468403    0.2676854  0.00   -0.0016109   -0.0010291    0.0005321
c    -2.5445721    2.5474453    0.3727204  0.00    0.0003683    0.0086211   -0.0019073
c    -4.9213013    2.3539553   -0.4550130  0.00   -0.0002591    0.0010476    0.0009090
h    -4.6252529    2.6061094   -1.4973329  0.00    0.0003029    0.0003221   -0.0010866
h    -5.2014640    3.2913425    0.0754595  0.00   -0.0001982    0.0006686    0.0001879
h    -5.8099959    1.6875219   -0.4969089  0.00   -0.0010049    0.0001292   -0.0003232
n    -3.4902610    0.3977796   -0.4637588  0.00   -0.0072958    0.0054934   -0.0054353
h    -4.0856944    1.4202631    1.3144630  0.00   -0.0003468   -0.0006402    0.0003436
h    -2.7433710    0.5919964   -1.1880448  0.00    0.0189665    0.0172597    0.0011623
h    -3.0568213   -0.2966199    0.2029417  0.00    0.0031281   -0.0106456    0.0094691
o    -2.6317416    3.7877085    0.9980892  0.00   -0.0045064    0.0022305    0.0063010
o    -1.3381802    2.1274507   -0.1837031  0.00   -0.0211162   -0.0518744    0.0111351
h    -0.7742430    2.9633037   -0.4077763  0.00    0.0135726    0.0284170   -0.0212876
    13
 Energy =       0.0423133363
c    -3.7893020    1.6478088    0.2556212  0.00   -0.0011076   -0.0010930    0.0007022
c    -2.5417494    2.5154981    0.3956193  0.00    0.0001175    0.0051786   -0.0006861
c    -4.9079460    2.3881894   -0.4841039  0.00   -0.0003611    0.0010997    0.0004390
h    -4.5841582    2.6481025   -1.5161533  0.00    0.0002508    0.0003317   -0.0011025
h    -5.1804288    3.3240686    0.0524273  0.00   -0.0001597    0.0004323    0.0000651
h    -5.8089799    1.7401915   -0.5533851  0.00   -0.0010806   -0.0003137   -0.0002753
n    -3.5278860    0.3970176   -0.4769377  0.00   -0.0077921    0.0041851   -0.0033208
h    -4.1310652    1.4201506    1.2936846  0.00   -0.0003823   -0.0006540    0.0005209
h    -2.8295126    0.5980248   -1.2447379  0.00    0.0139055    0.0118119   -0.0014505
h    -3.0386167   -0.2751647    0.1712833  0.00    0.0030013   -0.0079806    0.0078119
o    -2.6154515    3.7557907    1.0207830  0.00   -0.0026265    0.0014419    0.0037730
o    -1.3280795    2.0750564   -0.1262562  0.00   -0.0175356   -0.0394688    0.0084765
h    -0.7108314    2.8903623   -0.2490232  0.00    0.0137705    0.0250288   -0.0149535
    13
 Energy =       0.0411789669
c    -3.7977262    1.6517720    0.2478060  0.00   -0.0010694   -0.0000680    0.0038249
c    -2.5043768    2.4527073    0.3928235  0.00    0.0001492    0.0037346    0.0002606
c    -4.8971866    2.4711569   -0.4415782  0.00   -0.0012735    0.0012941   -0.0015673
h    -4.5828011    2.7555352   -1.4700379  0.00   -0.0000404    0.0003671   -0.0012668
h    -5.1159226    3.3991420    0.1357836  0.00   -0.0005805    0.0022388    0.0011026
h    -5.8289944    1.8669051   -0.5163693  0.00   -0.0020108   -0.0009259   -0.0005926
n    -3.6142077    0.4129186   -0.5312916  0.00   -0.0085929    0.0006591   -0.0050043
h    -4.1277898    1.4049061    1.2852467  0.00   -0.0001119   -0.0004052    0.0007947
h    -2.9602208    0.6160052   -1.3360631  0.00    0.0117608    0.0082530   -0.0034693
h    -3.0987340   -0.2830132    0.0697912  0.00    0.0036906   -0.0074148    0.0073909
o    -2.5131024    3.6904701    1.0299513  0.00   -0.0016676    0.0035289    0.0039915
o    -1.3112555    1.9549823   -0.1276510  0.00   -0.0133614   -0.0337768    0.0060516
h    -0.6416893    2.7316092   -0.1995896  0.00    0.0131078    0.0225150   -0.0115166
    13
 Energy =       0.0402395444
c    -3.7831885    1.6672287    0.2774801  0.00   -0.0011987    0.0032530    0.0053824
c    -2.5019788    2.5032548    0.3352620  0.00   -0.0022411    0.0068299    0.0025005
c    -4.9083604    2.4172296   -0.4509516  0.00   -0.0010760    0.0009570   -0.0019218
h    -4.6162521    2.6344004   -1.5046423  0.00    0.0001060    0.0010993   -0.0037010
h    -5.1332728    3.3813794    0.0650328  0.00   -0.0005174    0.0039866    0.0020343
h    -5.8304647    1.7915179   -0.4668396  0.00   -0.0029399   -0.0021925   -0.0006562
n    -3.5987674    0.3701722   -0.4077166  0.00   -0.0122466   -0.0052098   -0.0069738
h    -4.0887846    1.4957134    1.3405113  0.00   -0.0003547   -0.0010844    0.0039594
h    -2.9794046    0.5206651   -1.2516250  0.00    0.0111552    0.0072862   -0.0067213
h    -3.0505021   -0.2687886    0.2285443  0.00    0.0047818   -0.0086012    0.0090548
o    -2.5066397    3.7413223    0.9704750  0.00   -0.0012619    0.0028435    0.0031237
o    -1.3288293    2.0453233   -0.2674210  0.00   -0.0046400   -0.0271074    0.0030445
h    -0.6675621    2.8256783   -0.3292880  0.00    0.0104334    0.0179399   -0.0091257
    13
 Energy =       0.0383012126
c    -3.7893078    1.6862131    0.2843403  0.00    0.0024709    0.0037997    0.0014850
c    -2.5131726    2.5213132    0.3178502  0.00   -0.0011290    0.0010913    0.0001483
c    -4.8956342    2.3862970   -0.5106781  0.00   -0.0008930   -0.0003029   -0.0000454
h    -4.5793543    2.5409084   -1.5662397  0.00    0.0002106    0.0003249   -0.0013354
h    -5.1337792    3.3756875   -0.0584295  0.00   -0.0003565    0.0011707    0.0008015
h    -5.8140380    1.7617133   -0.5061717  0.00    0.0004688    0.0001982    0.0000610
n    -3.5966396    0.3436240   -0.2946552  0.00   -0.0128627   -0.0026585   -0.0009140
h    -4.1191944    1.5896132    1.3478057  0.00   -0.0004306   -0.0002556    0.0020940
h    -3.0821263    0.4422736   -1.2129549  0.00    0.0059264    0.0039478   -0.0103052
h    -2.9489626   -0.2005239    0.3358335  0.00    0.0060093   -0.0060666    0.0091162
o    -2.4966946    3.7247872    1.0152727  0.00   -0.0011830    0.0023690    0.0010340
o    -1.3695268    2.1121920   -0.3630513  0.00   -0.0118310   -0.0229898   -0.0052607
h    -0.6555769    2.8409981   -0.2501006  0.00    0.0135999    0.0193717    0.0031206
    13
 Energy =       0.0378142203
c    -3.7983300    1.6916467    0.2964948  0.00    0.0018921    0.0020107    0.0007925
c    -2.5257983    2.5306976    0.3471867  0.00   -0.0060446   -0.0016136    0.0024292
c    -4.8760495    2.3599049   -0.5645749  0.00   -0.0016114   -0.0000539   -0.0003269
h    -4.5204771    2.4760824   -1.6131991  0.00    0.0003555    0.0002122   -0.0018431
h    -5.1315397    3.3648764   -0.1580868  0.00   -0.0005258    0.0014599    0.0007814
h    -5.7940786    1.7340599   -0.5712634  0.00   -0.0000176    0.0001145   -0.0000172
n    -3.5781682    0.3303561   -0.2244362  0.00   -0.0044899   -0.0027388   -0.0014402
h    -4.1677500    1.6314305    1.3496870  0.00   -0.0004489    0.0000691    0.0020611
h    -3.0713347    0.3962931   -1.1448347  0.00    0.0021467    0.0015317   -0.0038670
h    -2.9198992   -0.1745333    0.4204608  0.00    0.0025790   -0.0027835    0.0036103
o    -2.4827251    3.6700952    1.1518516  0.00   -0.0029188    0.0088250    0.0069355
o    -1.4209311    2.2015622   -0.4436083  0.00    0.0050356   -0.0139306   -0.0099278
h    -0.7069256    2.9126251   -0.3068561  0.00    0.0040480    0.0068974    0.0008125
    13
 Energy =       0.0374655450
c    -3.8146246    1.7131410    0.3024629  0.00    0.0014274    0.0028941    0.0015206
c    -2.5444434    2.5540931    0.3584689  0.00    0.0011133   -0.0001577   -0.0000965
c    -4.8513131    2.3240282   -0.6493771  0.00   -0.0024436   -0.0000761   -0.0007152
h    -4.4444697    2.3792477   -1.6852089  0.00    0.0006134    0.0001480   -0.0026294
h    -5.1287721    3.3509398   -0.3168399  0.00   -0.0009355    0.0023821    0.0008437
h    -5.7667586    1.6942776   -0.6634566  0.00   -0.0002113    0.0000602   -0.0000846
n    -3.5674200    0.3214232   -0.1187752  0.00   -0.0004722   -0.0039761   -0.0014447
h    -4.2329377    1.7176389    1.3397936  0.00   -0.0007508    0.0002391    0.0027544
h    -3.0500123    0.3268178   -1.0339536  0.00    0.0007698   -0.0002867   -0.0018673
h    -2.9125722   -0.1281808    0.5666933  0.00    0.0015932   -0.0013815    0.0014697
o    -2.4792769    3.6523505    1.2064202  0.00   -0.0000838    0.0000830   -0.0007375
o    -1.4653924    2.2693369   -0.4693734  0.00   -0.0003856    0.0000129    0.0008856
h    -0.7360142    2.9499830   -0.2980327  0.00   -0.0002342    0.0000585    0.0001012
    13
 Energy =       0.0374207618
c    -3.8078326    1.7064869    0.3112363  0.00    0.0011575    0.0027830    0.0013630
c    -2.5387100    2.5489669    0.3579343  0.00   -0.0041232   -0.0030188    0.0014460
c    -4.8527205    2.3177945   -0.6306887  0.00   -0.0022258   -0.0000140   -0.0006721
h    -4.4523359    2.3781723   -1.6686695  0.00    0.0005735    0.0001238   -0.0023853
h    -5.1310019    3.3423120   -0.2926633  0.00   -0.0008393    0.0021531    0.0007737
h    -5.7661613    1.6850828   -0.6414587  0.00   -0.0001975    0.0000487   -0.0000700
n    -3.5601924    0.3172132   -0.1163912  0.00   -0.0004995   -0.0037022   -0.0012225
h    -4.2184126    1.7063626    1.3515706  0.00   -0.0006809    0.0002172    0.0025171
h    -3.0493353    0.3270726   -1.0352655  0.00    0.0007160   -0.0002640   -0.0017294
h    -2.9017542   -0.1345665    0.5638946  0.00    0.0014502   -0.0012314    0.0013212
o    -2.4237146    3.5754058    1.2950035  0.00   -0.0020571    0.0067822    0.0071259
o    -1.5142472    2.3420524   -0.5677908  0.00    0.0068409   -0.0042044   -0.0087863
h    -0.7775886    3.0127412   -0.3878902  0.00   -0.0001148    0.0003268    0.0003188
    13
 Energy =       0.0372695788
c    -3.8158401    1.7176316    0.3112784  0.00   -0.0000735   -0.0004496   -0.0002287
c    -2.5459645    2.5585000    0.3594801  0.00    0.0014195    0.0004380   -0.0008416
c    -4.8366277    2.2988210   -0.6692199  0.00    0.0002440    0.0000077    0.0001747
h    -4.4119813    2.3295703   -1.6962868  0.00   -0.0000837    0.0000500    0.0001993
h    -5.1209549    3.3306295   -0.3690144  0.00    0.0000852   -0.0002311   -0.0000093
h    -5.7494113    1.6653889   -0.6829173  0.00    0.0000365   -0.0000005    0.0000238
n    -3.5627867    0.3191059   -0.0683221  0.00   -0.0010329    0.0010145    0.0003141
h    -4.2494933    1.7482791    1.3390581  0.00    0.0000831   -0.0001153   -0.0002073
h    -3.0237335    0.3013160   -0.9702495  0.00    0.0004123   -0.0000067   -0.0006687
h    -2.9294668   -0.1157633    0.6445933  0.00    0.0004375   -0.0003321    0.0003957
o    -2.4042456    3.5475667    1.3229350  0.00    0.0004171   -0.0011805   -0.0019483
o    -1.5437566    2.3816776   -0.5845345  0.00   -0.0020422    0.0007727    0.0028144
h    -0.7997448    3.0423735   -0.3979790  0.00    0.0000971    0.0000329   -0.0000181
    13
 Energy =       0.0372472143
c    -3.8283092    1.7317953    0.3104661  0.00    0.0004691    0.0004743    0.0001511
c    -2.5545688    2.5660382    0.3676028  0.00    0.0012123    0.0001691   -0.0006394
c    -4.8165666    2.2863499   -0.7199138  0.00   -0.0008001    0.0000416   -0.0000387
h    -4.3605301    2.2806910   -1.7352281  0.00    0.0003590    0.0000314   -0.0009792
h    -5.1042049    3.3297515   -0.4626847  0.00   -0.0003432    0.0007213    0.0001574
h    -5.7324080    1.6574719   -0.7403258  0.00   -0.0000712    0.0000250    0.0000341
n    -3.5716121    0.3193002   -0.0154428  0.00   -0.0017881   -0.0000861    0.0001529
h    -4.2924942    1.7989299    1.3243934  0.00   -0.0004262    0.0000616    0.0009615
h    -3.0061916    0.2690106   -0.9008558  0.00    0.0011817   -0.0002605   -0.0018759
h    -2.9627899   -0.0960758    0.7309440  0.00    0.0012830   -0.0010452    0.0014357
o    -2.4080140    3.5452687    1.3409524  0.00    0.0003158   -0.0007099   -0.0012949
o    -1.5519120    2.3908224   -0.5770098  0.00   -0.0015147    0.0005053    0.0019309
h    -0.8044058    3.0457430   -0.3840765  0.00    0.0001226    0.0000722    0.0000046
    13
 Energy =       0.0372497226
c    -3.8309310    1.7353836    0.3094537  0.00    0.0004295    0.0004629    0.0001503
c    -2.5561608    2.5680219    0.3677486  0.00    0.0009512    0.0000601   -0.0005621
c    -4.8133447    2.2852942   -0.7288596  0.00   -0.0007480    0.0000387   -0.0000380
h    -4.3526844    2.2726925   -1.7419370  0.00    0.0003360    0.0000294   -0.0009149
h    -5.1003226    3.3306971   -0.4792690  0.00   -0.0003206    0.0006769    0.0001467
h    -5.7301878    1.6578877   -0.7496865  0.00   -0.0000665    0.0000220    0.0000328
n    -3.5752128    0.3204992   -0.0065895  0.00   -0.0016350   -0.0001154    0.0001424
h    -4.2997205    1.8094746    1.3206961  0.00   -0.0003981    0.0000585    0.0008997
h    -3.0062528    0.2638489   -0.8892180  0.00    0.0010894   -0.0002396   -0.0017305
h    -2.9699476   -0.0910049    0.7446728  0.00    0.0011787   -0.0009613    0.0013199
o    -2.4186658    3.5619931    1.3277430  0.00    0.0002276   -0.0004379   -0.0009197
o    -1.5435441    2.3768706   -0.5635419  0.00   -0.0011583    0.0003329    0.0014632
h    -0.7970324    3.0334385   -0.3723914  0.00    0.0001142    0.0000728    0.0000103
    13
 Energy =       0.0372308966
c    -3.8406359    1.7352515    0.3030773  0.00    0.0003418   -0.0000981   -0.0000981
c    -2.5644441    2.5632815    0.3910353  0.00    0.0000533   -0.0012214   -0.0010282
c    -4.7950035    2.2852415   -0.7608976  0.00   -0.0005572    0.0002258   -0.0000480
h    -4.3084473    2.2692431   -1.7616593  0.00    0.0003010    0.0000011   -0.0007478
h    -5.0851363    3.3316439   -0.5213328  0.00   -0.0001830    0.0003167    0.0000608
h    -5.7128679    1.6601122   -0.8040725  0.00   -0.0002652   -0.0000780   -0.0000188
n    -3.5809593    0.3195486   -0.0036151  0.00   -0.0011992    0.0001445    0.0000906
h    -4.3346715    1.8126292    1.3018467  0.00   -0.0003580    0.0000221    0.0007110
h    -2.9901636    0.2599872   -0.8711705  0.00    0.0007439   -0.0001406   -0.0011727
h    -2.9973588   -0.0922502    0.7639691  0.00    0.0008095   -0.0005968    0.0009629
o    -2.4157390    3.5089306    1.3998895  0.00    0.0001432    0.0018846    0.0019368
o    -1.5593581    2.4133490   -0.5577161  0.00   -0.0003132   -0.0009703   -0.0009628
h    -0.8092219    3.0581288   -0.3405325  0.00    0.0004830    0.0005104    0.0003143
    13
 Energy =       0.0372230932
c    -3.8392134    1.7366618    0.3052175  0.00   -0.0000789    0.0001079    0.0001350
c    -2.5674290    2.5715666    0.3855753  0.00   -0.0001403    0.0001762    0.0003028
c    -4.7949015    2.2706620   -0.7643033  0.00    0.0000880   -0.0000449   -0.0000457
h    -4.3074269    2.2471835   -1.7635436  0.00   -0.0000606    0.0000057    0.0001160
h    -5.0902146    3.3177022   -0.5357580  0.00    0.0000228    0.0000054    0.0000058
h    -5.7090634    1.6402446   -0.8022705  0.00    0.0000271   -0.0000054   -0.0000070
n    -3.5725738    0.3195806    0.0128629  0.00    0.0001666   -0.0001221   -0.0000812
h    -4.3342311    1.8216238    1.3019783  0.00    0.0000750   -0.0000048   -0.0001056
h    -2.9778371    0.2545880   -0.8504772  0.00   -0.0001281    0.0000157    0.0001818
h    -2.9922294   -0.0825932    0.7867467  0.00   -0.0000974    0.0000574   -0.0001196
o    -2.4099361    3.5029327    1.4039869  0.00   -0.0001324   -0.0002102   -0.0001976
o    -1.5739458    2.4392855   -0.5776373  0.00    0.0003330    0.0001169   -0.0001084
h    -0.8250051    3.0856587   -0.3635563  0.00   -0.0000747   -0.0000980   -0.0000763
    13
 Energy =       0.0372228318
c    -3.8394323    1.7369041    0.3053837  0.00   -0.0000003    0.0000010   -0.0000010
c    -2.5672942    2.5712647    0.3859010  0.00   -0.0000134   -0.0000181   -0.0000126
c    -4.7943062    2.2703911   -0.7652566  0.00   -0.0000003    0.0000003   -0.0000001
h    -4.3060471    2.2460282   -1.7642384  0.00    0.0000003   -0.0000003   -0.0000005
h    -5.0895714    3.3176580   -0.5377491  0.00   -0.0000004    0.0000003    0.0000001
h    -5.7086453    1.6402128   -0.8033638  0.00   -0.0000001   -0.0000002    0.0000002
n    -3.5728811    0.3195860    0.0142603  0.00   -0.0000002   -0.0000006   -0.0000000
h    -4.3352055    1.8227329    1.3018311  0.00   -0.0000005   -0.0000002    0.0000006
h    -2.9776304    0.2538357   -0.8488326  0.00    0.0000007   -0.0000001   -0.0000005
h    -2.9930782   -0.0821899    0.7888935  0.00    0.0000005   -0.0000002    0.0000006
o    -2.4054086    3.4966757    1.4093178  0.00   -0.0000026    0.0000306    0.0000416
o    -1.5773056    2.4436211   -0.5813036  0.00    0.0000138   -0.0000159   -0.0000317
h    -0.8272013    3.0883764   -0.3660218  0.00    0.0000025    0.0000035    0.0000032
    13
 Energy =       0.0372228305
c    -3.8394257    1.7368962    0.3053811  0.00   -0.0000000    0.0000000   -0.0000000
c    -2.5672970    2.5712722    0.3858919  0.00   -0.0000000   -0.0000000   -0.0000000
c    -4.7943238    2.2703956   -0.7652308  0.00    0.0000000   -0.0000000   -0.0000000
h    -4.3060864    2.2460530   -1.7642228  0.00    0.0000000   -0.0000000   -0.0000000
h    -5.0895884    3.3176573   -0.5376991  0.00    0.0000000   -0.0000000   -0.0000000
h    -5.7086611    1.6402144   -0.8033299  0.00    0.0000000   -0.0000000   -0.0000000
n    -3.5728693    0.3195858    0.0142268  0.00   -0.0000000   -0.0000000    0.0000000
h    -4.3351797    1.8227029    1.3018390  0.00   -0.0000000    0.0000000    0.0000000
h    -2.9776411    0.2538555   -0.8488823  0.00    0.0000000   -0.0000000    0.0000000
h    -2.9930387   -0.0821958    0.7888355  0.00    0.0000000    0.0000000    0.0000000
o    -2.4055174    3.4968385    1.4091463  0.00    0.0000000    0.0000000    0.0000000
o    -1.5772259    2.4435100   -0.5811872  0.00    0.0000000   -0.0000000   -0.0000000
h    -0.8271528    3.0883113   -0.3659471  0.00    0.0000000    0.0000000    0.0000000
