    24
 Energy =       0.8158347881
c     0.0448833    2.3534058   -1.3813971  0.00   -0.0496114    0.0688391   -0.0525072
c     0.1418476    2.9248573   -0.1206726  0.00   -0.0480575    0.0977826   -0.0119480
c     0.7555652    2.2402731    0.9181560  0.00   -0.0006342    0.0525654    0.0795121
c     0.5800579    1.0803682   -1.5985351  0.00    0.6926391    0.6347112   -0.5391793
c     1.2047783    0.3610782   -0.5608861  0.00    0.0820311   -0.0896162    0.0311481
c     1.2772621    0.9610456    0.7017654  0.00    0.0244105   -0.0320175    0.0380056
o    -0.3596449    4.1638607    0.1435223  0.00   -0.0064776   -0.0145383   -0.0390405
h    -0.7857423    4.5034896   -0.6604687  0.00    0.0404736   -0.0560572    0.0424270
h     1.7275121    0.4624698    1.5506282  0.00   -0.0071437    0.0127284    0.0061805
h     0.4997167    0.6426498   -2.5929302  0.00   -1.1862399   -0.8754810    1.4025677
h    -0.4370006    2.8749235   -2.2021886  0.00    0.0003346   -0.0012566   -0.0017290
h     0.8245662    2.6993933    1.9006814  0.00    0.0032128   -0.0023255    0.0035940
c     1.7669373   -1.0073413   -0.8964724  0.00   -0.0680376    0.0134656   -0.0431508
c     0.8861134   -2.0194266   -1.6556448  0.00    0.0468490   -0.0534151    0.0803473
h     2.1212937   -1.4658931    0.0371405  0.00   -0.0029196    0.0146356   -0.0076489
h     2.6645729   -0.8285312   -1.5058794  0.00   -0.0130154   -0.0026848    0.0041271
c     0.2877588   -1.3395944   -2.9073099  0.00   -0.1080006    0.3402133   -0.1234671
o    -0.0664180   -0.1744118   -2.9918994  0.00    0.5911758   -0.0653978   -0.8790877
o     0.1608327   -2.2305444   -3.9280651  0.00    0.2487464   -0.2408112    0.2032541
h     0.6173059   -1.8088839   -4.6997648  0.00    0.0078692   -0.0155283    0.0426220
n     1.5974427   -3.2508470   -2.1301054  0.00   -0.0151290   -0.0372062   -0.1180136
h     0.0358579   -2.3311629   -1.0380560  0.00    0.0166152   -0.0038014   -0.0111379
h     1.3459883   -3.4027164   -3.1136797  0.00   -0.2098848    0.2541003   -0.1093073
h     2.6013787   -3.0583561   -2.1544800  0.00   -0.0392060    0.0010957    0.0024319
    24
 Energy =       0.9006787671
c     0.0764283    2.3869837   -1.3063972  0.00   -0.0492527    0.0678730   -0.0528933
c     0.2120194    2.9254251   -0.0350207  0.00   -0.0474001    0.0963525   -0.0118959
c     0.8322452    2.2032405    0.9746080  0.00   -0.0005307    0.0523108    0.0794025
c     0.5858469    1.1119870   -1.5585730  0.00    0.6768412    0.6202861   -0.5285518
c     1.2180978    0.3509589   -0.5571443  0.00    0.0810010   -0.0890670    0.0306129
c     1.3274505    0.9191570    0.7181801  0.00    0.0245836   -0.0320081    0.0383209
o    -0.2529589    4.1691192    0.2753096  0.00   -0.0062696   -0.0131063   -0.0364011
h    -0.7029994    4.5412159   -0.5017156  0.00    0.0391053   -0.0544880    0.0404256
h     1.7848998    0.3907449    1.5450884  0.00   -0.0067485    0.0122046    0.0066800
h     0.4599311    0.6534940   -2.5654192  0.00   -1.1597191   -0.8540060    1.3709140
h    -0.4172743    2.9338879   -2.1037974  0.00    0.0000132   -0.0009672   -0.0022784
h     0.9302443    2.6381955    1.9665793  0.00    0.0032421   -0.0019595    0.0042871
c     1.7495701   -1.0266634   -0.9506230  0.00   -0.0668259    0.0125486   -0.0432147
c     0.8407220   -2.0161225   -1.7180179  0.00    0.0458059   -0.0519746    0.0797244
h     2.1215494   -1.5151447   -0.0386833  0.00   -0.0025280    0.0140872   -0.0069320
h     2.6351650   -0.8470733   -1.5779577  0.00   -0.0126505   -0.0028532    0.0038817
c     0.2373462   -1.3105302   -2.9498515  0.00   -0.1069826    0.3376255   -0.1213117
o    -0.1202404   -0.1521078   -3.0159358  0.00    0.5792031   -0.0694169   -0.8596580
o     0.0901720   -2.1747830   -3.9803928  0.00    0.2430817   -0.2365575    0.1994468
h     0.5704137   -1.7533728   -4.7392688  0.00    0.0081091   -0.0149550    0.0417483
n     1.5185473   -3.2597707   -2.2275003  0.00   -0.0160514   -0.0386916   -0.1166186
h    -0.0065921   -2.3206128   -1.0927025  0.00    0.0163403   -0.0037243   -0.0109994
h     1.2717580   -3.3925745   -3.2228083  0.00   -0.2054003    0.2488671   -0.1072558
h     2.5305240   -3.1055482   -2.2244978  0.00   -0.0369671    0.0016197    0.0025665
    24
 Energy =       0.9745423274
c     0.1090227    2.4164402   -1.2311445  0.00   -0.0481697    0.0659988   -0.0523699
c     0.2809832    2.9197488    0.0492840  0.00   -0.0460420    0.0934125   -0.0117132
c     0.9058076    2.1604242    1.0280116  0.00   -0.0004199    0.0512030    0.0780321
c     0.5923253    1.1413680   -1.5191643  0.00    0.6524594    0.5986647   -0.5104892
c     1.2298081    0.3396705   -0.5547890  0.00    0.0788002   -0.0870641    0.0297852
c     1.3743128    0.8740336    0.7315820  0.00    0.0243496   -0.0315036    0.0379947
o    -0.1483614    4.1657978    0.4054918  0.00   -0.0057772   -0.0116650   -0.0331867
h    -0.6197629    4.5724595   -0.3429624  0.00    0.0370384   -0.0519606    0.0378260
h     1.8380405    0.3156738    1.5353366  0.00   -0.0062394    0.0114665    0.0070659
h     0.4215850    0.6684608   -2.5360700  0.00   -1.1180314   -0.8219436    1.3216702
h    -0.3949736    2.9892824   -2.0040615  0.00   -0.0003241   -0.0006209   -0.0027799
h     1.0311257    2.5698209    2.0286098  0.00    0.0032357   -0.0015912    0.0048928
c     1.7307081   -1.0445643   -1.0044974  0.00   -0.0645986    0.0114852   -0.0425729
c     0.7938252   -2.0114443   -1.7797664  0.00    0.0440884   -0.0497843    0.0779771
h     2.1190390   -1.5627585   -0.1151709  0.00   -0.0021014    0.0132971   -0.0061428
h     2.6042462   -0.8623155   -1.6487890  0.00   -0.0121070   -0.0029544    0.0035779
c     0.1810268   -1.2798170   -2.9882895  0.00   -0.1041227    0.3295106   -0.1175265
o    -0.1723484   -0.1217727   -3.0328945  0.00    0.5590306   -0.0717440   -0.8297381
o     0.0197375   -2.1110208   -4.0344425  0.00    0.2327429   -0.2295111    0.1938703
h     0.5444112   -1.6943635   -4.7699781  0.00    0.0091435   -0.0134364    0.0392328
n     1.4409574   -3.2621214   -2.3272087  0.00   -0.0168068   -0.0395539   -0.1133779
h    -0.0478900   -2.3127369   -1.1447492  0.00    0.0158137   -0.0035661   -0.0106540
h     1.1999554   -3.3729086   -3.3347479  0.00   -0.1978876    0.2398053   -0.1041221
h     2.4592844   -3.1472511   -2.2961316  0.00   -0.0340745    0.0020555    0.0027483
    24
 Energy =       1.0392863923
c     0.1407572    2.4413784   -1.1554769  0.00   -0.0467185    0.0636887   -0.0513399
c     0.3474320    2.9078553    0.1325207  0.00   -0.0443407    0.0897397   -0.0114557
c     0.9758335    2.1120929    1.0786362  0.00   -0.0002991    0.0496413    0.0760048
c     0.5978166    1.1681084   -1.4801583  0.00    0.6241408    0.5736640   -0.4890575
c     1.2391910    0.3270341   -0.5540534  0.00    0.0759895   -0.0842979    0.0288222
c     1.4177042    0.8257545    0.7419143  0.00    0.0238941   -0.0307496    0.0373170
o    -0.0475495    4.1536179    0.5343708  0.00   -0.0051166   -0.0103140   -0.0297961
h    -0.5372760    4.5957625   -0.1842093  0.00    0.0346412   -0.0489459    0.0350293
h     1.8873251    0.2377276    1.5211463  0.00   -0.0056752    0.0106166    0.0073748
h     0.3830050    0.6871181   -2.5038137  0.00   -1.0694676   -0.7851651    1.2643720
h    -0.3726426    3.0401639   -1.9027061  0.00   -0.0006645   -0.0002411   -0.0032394
h     1.1273028    2.4946044    2.0870061  0.00    0.0032184   -0.0012403    0.0054413
c     1.7099867   -1.0604818   -1.0595945  0.00   -0.0618976    0.0103698   -0.0415411
c     0.7450303   -2.0051179   -1.8413839  0.00    0.0420320   -0.0472215    0.0758014
h     2.1154615   -1.6077624   -0.1945856  0.00   -0.0016513    0.0123742   -0.0053112
h     2.5702052   -0.8727132   -1.7211951  0.00   -0.0114523   -0.0030151    0.0032157
c     0.1158901   -1.2460059   -3.0214816  0.00   -0.1000407    0.3186212   -0.1129501
o    -0.2243786   -0.0833097   -3.0411546  0.00    0.5350905   -0.0724940   -0.7949546
o    -0.0518111   -2.0364354   -4.0897343  0.00    0.2163011   -0.2235354    0.1904839
h     0.5570345   -1.6424195   -4.7817911  0.00    0.0140881   -0.0096170    0.0330459
n     1.3649255   -3.2562581   -2.4322831  0.00   -0.0173739   -0.0401544   -0.1091990
h    -0.0869726   -2.3092883   -1.1939564  0.00    0.0151289   -0.0033583   -0.0101451
h     1.1310575   -3.3399354   -3.4520720  0.00   -0.1889330    0.2292090   -0.1009259
h     2.3875374   -3.1813847   -2.3724859  0.00   -0.0308934    0.0024251    0.0030073
    24
 Energy =       1.0870368914
c     0.1900998    2.4592323   -1.0917792  0.00   -0.0450013    0.0611689   -0.0497616
c     0.4259769    2.8941863    0.2006747  0.00   -0.0424976    0.0857790   -0.0111523
c     1.0519613    2.0667418    1.1192968  0.00   -0.0002254    0.0478177    0.0734005
c     0.6194817    1.1869117   -1.4461683  0.00    0.5947753    0.5475846   -0.4660551
c     1.2567039    0.3109827   -0.5512145  0.00    0.0729615   -0.0810428    0.0276518
c     1.4646438    0.7796946    0.7507134  0.00    0.0232151   -0.0297704    0.0362001
o     0.0653067    4.1405485    0.6381606  0.00   -0.0044540   -0.0092473   -0.0268466
h    -0.4433023    4.6104870   -0.0519253  0.00    0.0323400   -0.0459990    0.0324878
h     1.9334796    0.1649452    1.5099002  0.00   -0.0051894    0.0098263    0.0074601
h     0.3628099    0.7015594   -2.4743636  0.00   -1.0189128   -0.7471569    1.2043365
h    -0.3270894    3.0812874   -1.8174076  0.00   -0.0008974    0.0000459   -0.0034882
h     1.2257768    2.4262241    2.1329980  0.00    0.0031602   -0.0009731    0.0057375
c     1.6897813   -1.0847687   -1.0950597  0.00   -0.0588387    0.0094732   -0.0401297
c     0.6986844   -2.0005058   -1.8905227  0.00    0.0396552   -0.0448007    0.0729327
h     2.0900931   -1.6600649   -0.2451866  0.00   -0.0013436    0.0115117   -0.0047785
h     2.5494483   -0.9046608   -1.7602557  0.00   -0.0108912   -0.0029252    0.0030776
c     0.0761125   -1.2147352   -3.0518754  0.00   -0.0961422    0.3052867   -0.1074888
o    -0.2567305   -0.0470770   -3.0448425  0.00    0.5100535   -0.0720711   -0.7584659
o    -0.1034486   -1.9716150   -4.1374585  0.00    0.1972921   -0.2210700    0.1943447
h     0.3982814   -1.4883150   -4.8690032  0.00    0.0224893   -0.0020447    0.0196476
n     1.2854380   -3.2584744   -2.5089559  0.00   -0.0184587   -0.0400404   -0.1043384
h    -0.1353033   -2.2964981   -1.2410902  0.00    0.0144348   -0.0032423   -0.0097233
h     1.0642365   -3.3156044   -3.5405685  0.00   -0.1803366    0.2193402   -0.0983343
h     2.3104243   -3.2303758   -2.4206079  0.00   -0.0271881    0.0025496    0.0032858
    24
 Energy =       1.1241659939
c     0.2424317    2.4737385   -1.0315800  0.00   -0.0434464    0.0589132   -0.0482937
c     0.5059461    2.8766336    0.2644816  0.00   -0.0408187    0.0821750   -0.0108664
c     1.1284818    2.0184231    1.1553608  0.00   -0.0001391    0.0461392    0.0710377
c     0.6441469    1.2033903   -1.4155775  0.00    0.5685702    0.5241983   -0.4456599
c     1.2761711    0.2939165   -0.5516612  0.00    0.0701893   -0.0780131    0.0266351
c     1.5120252    0.7319328    0.7554364  0.00    0.0225966   -0.0289085    0.0351681
o     0.1787211    4.1217083    0.7365644  0.00   -0.0037893   -0.0083181   -0.0241735
h    -0.3468676    4.6182364    0.0756281  0.00    0.0302063   -0.0432617    0.0302110
h     1.9789140    0.0911464    1.4943876  0.00   -0.0047388    0.0090803    0.0075348
h     0.3476043    0.7201553   -2.4452876  0.00   -0.9739894   -0.7133863    1.1507390
h    -0.2772736    3.1187647   -1.7353787  0.00   -0.0011184    0.0003335   -0.0037164
h     1.3234873    2.3542842    2.1737312  0.00    0.0031202   -0.0007396    0.0060199
c     1.6701753   -1.1080695   -1.1329117  0.00   -0.0559652    0.0086587   -0.0387685
c     0.6498163   -1.9928288   -1.9373931  0.00    0.0374755   -0.0424094    0.0704084
h     2.0668927   -1.7099529   -0.2992029  0.00   -0.0010555    0.0107290   -0.0042960
h     2.5268844   -0.9362196   -1.8048780  0.00   -0.0103519   -0.0028735    0.0029225
c     0.0316293   -1.1784034   -3.0772842  0.00   -0.0925094    0.2927624   -0.1024121
o    -0.2847617   -0.0034634   -3.0405867  0.00    0.4876496   -0.0706491   -0.7257205
o    -0.1593506   -1.8987155   -4.1820694  0.00    0.1832420   -0.2183862    0.1955070
h     0.2395283   -1.3417626   -4.9331259  0.00    0.0266754    0.0050479    0.0088312
n     1.1992413   -3.2564098   -2.5856169  0.00   -0.0210496   -0.0403908   -0.0996521
h    -0.1838052   -2.2797702   -1.2827154  0.00    0.0137691   -0.0031102   -0.0093289
h     0.9998244   -3.2784453   -3.6296785  0.00   -0.1725625    0.2098297   -0.0961397
h     2.2230032   -3.2881832   -2.4571839  0.00   -0.0219600    0.0025794    0.0040128
    24
 Energy =       1.1614974743
c     0.3077051    2.4891676   -0.9605485  0.00   -0.0420186    0.0568164   -0.0470250
c     0.6034099    2.8508254    0.3393950  0.00   -0.0391415    0.0784855   -0.0106503
c     1.2191996    1.9544837    1.1956286  0.00    0.0000320    0.0445340    0.0689655
c     0.6745876    1.2223354   -1.3813717  0.00    0.5418776    0.5004045   -0.4251868
c     1.2971649    0.2712600   -0.5559691  0.00    0.0674491   -0.0749974    0.0257318
c     1.5655743    0.6697309    0.7571088  0.00    0.0221327   -0.0282755    0.0342894
o     0.3181186    4.0921727    0.8536708  0.00   -0.0028006   -0.0071633   -0.0207544
h    -0.2271776    4.6200800    0.2304237  0.00    0.0276201   -0.0400278    0.0275352
h     2.0272859   -0.0032707    1.4709278  0.00   -0.0041627    0.0081161    0.0077713
h     0.3308359    0.7489217   -2.4098687  0.00   -0.9285712   -0.6787430    1.0958629
h    -0.2127155    3.1629692   -1.6370497  0.00   -0.0014701    0.0007999   -0.0041069
h     1.4389830    2.2597659    2.2192510  0.00    0.0031445   -0.0004407    0.0065551
c     1.6393603   -1.1364104   -1.1836965  0.00   -0.0527522    0.0075577   -0.0374023
c     0.5796957   -1.9808687   -1.9943342  0.00    0.0353602   -0.0393776    0.0683799
h     2.0339102   -1.7699735   -0.3717649  0.00   -0.0006457    0.0097969   -0.0036774
h     2.4892896   -0.9749109   -1.8677122  0.00   -0.0097180   -0.0028928    0.0026961
c    -0.0385340   -1.1262889   -3.1009139  0.00   -0.0885455    0.2798463   -0.0963925
o    -0.3187316    0.0595178   -3.0251886  0.00    0.4646218   -0.0682832   -0.6923930
o    -0.2260808   -1.7896908   -4.2375417  0.00    0.1720836   -0.2096579    0.1870103
h     0.1353987   -1.1830095   -4.9710623  0.00    0.0266111    0.0067614    0.0057608
n     1.0812203   -3.2456031   -2.6881774  0.00   -0.0293581   -0.0420572   -0.0942039
h    -0.2484904   -2.2608154   -1.3290126  0.00    0.0130443   -0.0029063   -0.0088951
h     0.9289149   -3.2092493   -3.7490852  0.00   -0.1645063    0.1998639   -0.0967907
h     2.0939411   -3.3710331   -2.4896500  0.00   -0.0102865    0.0018401    0.0069201
    24
 Energy =       1.1506023774
c     0.2487415    2.4776818   -0.9978218  0.00   -0.0420821    0.0568844   -0.0472029
c     0.5294353    2.8699468    0.2978725  0.00   -0.0390072    0.0781047   -0.0108015
c     1.1614165    2.0028791    1.1734136  0.00    0.0001587    0.0445546    0.0691912
c     0.6424186    1.2099525   -1.3956725  0.00    0.5396259    0.4983647   -0.4238565
c     1.2865182    0.2931272   -0.5490804  0.00    0.0672620   -0.0745981    0.0259441
c     1.5399432    0.7197835    0.7579861  0.00    0.0223318   -0.0285948    0.0343691
o     0.2086440    4.1139633    0.7861515  0.00   -0.0024717   -0.0066325   -0.0193487
h    -0.3182713    4.6257942    0.1327080  0.00    0.0268700   -0.0392158    0.0265709
h     2.0190315    0.0713522    1.4840981  0.00   -0.0038935    0.0077017    0.0080690
h     0.3259577    0.7198963   -2.4273041  0.00   -0.9251412   -0.6751192    1.0912927
h    -0.2814906    3.1288124   -1.6894638  0.00   -0.0016819    0.0010683   -0.0043706
h     1.3692999    2.3306752    2.1927686  0.00    0.0032057   -0.0003351    0.0068700
c     1.6835008   -1.1046301   -1.1493268  0.00   -0.0519903    0.0069732   -0.0370989
c     0.6580491   -1.9841491   -1.9586420  0.00    0.0353254   -0.0376290    0.0687477
h     2.0864992   -1.7170647   -0.3245355  0.00   -0.0004373    0.0095143   -0.0034835
h     2.5372291   -0.9234089   -1.8239170  0.00   -0.0093958   -0.0029334    0.0025559
c     0.0361557   -1.1705567   -3.0964116  0.00   -0.0846510    0.2795026   -0.0886103
o    -0.3085408    0.0052363   -3.0511468  0.00    0.4609482   -0.0655469   -0.6916977
o    -0.2194742   -1.9038992   -4.1860728  0.00    0.1658623   -0.2133820    0.1834460
h     0.0897841   -1.3315554   -4.9719083  0.00    0.0280642    0.0096348    0.0012824
n     1.1988956   -3.2552830   -2.6051520  0.00   -0.0510375   -0.0478904   -0.0793040
h    -0.1770416   -2.2655769   -1.3020438  0.00    0.0128801   -0.0028498   -0.0088701
h     0.9234701   -3.3136591   -3.6472209  0.00   -0.1687599    0.1986926   -0.1146538
h     2.2526942   -3.2492118   -2.5358199  0.00    0.0180150    0.0037310    0.0109595
    24
 Energy =       1.1826351435
c     0.2736519    2.4789229   -0.9355580  0.00   -0.0399007    0.0538362   -0.0449839
c     0.5798160    2.8448484    0.3603230  0.00   -0.0368742    0.0737540   -0.0102714
c     1.2191576    1.9572205    1.2072384  0.00    0.0002016    0.0421983    0.0657666
c     0.6497594    1.2177030   -1.3606576  0.00    0.5074945    0.4696186   -0.3987435
c     1.3026470    0.2809821   -0.5466114  0.00    0.0635279   -0.0706450    0.0245553
c     1.5824632    0.6808846    0.7620248  0.00    0.0212794   -0.0271968    0.0328299
o     0.2763512    4.0827554    0.8794611  0.00   -0.0020404   -0.0060238   -0.0174125
h    -0.2536805    4.6199970    0.2462286  0.00    0.0248941   -0.0364344    0.0246115
h     2.0724104    0.0152861    1.4652799  0.00   -0.0034647    0.0069956    0.0079464
h     0.3011611    0.7308934   -2.3898102  0.00   -0.8695737   -0.6342598    1.0266902
h    -0.2671466    3.1448801   -1.6046762  0.00   -0.0018001    0.0012399   -0.0044385
h     1.4464379    2.2650479    2.2287899  0.00    0.0031086   -0.0001974    0.0068816
c     1.6885218   -1.1076951   -1.1861494  0.00   -0.0490190    0.0063985   -0.0351971
c     0.6483284   -1.9695584   -2.0027699  0.00    0.0331173   -0.0352053    0.0651689
h     2.1017767   -1.7414421   -0.3817846  0.00   -0.0002300    0.0086885   -0.0029682
h     2.5337501   -0.9125428   -1.8684663  0.00   -0.0087613   -0.0027698    0.0022661
c     0.0097443   -1.1398832   -3.1156240  0.00   -0.0791005    0.2644450   -0.0813639
o    -0.3407562    0.0390061   -3.0417414  0.00    0.4326258   -0.0635700   -0.6517181
o    -0.3075485   -1.8606962   -4.1960320  0.00    0.1542251   -0.2025135    0.1743946
h    -0.0689690   -1.2711931   -4.9953304  0.00    0.0273923    0.0110732   -0.0027993
n     1.1745725   -3.2319665   -2.6797930  0.00   -0.0507884   -0.0456644   -0.0693846
h    -0.1784171   -2.2602763   -1.3381285  0.00    0.0120735   -0.0026648   -0.0082587
h     0.8163617   -3.3155425   -3.7025613  0.00   -0.1611153    0.1854106   -0.1138082
h     2.2324729   -3.1975255   -2.6901931  0.00    0.0227283    0.0034865    0.0102369
    24
 Energy =       1.2115584326
c     0.3179956    2.4801185   -0.8618788  0.00   -0.0379935    0.0511220   -0.0430907
c     0.6540889    2.8106159    0.4344941  0.00   -0.0348751    0.0696232   -0.0098024
c     1.2961189    1.8944397    1.2463554  0.00    0.0003154    0.0400649    0.0628343
c     0.6680245    1.2261759   -1.3210596  0.00    0.4768772    0.4422945   -0.3751858
c     1.3230866    0.2601584   -0.5460712  0.00    0.0601156   -0.0670601    0.0232678
c     1.6341678    0.6249895    0.7647623  0.00    0.0204478   -0.0260677    0.0315453
o     0.3779873    4.0408255    0.9915578  0.00   -0.0014252   -0.0052470   -0.0149933
h    -0.1598569    4.6069108    0.3872184  0.00    0.0227092   -0.0334256    0.0224749
h     2.1296232   -0.0646797    1.4409359  0.00   -0.0029582    0.0061766    0.0079482
h     0.2803467    0.7518449   -2.3452604  0.00   -0.8170250   -0.5953244    0.9649332
h    -0.2300400    3.1674017   -1.5034084  0.00   -0.0020306    0.0015460   -0.0046339
h     1.5465073    2.1754394    2.2705863  0.00    0.0030803   -0.0000011    0.0071322
c     1.6804980   -1.1221119   -1.2310811  0.00   -0.0458930    0.0057200   -0.0334987
c     0.6157350   -1.9530669   -2.0579617  0.00    0.0307421   -0.0327091    0.0623988
h     2.0968434   -1.7840244   -0.4502214  0.00    0.0000596    0.0077791   -0.0023832
h     2.5190591   -0.9202302   -1.9203564  0.00   -0.0082089   -0.0026411    0.0020611
c    -0.0357949   -1.0919594   -3.1347885  0.00   -0.0743299    0.2496868   -0.0755023
o    -0.3742040    0.0927670   -3.0190596  0.00    0.4059426   -0.0610227   -0.6132690
o    -0.4042537   -1.7791654   -4.2177288  0.00    0.1432896   -0.1908251    0.1649729
h    -0.2215131   -1.1625003   -5.0122351  0.00    0.0262506    0.0118500   -0.0056107
n     1.1143662   -3.2043769   -2.7803214  0.00   -0.0483112   -0.0442870   -0.0631147
h    -0.2021038   -2.2527224   -1.3849278  0.00    0.0113217   -0.0024541   -0.0076393
h     0.6958987   -3.2869095   -3.7871454  0.00   -0.1523217    0.1721326   -0.1101323
h     2.1702850   -3.1598341   -2.8489462  0.00    0.0242206    0.0030692    0.0092878
    24
 Energy =       1.2347246540
c     0.3746868    2.4791484   -0.7862973  0.00   -0.0364999    0.0489941   -0.0416125
c     0.7409801    2.7702287    0.5099649  0.00   -0.0332030    0.0661511   -0.0094270
c     1.3817016    1.8226863    1.2845367  0.00    0.0004852    0.0383220    0.0605908
c     0.6945032    1.2333006   -1.2814516  0.00    0.4510712    0.4192156   -0.3555889
c     1.3463596    0.2343888   -0.5475497  0.00    0.0573046   -0.0641048    0.0222076
c     1.6892642    0.5605635    0.7650186  0.00    0.0198655   -0.0252900    0.0305516
o     0.4969058    3.9910831    1.1064609  0.00   -0.0007286   -0.0044817   -0.0125488
h    -0.0513771    4.5849686    0.5355929  0.00    0.0206378   -0.0306140    0.0205039
h     2.1856318   -0.1557024    1.4128851  0.00   -0.0024540    0.0053547    0.0080243
h     0.2662494    0.7783127   -2.2986311  0.00   -0.7730566   -0.5623920    0.9127379
h    -0.1772276    3.1902653   -1.3984564  0.00   -0.0023126    0.0019228   -0.0048792
h     1.6556243    2.0737480    2.3109782  0.00    0.0031124    0.0001923    0.0075091
c     1.6651397   -1.1423157   -1.2786545  0.00   -0.0429969    0.0050344   -0.0320968
c     0.5706203   -1.9343536   -2.1156488  0.00    0.0285241   -0.0304054    0.0606303
h     2.0792219   -1.8347179   -0.5222963  0.00    0.0003833    0.0068855   -0.0018211
h     2.4984409   -0.9388801   -1.9743600  0.00   -0.0077362   -0.0025339    0.0019252
c    -0.0895717   -1.0336191   -3.1498417  0.00   -0.0702887    0.2370996   -0.0705467
o    -0.4042217    0.1567541   -2.9861381  0.00    0.3834824   -0.0580507   -0.5806550
o    -0.5060629   -1.6762469   -4.2391221  0.00    0.1335507   -0.1802199    0.1560716
h    -0.3656481   -1.0294415   -5.0188624  0.00    0.0250795    0.0123256   -0.0076492
n     1.0327201   -3.1724999   -2.8900917  0.00   -0.0454084   -0.0439189   -0.0584957
h    -0.2384784   -2.2419306   -1.4345580  0.00    0.0106898   -0.0022547   -0.0071001
h     0.5630695   -3.2403396   -3.8823198  0.00   -0.1444086    0.1601089   -0.1067200
h     2.0843343   -3.1252948   -3.0076993  0.00    0.0249069    0.0026593    0.0083885
    24
 Energy =       1.2528546727
c     0.4426821    2.4758703   -0.7118450  0.00   -0.0355303    0.0476259   -0.0406657
c     0.8375975    2.7247287    0.5836899  0.00   -0.0319816    0.0635992   -0.0091828
c     1.4726181    1.7442971    1.3202266  0.00    0.0007127    0.0370915    0.0592188
c     0.7296131    1.2390223   -1.2432954  0.00    0.4318735    0.4020227   -0.3412899
c     1.3723894    0.2048301   -0.5510452  0.00    0.0552939   -0.0619753    0.0214846
c     1.7457902    0.4899558    0.7628014  0.00    0.0195806   -0.0249476    0.0299193
o     0.6286910    3.9343735    1.2196469  0.00    0.0000762   -0.0038310   -0.0101795
h     0.0663474    4.5530667    0.6866522  0.00    0.0187588   -0.0281370    0.0187895
h     2.2380114   -0.2542844    1.3823719  0.00   -0.0019800    0.0045649    0.0081801
h     0.2609718    0.8089152   -2.2516494  0.00   -0.7406607   -0.5375984    0.8738208
h    -0.1093415    3.2122570   -1.2940578  0.00   -0.0026327    0.0023588   -0.0051640
h     1.7690468    1.9632487    2.3483117  0.00    0.0032085    0.0003625    0.0079931
c     1.6437941   -1.1667354   -1.3276235  0.00   -0.0405327    0.0043393   -0.0310980
c     0.5157473   -1.9133734   -2.1734560  0.00    0.0266110   -0.0283972    0.0601155
h     2.0508883   -1.8905585   -0.5962260  0.00    0.0007292    0.0060405   -0.0013081
h     2.4727980   -0.9665475   -2.0297414  0.00   -0.0073457   -0.0024516    0.0018486
c    -0.1481394   -0.9670253   -3.1591721  0.00   -0.0671378    0.2277163   -0.0665355
o    -0.4281220    0.2271847   -2.9440928  0.00    0.3666688   -0.0549332   -0.5562669
o    -0.6118121   -1.5566010   -4.2552678  0.00    0.1253118   -0.1714667    0.1483645
h    -0.4996531   -0.8791113   -5.0138861  0.00    0.0241105    0.0126698   -0.0091612
n     0.9327969   -3.1357995   -3.0049841  0.00   -0.0425567   -0.0447332   -0.0552073
h    -0.2848885   -2.2277036   -1.4847126  0.00    0.0102125   -0.0020816   -0.0066787
h     0.4162901   -3.1791881   -3.9827346  0.00   -0.1382430    0.1498725   -0.1045903
h     1.9787491   -3.0907160   -3.1664524  0.00    0.0254532    0.0022889    0.0075933
    24
 Energy =       1.2669048073
c     0.5190059    2.4705913   -0.6426903  0.00   -0.0351766    0.0471522   -0.0403626
c     0.9384239    2.6764540    0.6518404  0.00   -0.0313328    0.0622198   -0.0091099
c     1.5631318    1.6633713    1.3519996  0.00    0.0009851    0.0364890    0.0588637
c     0.7727788    1.2433823   -1.2086246  0.00    0.4210169    0.3923741   -0.3335835
c     1.4002091    0.1731275   -0.5561499  0.00    0.0542872   -0.0608625    0.0212131
c     1.8001607    0.4168958    0.7588617  0.00    0.0196231   -0.0250921    0.0297127
o     0.7655056    3.8733058    1.3252655  0.00    0.0010415   -0.0034661   -0.0079916
h     0.1840030    4.5113112    0.8340526  0.00    0.0171215   -0.0261024    0.0173931
h     2.2827710   -0.3551415    1.3521376  0.00   -0.0015725    0.0038600    0.0084174
h     0.2666458    0.8416439   -2.2068627  0.00   -0.7226625   -0.5231026    0.8518637
h    -0.0289920    3.2322579   -1.1963559  0.00   -0.0029653    0.0028228   -0.0054738
h     1.8790524    1.8496797    2.3813056  0.00    0.0033603    0.0004898    0.0085445
c     1.6177771   -1.1938326   -1.3755747  0.00   -0.0387346    0.0036417   -0.0306134
c     0.4547498   -1.8910732   -2.2286757  0.00    0.0251873   -0.0268165    0.0610475
h     2.0134680   -1.9482102   -0.6682603  0.00    0.0010702    0.0052990   -0.0008817
h     2.4434529   -1.0014861   -2.0839697  0.00   -0.0070530   -0.0023986    0.0018261
c    -0.2067318   -0.8959494   -3.1620106  0.00   -0.0651045    0.2224813   -0.0637120
o    -0.4422954    0.2989068   -2.8956483  0.00    0.3568847   -0.0520120   -0.5424532
o    -0.7156003   -1.4266817   -4.2632692  0.00    0.1190852   -0.1653676    0.1427091
h    -0.6161017   -0.7203582   -4.9976947  0.00    0.0235335    0.0130274   -0.0102995
n     0.8198617   -3.0949803   -3.1197592  0.00   -0.0401000   -0.0468117   -0.0533727
h    -0.3382305   -2.2108032   -1.5332202  0.00    0.0099298   -0.0019558   -0.0064168
h     0.2603870   -3.1066818   -4.0830093  0.00   -0.1345305    0.1421458   -0.1042859
h     1.8594332   -3.0556233   -3.3202292  0.00    0.0261060    0.0019849    0.0069658
    24
 Energy =       1.2783646632
c     0.5983090    2.4634094   -0.5812387  0.00   -0.0354082    0.0475136   -0.0406988
c     1.0362728    2.6275905    0.7124838  0.00   -0.0312569    0.0620152   -0.0092080
c     1.6467765    1.5837603    1.3798934  0.00    0.0012803    0.0364977    0.0594662
c     0.8213184    1.2461477   -1.1783013  0.00    0.4184092    0.3903562   -0.3323751
c     1.4280103    0.1408049   -0.5618187  0.00    0.0542843   -0.0607598    0.0214003
c     1.8485817    0.3449376    0.7547409  0.00    0.0199600   -0.0256715    0.0299248
o     0.8976566    3.8106417    1.4198637  0.00    0.0022119   -0.0035182   -0.0060429
h     0.2921084    4.4611457    0.9731100  0.00    0.0156881   -0.0244781    0.0163069
h     2.3168411   -0.4532126    1.3252231  0.00   -0.0012467    0.0032675    0.0087319
h     0.2834133    0.8740862   -2.1657942  0.00   -0.7187530   -0.5189568    0.8468583
h     0.0580604    3.2490190   -1.1094148  0.00   -0.0032899    0.0032837   -0.0058005
h     1.9777299    1.7385643    2.4103008  0.00    0.0035505    0.0005692    0.0091252
c     1.5890105   -1.2218584   -1.4202472  0.00   -0.0376973    0.0029682   -0.0306542
c     0.3924860   -1.8685245   -2.2801492  0.00    0.0243497   -0.0257295    0.0633297
h     1.9694177   -2.0045495   -0.7349106  0.00    0.0013840    0.0046823   -0.0005490
h     2.4126303   -1.0408312   -2.1340272  0.00   -0.0068642   -0.0023717    0.0018481
c    -0.2600799   -0.8244360   -3.1595986  0.00   -0.0641762    0.2214094   -0.0621217
o    -0.4444643    0.3669454   -2.8446379  0.00    0.3539913   -0.0494851   -0.5392265
o    -0.8099809   -1.2933297   -4.2634733  0.00    0.1150072   -0.1621924    0.1395550
h    -0.7086146   -0.5616051   -4.9733756  0.00    0.0234183    0.0135626   -0.0112828
n     0.7020971   -3.0507571   -3.2307074  0.00   -0.0382251   -0.0499855   -0.0529573
h    -0.3943574   -2.1927201   -1.5798235  0.00    0.0098462   -0.0018941   -0.0063206
h     0.1044677   -3.0258381   -4.1799281  0.00   -0.1333947    0.1371592   -0.1058468
h     1.7351753   -3.0192843   -3.4647111  0.00    0.0269310    0.0017578    0.0065378
    24
 Energy =       1.2678858517
c     0.5194940    2.4732409   -0.6374422  0.00   -0.0353587    0.0474609   -0.0407322
c     0.9447954    2.6777748    0.6565911  0.00   -0.0309525    0.0613964   -0.0092385