    27
 Energy =       0.2736383035
c    -1.4235396    2.6054793   -0.0667700  0.00   -0.0462112    0.0383150    0.0027366
c    -1.3072796    1.2134697   -0.1072300  0.00   -0.0852531   -0.0325629    0.0019971
c    -0.0178900    0.6711998   -0.1697000  0.00   -0.0886209   -0.1878677   -0.0010666
c    -0.2940599    3.4190890   -0.0891300  0.00   -0.0230828    0.0691269    0.0029219
c     0.9872197    2.8590292   -0.1560400  0.00    0.0105203    0.0643423    0.0010122
c     1.1340797    1.4562096   -0.1970299  0.00    0.0530156    0.0517860    0.0021560
n     0.3879399   -0.6395298   -0.2140799  0.00    0.1439989    0.1091986   -0.0038519
c     2.2666594    0.5727398   -0.2659299  0.00    0.1388026   -0.0561379   -0.0196182
c     1.7555995   -0.7123598   -0.2706899  0.00   -0.0964031   -0.0971704    0.0047722
h    -0.2400399   -1.4313496   -0.2047299  0.00    0.0365465    0.0476453   -0.0003677
c     3.7030089    1.0223397   -0.3320099  0.00    0.0087219    0.0185959    0.0208211
c     4.7465686   -0.0024900    0.1378100  0.00   -0.0891853    0.0242563    0.0959201
h     3.7978489    1.9290294    0.2803699  0.00   -0.0003957   -0.0115039   -0.0110463
h     3.9233889    1.3348996   -1.3618196  0.00   -0.0057681    0.0025325    0.0151781
c     6.0911583    0.7171698    0.3515799  0.00    0.2669673    0.1406997   -0.2798079
n     4.9813086   -1.1161597   -0.8485798  0.00    0.0817490   -0.0749902   -0.0259819
h     4.4627987   -0.4486599    1.0982597  0.00    0.0164227   -0.0084809   -0.0258362
h     5.9519483   -1.0348997   -1.1684897  0.00   -0.0301617    0.0260073    0.0473385
h     4.9673786   -2.0001494   -0.3277699  0.00    0.0028665    0.0346797   -0.0110143
h    -2.4108593    3.0588691   -0.0157800  0.00   -0.0008689    0.0002623    0.0000453
h    -2.1896094    0.5822398   -0.0890100  0.00   -0.0036448    0.0037216    0.0000844
h    -0.4052699    4.5000487   -0.0535400  0.00    0.0008347    0.0001990    0.0002823
h     1.8590495    3.5066790   -0.1715100  0.00   -0.0007735    0.0024984    0.0006819
h     2.2327294   -1.6813195   -0.3062999  0.00   -0.0416182   -0.0115090    0.0036402
o     6.7518081    1.2603096   -0.5181639  0.00   -0.1659162   -0.1275682    0.2077406
o     6.4672982    0.6782418    1.6583195  0.00   -0.0447165   -0.0222381   -0.0145622
h     7.3502679    0.2254939    1.6573795  0.00   -0.0378261   -0.0038375   -0.0141753
    27
 Energy =       0.2331087313
c    -1.4020322    2.5410518   -0.0438822  0.00   -0.0317217    0.0266080    0.0018685
c    -1.2753597    1.1604609   -0.0848195  0.00   -0.0592311   -0.0225138    0.0013560
c     0.0021213    0.6307541   -0.1473267  0.00   -0.0616499   -0.1308457   -0.0007074
c    -0.2834225    3.3563189   -0.0673473  0.00   -0.0159719    0.0479129    0.0020258
c     0.9892110    2.8058963   -0.1348238  0.00    0.0077635    0.0446056    0.0006818
c     1.1293617    1.4197453   -0.1745431  0.00    0.0360138    0.0367788    0.0014682
n     0.4001568   -0.6978164   -0.1999403  0.00    0.0983507    0.0755751   -0.0024174
c     2.2567357    0.5792273   -0.2466712  0.00    0.0972184   -0.0386107   -0.0135992
c     1.7883058   -0.7091344   -0.2661149  0.00   -0.0678449   -0.0654726    0.0033754
h    -0.2142594   -1.5138558   -0.1909657  0.00    0.0254290    0.0325924   -0.0002676
c     3.6862236    1.0589706   -0.3208613  0.00    0.0059871    0.0131194    0.0141060
c     4.7516831    0.0374183    0.1129650  0.00   -0.0618128    0.0186102    0.0670202
h     3.7739165    1.9532331    0.3193176  0.00   -0.0005009   -0.0076548   -0.0074012
h     3.8930980    1.3959212   -1.3511445  0.00   -0.0039210    0.0019878    0.0102382
c     6.0773806    0.7685393    0.3494782  0.00    0.1861456    0.0924037   -0.2008239
n     4.9589671   -1.0290850   -0.9173427  0.00    0.0569652   -0.0466427   -0.0224400
h     4.4810809   -0.4352742    1.0720352  0.00    0.0117900   -0.0060935   -0.0172567
h     5.9361007   -0.9711119   -1.2474358  0.00   -0.0203065    0.0189630    0.0336660
h     4.8789875   -1.9563801   -0.4607666  0.00    0.0008827    0.0166225   -0.0048266
h    -2.3922392    2.9877562    0.0072616  0.00   -0.0006208    0.0002098    0.0000321
h    -2.1507358    0.5197867   -0.0679649  0.00   -0.0025847    0.0025729    0.0000528
h    -0.4004831    4.4367860   -0.0331896  0.00    0.0005925    0.0001537    0.0001971
h     1.8604236    3.4541404   -0.1543572  0.00   -0.0004154    0.0015774    0.0004893
h     2.3331164   -1.6425500   -0.3287669  0.00   -0.0268188   -0.0099182    0.0023299
o     6.7428233    1.3396188   -0.5693971  0.00   -0.1155282   -0.0885604    0.1453548
o     6.4516344    0.8369949    1.6655293  0.00   -0.0567983    0.0086164   -0.0011624
h     7.2567156    0.2182072    1.7304908  0.00   -0.0014116   -0.0225972   -0.0133600
    27
 Energy =       0.2340222846
c    -1.4144462    2.4928060   -0.0257654  0.00   -0.0308825    0.0259033    0.0018190
c    -1.2748252    1.1135930   -0.0617138  0.00   -0.0576279   -0.0219329    0.0013082
c     0.0068059    0.5958885   -0.1245716  0.00   -0.0599925   -0.1269738   -0.0007195
c    -0.3039005    3.3183296   -0.0527276  0.00   -0.0155121    0.0466438    0.0019736
c     0.9727699    2.7797076   -0.1192104  0.00    0.0076273    0.0433950    0.0006605
c     1.1245771    1.3958922   -0.1551944  0.00    0.0349345    0.0358583    0.0014097
n     0.4202823   -0.7307995   -0.1611734  0.00    0.0955521    0.0732793   -0.0023009
c     2.2603814    0.5707040   -0.2211650  0.00    0.0943707   -0.0378088   -0.0124979
c     1.8098227   -0.7228754   -0.2304356  0.00   -0.0659560   -0.0636539    0.0031644
h    -0.1825918   -1.5562705   -0.1432522  0.00    0.0245879    0.0314674   -0.0002444
c     3.6812660    1.0780380   -0.2792800  0.00    0.0039393    0.0117868    0.0140822
c     4.7795560    0.0538334    0.0686776  0.00   -0.0593160    0.0189583    0.0659450
h     3.7561420    1.9255842    0.4289700  0.00   -0.0010178   -0.0046756   -0.0051432
h     3.8681621    1.4987534   -1.2870599  0.00   -0.0031414    0.0034508    0.0065127
c     6.0942595    0.8090927    0.2957519  0.00    0.1804795    0.0878699   -0.1996105
n     4.9725018   -0.9597021   -1.0174407  0.00    0.0567300   -0.0443064   -0.0256983
h     4.5542198   -0.4705959    1.0159591  0.00    0.0108065   -0.0069617   -0.0145494
h     5.9500626   -0.8970551   -1.3469790  0.00   -0.0196502    0.0184715    0.0327206
h     4.8714321   -1.9140039   -0.6195197  0.00    0.0006523    0.0125442   -0.0035468
h    -2.4087708    2.9303390    0.0254906  0.00   -0.0006525    0.0002259    0.0000339
h    -2.1438257    0.4644483   -0.0389645  0.00   -0.0025718    0.0024524    0.0000527
h    -0.4309815    4.3978078   -0.0216374  0.00    0.0005722    0.0002078    0.0001936
h     1.8385851    3.4353424   -0.1404124  0.00   -0.0003493    0.0015492    0.0004631
h     2.3693175   -1.6480472   -0.2795937  0.00   -0.0260228   -0.0098482    0.0022204
o     6.7529420    1.3695996   -0.6388271  0.00   -0.1118718   -0.0862022    0.1413584
o     6.4368866    0.9603778    1.6172621  0.00   -0.0658293    0.0213052    0.0029395
h     7.1688803    0.2548316    1.7622292  0.00    0.0101416   -0.0330057   -0.0125465
    27
 Energy =       0.2236237841
c    -1.4004853    2.5165094   -0.0313891  0.00   -0.0275351    0.0230963    0.0016078
c    -1.2689383    1.1396706   -0.0772369  0.00   -0.0513567   -0.0196512    0.0011537
c     0.0057178    0.6153693   -0.1396167  0.00   -0.0534058   -0.1122571   -0.0003951
c    -0.2859305    3.3335226   -0.0524527  0.00   -0.0138449    0.0415915    0.0017287
c     0.9848479    2.7874596   -0.1214925  0.00    0.0068066    0.0387293    0.0005453
c     1.1249600    1.4061735   -0.1638347  0.00    0.0309542    0.0321140    0.0011745
n     0.4017562   -0.7181259   -0.2114007  0.00    0.0853562    0.0645477   -0.0022817
c     2.2509791    0.5789411   -0.2441532  0.00    0.0835998   -0.0339856   -0.0098726
c     1.7955890   -0.7104850   -0.2793208  0.00   -0.0590226   -0.0564259    0.0028008
h    -0.2095121   -1.5410010   -0.2110304  0.00    0.0217291    0.0277864   -0.0002824
c     3.6782598    1.0679218   -0.3402213  0.00    0.0008309    0.0082009    0.0132700
c     4.7516433    0.0531265    0.1131581  0.00   -0.0516958    0.0175554    0.0603806
h     3.7635010    1.9849328    0.2844122  0.00   -0.0014183    0.0009331   -0.0015679
h     3.8806389    1.3828374   -1.3891189  0.00   -0.0017985    0.0048634   -0.0000823
c     6.0679686    0.7942416    0.3589712  0.00    0.1610224    0.0766862   -0.1803510
n     4.9695488   -1.0162862   -0.9149092  0.00    0.0517303   -0.0392802   -0.0271588
h     4.4721313   -0.4145034    1.0796871  0.00    0.0087713   -0.0071888   -0.0100522
h     5.9544074   -0.9705865   -1.2323289  0.00   -0.0169915    0.0161372    0.0290112
h     4.8709894   -1.9485614   -0.4607666  0.00    0.0005787    0.0083287   -0.0020986
h    -2.3921875    2.9598979    0.0198489  0.00   -0.0006043    0.0002050    0.0000313
h    -2.1415803    0.4949895   -0.0664287  0.00   -0.0023539    0.0021111    0.0000394
h    -0.4059715    4.4136990   -0.0162542  0.00    0.0005036    0.0002256    0.0001724
h     1.8546115    3.4376244   -0.1419712  0.00   -0.0001957    0.0013431    0.0003940
h     2.3582526   -1.6320474   -0.3673647  0.00   -0.0229493   -0.0094826    0.0019129
o     6.7295181    1.3840622   -0.5730988  0.00   -0.0996089   -0.0766270    0.1256337
o     6.4474899    0.8842854    1.6783947  0.00   -0.0714658    0.0305205    0.0051659
h     7.2713063    0.2619517    1.7493342  0.00    0.0223639   -0.0400770   -0.0108796
    27
 Energy =       0.2190489394
c    -1.3783478    2.5774686   -0.0116504  0.00   -0.0260017    0.0217268    0.0015186
c    -1.2626762    1.2004527   -0.0508687  0.00   -0.0483661   -0.0185795    0.0010824
c     0.0036028    0.6617521   -0.1157139  0.00   -0.0501495   -0.1053195   -0.0004271
c    -0.2547174    3.3804251   -0.0402136  0.00   -0.0130406    0.0392117    0.0016388
c     1.0083880    2.8190239   -0.1109349  0.00    0.0064617    0.0364979    0.0005214
c     1.1303161    1.4377105   -0.1478431  0.00    0.0291353    0.0302286    0.0010919
n     0.3786629   -0.6790356   -0.1721383  0.00    0.0802162    0.0604665   -0.0020741
c     2.2442122    0.5987888   -0.2263995  0.00    0.0786139   -0.0319050   -0.0093482
c     1.7741136   -0.6855061   -0.2516835  0.00   -0.0553517   -0.0531356    0.0025251
h    -0.2455614   -1.4938308   -0.1587926  0.00    0.0202119    0.0258703   -0.0002389
c     3.6796847    1.0679916   -0.3197844  0.00   -0.0000584    0.0078522    0.0119949
c     4.7377779    0.0157756    0.0870373  0.00   -0.0486963    0.0171125    0.0573847
h     3.7883301    1.9611801    0.3363758  0.00   -0.0012723    0.0017143   -0.0008567
h     3.8774389    1.4127707   -1.3606964  0.00   -0.0018166    0.0047687   -0.0005747
c     6.0819558    0.7074694    0.3298070  0.00    0.1505082    0.0719794   -0.1725789
n     4.9030681   -1.0328971   -0.9711543  0.00    0.0469530   -0.0355952   -0.0276904
h     4.4649621   -0.4672222    1.0488672  0.00    0.0082593   -0.0067371   -0.0091063
h     5.8915544   -1.0354034   -1.2857747  0.00   -0.0141359    0.0151120    0.0267373
h     4.7466034   -1.9749031   -0.5491380  0.00    0.0000673    0.0042938   -0.0009378
h    -2.3646553    3.0326507    0.0414653  0.00   -0.0006541    0.0002243    0.0000337
h    -2.1423558    0.5654104   -0.0314215  0.00   -0.0023008    0.0019073    0.0000402
h    -0.3616826    4.4622033   -0.0084731  0.00    0.0004637    0.0003147    0.0001656
h     1.8868078    3.4575131   -0.1369191  0.00   -0.0000677    0.0013299    0.0003649
h     2.3277215   -1.6130782   -0.3336130  0.00   -0.0214159   -0.0090316    0.0017297
o     6.7449778    1.3086780   -0.6025524  0.00   -0.0934496   -0.0719604    0.1181188
o     6.5091142    0.7255322    1.6403583  0.00   -0.0687057    0.0319216    0.0093502
h     7.3602152    0.1346996    1.6512712  0.00    0.0245921   -0.0402686   -0.0104651
    27
 Energy =       0.2026665365
c    -1.3364393    2.6307937   -0.0032088  0.00   -0.0181461    0.0148121    0.0010326
c    -1.2420447    1.2584902   -0.0368596  0.00   -0.0334729   -0.0130344    0.0006615
c     0.0060797    0.7015782   -0.1059167  0.00   -0.0341299   -0.0723808   -0.0005546
c    -0.2026494    3.4113423   -0.0418818  0.00   -0.0091963    0.0271455    0.0011716
c     1.0444906    2.8291630   -0.1170775  0.00    0.0044921    0.0253970    0.0004107
c     1.1356663    1.4540234   -0.1475067  0.00    0.0200488    0.0208423    0.0007789
n     0.3432313   -0.6561577   -0.1582681  0.00    0.0553033    0.0412869   -0.0010837
c     2.2270700    0.6113914   -0.2305852  0.00    0.0541883   -0.0219752   -0.0061253
c     1.7481540   -0.6642103   -0.2554477  0.00   -0.0379911   -0.0367530    0.0014956
h    -0.2983702   -1.4650265   -0.1346534  0.00    0.0136417    0.0176559   -0.0000617
c     3.6728921    1.0551037   -0.3436976  0.00   -0.0002300    0.0052257    0.0083976
c     4.7080262   -0.0087341    0.0905126  0.00   -0.0340547    0.0126944    0.0389462
h     3.8046447    1.9642441    0.2861235  0.00   -0.0010164    0.0018737   -0.0002480
h     3.8763879    1.3594800   -1.3963193  0.00   -0.0009694    0.0034793   -0.0011331
c     6.0638301    0.6451827    0.3519805  0.00    0.1034147    0.0469589   -0.1244039
n     4.8458403   -1.0657410   -0.9554864  0.00    0.0262122   -0.0163632   -0.0209787
h     4.4068517   -0.4677923    1.0585299  0.00    0.0053035   -0.0050057   -0.0057825
h     5.8529637   -1.1605957   -1.2235256  0.00   -0.0010490    0.0097764    0.0167869
h     4.5878503   -1.9958159   -0.5428316  0.00   -0.0030986   -0.0044440    0.0027877
h    -2.3149548    3.1021423    0.0533059  0.00   -0.0006240    0.0002013    0.0000298
h    -2.1302286    0.6356201   -0.0095962  0.00   -0.0016912    0.0011887    0.0000273
h    -0.2907546    4.4951292   -0.0153758  0.00    0.0002832    0.0004222    0.0001228
h     1.9345340    3.4509497   -0.1531701  0.00    0.0001865    0.0010555    0.0002523
h     2.3085158   -1.5860143   -0.3516279  0.00   -0.0137854   -0.0064334    0.0010903
o     6.7284099    1.2986498   -0.5871061  0.00   -0.0646871   -0.0486347    0.0804450
o     6.5515523    0.5757243    1.6455799  0.00   -0.0730900    0.0376560    0.0170064
h     7.4979619    0.1366994    1.5735265  0.00    0.0441581   -0.0426475   -0.0110718
    27
 Energy =       0.1994689704
c    -1.3311569    2.6205415   -0.0338048  0.00   -0.0161979    0.0132340    0.0009191
c    -1.2386119    1.2502593   -0.0897414  0.00   -0.0297476   -0.0118299    0.0006178
c     0.0070154    0.6927333   -0.1557505  0.00   -0.0302074   -0.0635405   -0.0002193
c    -0.1964490    3.3986942   -0.0502011  0.00   -0.0080249    0.0242714    0.0010030
c     1.0486371    2.8156399   -0.1227451  0.00    0.0040696    0.0227640    0.0003184
c     1.1361271    1.4426718   -0.1730655  0.00    0.0179130    0.0187138    0.0006094
n     0.3379742   -0.6669057   -0.2483164  0.00    0.0490460    0.0358657   -0.0012454
c     2.2249479    0.6031157   -0.2616558  0.00    0.0483345   -0.0189062   -0.0052380
c     1.7472132   -0.6703334   -0.3213589  0.00   -0.0338057   -0.0325922    0.0014145
h    -0.3061000   -1.4766315   -0.2573275  0.00    0.0116002    0.0149899   -0.0001349
c     3.6725774    1.0449594   -0.3665339  0.00   -0.0018012    0.0047682    0.0073055
c     4.7015342    0.0072760    0.1461624  0.00   -0.0295866    0.0118153    0.0364647
h     3.7909997    1.9866266    0.2186193  0.00   -0.0012117    0.0031158    0.0006571
h     3.8985266    1.2953145   -1.4301187  0.00   -0.0007525    0.0035133   -0.0026833
c     6.0429635    0.6835648    0.4204886  0.00    0.0923642    0.0419500   -0.1099277
n     4.8760721   -1.0916743   -0.8512539  0.00    0.0215980   -0.0144665   -0.0211654
h     4.3714929   -0.4100429    1.1252228  0.00    0.0045637   -0.0046927   -0.0037864
h     5.8957210   -1.2151971   -1.0647725  0.00    0.0020660    0.0073361    0.0137940
h     4.5879301   -2.0015000   -0.4126474  0.00   -0.0027945   -0.0054119    0.0032632
h    -2.3093610    3.0927306    0.0201692  0.00   -0.0005684    0.0001676    0.0000274
h    -2.1280003    0.6281671   -0.0857904  0.00   -0.0017066    0.0008478    0.0000209
h    -0.2826763    4.4822424   -0.0081870  0.00    0.0002848    0.0005071    0.0001097
h     1.9393826    3.4370448   -0.1423222  0.00    0.0003429    0.0009938    0.0002124
h     2.3123058   -1.5865351   -0.4406202  0.00   -0.0125958   -0.0060249    0.0010370
o     6.7042315    1.3559497   -0.5181673  0.00   -0.0574243   -0.0430155    0.0713459
o     6.5332410    0.6133124    1.7132709  0.00   -0.0661045    0.0342549    0.0152339
h     7.4929733    0.2135955    1.6398640  0.00    0.0403466   -0.0386286   -0.0099537
    27
 Energy =       0.1981503482
c    -1.3237842    2.6167287   -0.0560587  0.00   -0.0150692    0.0123256    0.0008527
c    -1.2337210    1.2478270   -0.1259108  0.00   -0.0276244   -0.0110754    0.0005803
c     0.0097528    0.6885719   -0.1920657  0.00   -0.0280387   -0.0587892   -0.0001157
c    -0.1878360    3.3920017   -0.0601250  0.00   -0.0074084    0.0225972    0.0009179
c     1.0553626    2.8071159   -0.1330352  0.00    0.0038008    0.0212221    0.0002791
c     1.1394254    1.4354304   -0.1962540  0.00    0.0166587    0.0174451    0.0005242
n     0.3356039   -0.6717185   -0.3073900  0.00    0.0455926    0.0330504   -0.0012436
c     2.2256564    0.5960983   -0.2907915  0.00    0.0449307   -0.0173489   -0.0047116
c     1.7466989   -0.6747496   -0.3718896  0.00   -0.0315016   -0.0302710    0.0013110
h    -0.3108753   -1.4803860   -0.3331385  0.00    0.0106350    0.0137306   -0.0001500
c     3.6753161    1.0336105   -0.3917480  0.00   -0.0027221    0.0044033    0.0066516
c     4.6965352    0.0176986    0.1808929  0.00   -0.0274833    0.0110002    0.0352693
h     3.7864299    1.9990571    0.1559318  0.00   -0.0013284    0.0038210    0.0011256
h     3.9185624    1.2408233   -1.4614919  0.00   -0.0005940    0.0034927   -0.0035386
c     6.0238189    0.7121485    0.4757287  0.00    0.0861654    0.0393726   -0.1015758
n     4.9077675   -1.1068914   -0.7808520  0.00    0.0145440   -0.0100027   -0.0224495
h     4.3405246   -0.3735937    1.1623598  0.00    0.0041489   -0.0044231   -0.0028131
h     5.9407097   -1.2772811   -0.9060194  0.00    0.0097960    0.0047777    0.0113407
h     4.5530419   -1.9967473   -0.3456537  0.00   -0.0040956   -0.0080140    0.0052322
h    -2.3012009    3.0904801   -0.0019955  0.00   -0.0005311    0.0001560    0.0000257
h    -2.1243207    0.6274582   -0.1344255  0.00   -0.0016419    0.0007218    0.0000173
h    -0.2718237    4.4753307   -0.0081154  0.00    0.0002735    0.0005270    0.0001030
h     1.9467549    3.4275766   -0.1436132  0.00    0.0003831    0.0009350    0.0001872
h     2.3124784   -1.5877326   -0.5092692  0.00   -0.0117626   -0.0057715    0.0010048
o     6.6923056    1.3975731   -0.4543798  0.00   -0.0532079   -0.0398490    0.0661791
o     6.5034949    0.6401640    1.7727731  0.00   -0.0620311    0.0322003    0.0143523
h     7.4728330    0.2690251    1.7059526  0.00    0.0381117   -0.0362336   -0.0093559
    27
 Energy =       0.1935638331
c    -1.3140446    2.6376346   -0.0179532  0.00   -0.0128736    0.0104416    0.0007214
c    -1.2318588    1.2694202   -0.0778473  0.00   -0.0235039   -0.0094851    0.0004549
c     0.0055389    0.7034107   -0.1498929  0.00   -0.0237470   -0.0498104   -0.0002178
c    -0.1745260    3.4054237   -0.0369905  0.00   -0.0062632    0.0192561    0.0007985
c     1.0629033    2.8130374   -0.1159916  0.00    0.0032752    0.0180867    0.0002647
c     1.1363993    1.4428767   -0.1695834  0.00    0.0141943    0.0148397    0.0004625
n     0.3199303   -0.6629246   -0.2499801  0.00    0.0385618    0.0279223   -0.0009060
c     2.2150337    0.6018032   -0.2674119  0.00    0.0381682   -0.0146242   -0.0039823
c     1.7331852   -0.6671448   -0.3346484  0.00   -0.0265702   -0.0257166    0.0009763
h    -0.3310262   -1.4705125   -0.2579357  0.00    0.0088501    0.0114556   -0.0000892
c     3.6659743    1.0328345   -0.3856010  0.00   -0.0026954    0.0037104    0.0055262
c     4.6879570    0.0013016    0.1548736  0.00   -0.0239368    0.0097943    0.0311432
h     3.7938479    1.9887546    0.1743308  0.00   -0.0011849    0.0034689    0.0011083
h     3.8930654    1.2508887   -1.4564140  0.00   -0.0004946    0.0029736   -0.0032102
c     6.0359305    0.6707573    0.4158130  0.00    0.0731956    0.0330330   -0.0869116
n     4.8434512   -1.1227947   -0.8164053  0.00    0.0019009   -0.0028925   -0.0224704
h     4.3509229   -0.3832561    1.1463201  0.00    0.0034027   -0.0037189   -0.0020991
h     5.8673422   -1.2494643   -1.0647725  0.00    0.0214069    0.0026537    0.0064357
h     4.5712071   -2.0229424   -0.3359967  0.00   -0.0062661   -0.0121927    0.0087874
h    -2.2882935    3.1172367    0.0408828  0.00   -0.0004908    0.0001343    0.0000223
h    -2.1254480    0.6533263   -0.0726188  0.00   -0.0014825    0.0005394    0.0000134
h    -0.2516852    4.4895850    0.0075251  0.00    0.0002423    0.0005039    0.0000907
h     1.9583112    3.4274176   -0.1391745  0.00    0.0004133    0.0008586    0.0001579
h     2.3010106   -1.5794748   -0.4719686  0.00   -0.0097840   -0.0048812    0.0008151
o     6.6674140    1.3832360   -0.5331355  0.00   -0.0452549   -0.0328493    0.0546633
o     6.5758976    0.5615195    1.6879869  0.00   -0.0560994    0.0291455    0.0159558
h     7.5610712    0.2536695    1.5760063  0.00    0.0370358   -0.0326466   -0.0085108
    27
 Energy =       0.1888000161
c    -1.3019626    2.6459789    0.0345101  0.00   -0.0100785    0.0079216    0.0005351
c    -1.2276281    1.2791104   -0.0147130  0.00   -0.0181917   -0.0073753    0.0002675
c     0.0024944    0.7065576   -0.1002249  0.00   -0.0182383   -0.0382611   -0.0003697
c    -0.1596274    3.4059122   -0.0083336  0.00   -0.0047477    0.0149131    0.0006310
c     1.0708234    2.8062230   -0.1017566  0.00    0.0026570    0.0139643    0.0002388
c     1.1333895    1.4382037   -0.1444566  0.00    0.0109258    0.0114542    0.0003995
n     0.3039328   -0.6661985   -0.1898658  0.00    0.0290831    0.0214631   -0.0003715
c     2.2031345    0.5966892   -0.2562287  0.00    0.0291664   -0.0113674   -0.0028812
c     1.7190647   -0.6697122   -0.3088936  0.00   -0.0199994   -0.0196754    0.0005282
h    -0.3512169   -1.4731500   -0.1750900  0.00    0.0064975    0.0084861    0.0000025
c     3.6536486    1.0209414   -0.4134040  0.00   -0.0017651    0.0026122    0.0043024
c     4.6823352   -0.0002596    0.1311324  0.00   -0.0189007    0.0082942    0.0242038
h     3.7983251    1.9885510    0.1209254  0.00   -0.0007398    0.0030785    0.0011273
h     3.8608482    1.2114172   -1.4932643  0.00   -0.0002517    0.0024037   -0.0030262
c     6.0390355    0.6678371    0.3484482  0.00    0.0554239    0.0234729   -0.0679135
n     4.8031208   -1.1461378   -0.8156591  0.00   -0.0007660   -0.0012978   -0.0191546
h     4.3620817   -0.3554752    1.1399903  0.00    0.0023429   -0.0030474   -0.0009752
h     5.8108237   -1.2633604   -1.1227269  0.00    0.0193640    0.0020985    0.0044403
h     4.5708796   -2.0371265   -0.2997544  0.00   -0.0057829   -0.0111998    0.0080332
h    -2.2726095    3.1313825    0.1041706  0.00   -0.0004762    0.0001021    0.0000189
h    -2.1238229    0.6672340    0.0102012  0.00   -0.0013188    0.0002926    0.0000101
h    -0.2298142    4.4908424    0.0277483  0.00    0.0002129    0.0004554    0.0000728
h     1.9690524    3.4153278   -0.1457154  0.00    0.0005344    0.0007825    0.0001136
h     2.2886729   -1.5790014   -0.4612358  0.00   -0.0073011   -0.0037934    0.0005516
o     6.6106086    1.4312671   -0.6176673  0.00   -0.0345815   -0.0225505    0.0383711
o     6.6551154    0.5182627    1.5840268  0.00   -0.0521537    0.0249506    0.0193572
h     7.6588060    0.3143026    1.4172532  0.00    0.0390852   -0.0281776   -0.0085130
    27
 Energy =       0.1875106794
c    -1.3104785    2.6145508    0.0920723  0.00   -0.0091184    0.0068781    0.0004726
c    -1.2291931    1.2485458    0.0535020  0.00   -0.0162249   -0.0065725    0.0002067
c     0.0014476    0.6823187   -0.0483024  0.00   -0.0162128   -0.0338256   -0.0003949
c    -0.1736513    3.3798794    0.0223597  0.00   -0.0040574    0.0133006    0.0005558
c     1.0573377    2.7863583   -0.0885627  0.00    0.0025386    0.0123607    0.0002105
c     1.1259453    1.4193858   -0.1202724  0.00    0.0096440    0.0101726    0.0003701
n     0.3078526   -0.6910737   -0.1310762  0.00    0.0249660    0.0190488   -0.0001368
c     2.1971122    0.5855484   -0.2497305  0.00    0.0254608   -0.0103251   -0.0024252
c     1.7214937   -0.6834781   -0.2863284  0.00   -0.0172113   -0.0172442    0.0003389
h    -0.3416437   -1.5031610   -0.0936679  0.00    0.0054146    0.0071304    0.0000438
c     3.6403005    1.0180234   -0.4526602  0.00   -0.0013455    0.0022270    0.0036354
c     4.6922756    0.0271915    0.1042993  0.00   -0.0170182    0.0074834    0.0216508
h     3.7887860    2.0047487    0.0449689  0.00   -0.0002816    0.0034099    0.0013721
h     3.8225941    1.1742232   -1.5429602  0.00   -0.0001953    0.0023564   -0.0035740
c     6.0454477    0.7198611    0.2700830  0.00    0.0476092    0.0193192   -0.0589124
n     4.8037848   -1.1475288   -0.8065734  0.00   -0.0008904   -0.0014376   -0.0181509
h     4.3974444   -0.2968265    1.1322030  0.00    0.0018949   -0.0030492    0.0000408
h     5.8063484   -1.2748303   -1.1218351  0.00    0.0171834    0.0017026    0.0037501
h     4.5781866   -2.0223596   -0.2617768  0.00   -0.0053315   -0.0106845    0.0074815
h    -2.2825429    3.0951632    0.1747358  0.00   -0.0005380    0.0000864    0.0000233
h    -2.1212734    0.6316772    0.0997545  0.00   -0.0013843    0.0001225    0.0000174
h    -0.2491246    4.4647169    0.0499955  0.00    0.0002301    0.0004606    0.0000633
h     1.9506898    3.4006641   -0.1556263  0.00    0.0007369    0.0008491    0.0000741
h     2.2959952   -1.5867242   -0.4564823  0.00   -0.0062372   -0.0034384    0.0004388
o     6.5443768    1.5314897   -0.7070898  0.00   -0.0294905   -0.0168560    0.0299139
o     6.7280552    0.5571710    1.4698871  0.00   -0.0486307    0.0222412    0.0211536
h     7.7319445    0.4100847    1.2585001  0.00    0.0384897   -0.0257164   -0.0082191
    27
 Energy =       0.1878658443
c    -1.3294782    2.5582731    0.1541498  0.00   -0.0089749    0.0064919    0.0004696
c    -1.2324656    1.1933922    0.1199337  0.00   -0.0157126   -0.0063100    0.0002076
c     0.0028081    0.6413987   -0.0004272  0.00   -0.0156193   -0.0323103   -0.0003684
c    -0.2032955    3.3366461    0.0613007  0.00   -0.0038260    0.0128795    0.0005283
c     1.0322882    2.7574984   -0.0696365  0.00    0.0026602    0.0118112    0.0001750
c     1.1166640    1.3914355   -0.0967035  0.00    0.0091377    0.0097531    0.0003595
n     0.3238893   -0.7292228   -0.0853769  0.00    0.0230652    0.0182588    0.0000088
c     2.1946383    0.5708319   -0.2489978  0.00    0.0239851   -0.0103221   -0.0022218
c     1.7339905   -0.7032870   -0.2766344  0.00   -0.0159030   -0.0162867    0.0002293
h    -0.3143192   -1.5498594   -0.0303627  0.00    0.0048724    0.0064742    0.0000722
c     3.6260754    1.0200887   -0.4983384  0.00   -0.0013396    0.0021323    0.0029916
c     4.7098164    0.0736109    0.0782063  0.00   -0.0166434    0.0070807    0.0213565
h     3.7681282    2.0296406   -0.0449081  0.00    0.0002434    0.0043083    0.0017751
h     3.7840986    1.1363183   -1.5982227  0.00   -0.0002889    0.0025234   -0.0045254
c     6.0510856    0.8045516    0.1882381  0.00    0.0440784    0.0175768   -0.0540722
n     4.8290162   -1.1348304   -0.7872936  0.00   -0.0020018   -0.0014605   -0.0187339
h     4.4430355   -0.2148499    1.1252429  0.00    0.0017306   -0.0033919    0.0011691
h     5.8376192   -1.2875570   -1.0714193  0.00    0.0174305    0.0006213    0.0027485
h     4.5810462   -1.9874360   -0.2169035  0.00   -0.0053136   -0.0113000    0.0078367
h    -2.3058215    3.0276408    0.2516539  0.00   -0.0007072    0.0001227    0.0000397
h    -2.1163224    0.5660527    0.1838802  0.00   -0.0015442   -0.0000087    0.0000321
h    -0.2912496    4.4206964    0.0854344  0.00    0.0002359    0.0005339    0.0000606
h     1.9160330    3.3832546   -0.1568453  0.00    0.0009782    0.0009873    0.0000250
h     2.3152153   -1.5971658   -0.4727047  0.00   -0.0055847   -0.0035199    0.0003537
o     6.4694334    1.6595458   -0.7967297  0.00   -0.0267993   -0.0127595    0.0244409
o     6.7948599    0.6474313    1.3531341  0.00   -0.0470019    0.0208956    0.0232700
h     7.7927220    0.5315201    1.0997469  0.00    0.0388427   -0.0247811   -0.0082283
    27
 Energy =       0.1864933431
c    -1.3103013    2.6172277    0.0869657  0.00   -0.0090630    0.0063117    0.0004832
c    -1.2301440    1.2513449    0.0505545  0.00   -0.0156211   -0.0062210    0.0002295
c    -0.0002515    0.6840981   -0.0515779  0.00   -0.0154464   -0.0316708   -0.0003238
c    -0.1726156    3.3814109    0.0147619  0.00   -0.0037439    0.0128093    0.0005204
c     1.0577784    2.7867173   -0.0962059  0.00    0.0028329    0.0115926    0.0001441
c     1.1245966    1.4200643   -0.1254396  0.00    0.0088573    0.0095987    0.0003512
n     0.3044543   -0.6906467   -0.1318488  0.00    0.0218459    0.0179744    0.0000777
c     2.1952261    0.5864050   -0.2530730  0.00    0.0231137   -0.0105992   -0.0021521
c     1.7200294   -0.6825129   -0.2869369  0.00   -0.0150494   -0.0157656    0.0001810
h    -0.3460192   -1.5029557   -0.0929975  0.00    0.0044854    0.0060417    0.0000857
c     3.6406554    1.0177507   -0.4553848  0.00   -0.0013299    0.0022140    0.0023147
c     4.6894178    0.0248594    0.1092893  0.00   -0.0170531    0.0067094    0.0214174
h     3.7921923    2.0075708    0.0393464  0.00    0.0007156    0.0051185    0.0021786
h     3.8242807    1.1699423   -1.5476771  0.00   -0.0003724    0.0027654   -0.0054118
c     6.0446022    0.7174770    0.2868304  0.00    0.0422450    0.0176722   -0.0517538