    13
 Energy =       0.1240436860
c    -3.7133889    1.6950595    0.3173519  0.00   -0.0482568   -0.0209229    0.0219744
c    -2.4962693    2.6345192    0.2419999  0.00    0.0803350    0.3373581    0.1003484
c    -4.9565486    2.3924193   -0.2155699  0.00    0.0181706   -0.0014284    0.0018002
h    -5.2099685    3.2528291    0.4143399  0.00    0.0022502   -0.0142875   -0.0108014
h    -5.8205883    1.7190695   -0.2147749  0.00    0.0119906    0.0115284   -0.0023347
h    -4.8083986    2.7651692   -1.2348596  0.00   -0.0068585   -0.0028493    0.0175578
n    -3.4097890    0.4519539   -0.4549189  0.00    0.0745847   -0.0181916   -0.0541821
h    -3.8575589    1.4177196    1.3669296  0.00    0.0000516   -0.0026928   -0.0219694
h    -4.2340588    0.2238779   -1.0206697  0.00    0.0203389    0.0297546    0.0212204
h    -2.6878492    0.6694128   -1.1486897  0.00    0.0368134    0.0814717    0.0806306
o    -2.4571893    3.7760389    0.6681628  0.00   -0.0151946   -0.2709855   -0.1114250
o    -1.4389296    2.0221094   -0.3549299  0.00   -0.1353837   -0.1236409   -0.0305333
h    -0.7518168    1.9408394    0.3531709  0.00   -0.0388414   -0.0051140   -0.0122857
    13
 Energy =       0.0958884781
c    -3.7048266    1.6917827    0.3071205  0.00   -0.0295002   -0.0120661    0.0142126
c    -2.4750928    2.5998830    0.2346711  0.00    0.0498439    0.2015586    0.0640380
c    -4.9527254    2.4224836   -0.1946863  0.00    0.0145492   -0.0055556    0.0033112
h    -5.2457254    3.2058126    0.5358936  0.00   -0.0001816   -0.0032826   -0.0001328
h    -5.8092571    1.7292250   -0.3073237  0.00    0.0034247    0.0015284   -0.0025608
h    -4.7652722    2.9239223   -1.1690672  0.00   -0.0020388    0.0031489    0.0025466
n    -3.4524696    0.4549697   -0.4781879  0.00    0.0467992   -0.0102472   -0.0325160
h    -3.8364310    1.4100795    1.3652119  0.00    0.0000899   -0.0016336   -0.0131297
h    -4.2923635    0.2150964   -1.0314125  0.00    0.0114216    0.0184148    0.0127640
h    -2.7147943    0.6499532   -1.1788878  0.00    0.0281784    0.0560034    0.0527320
o    -2.4590437    3.8089777    0.6719410  0.00   -0.0104264   -0.1627235   -0.0685784
o    -1.3925261    2.0338042   -0.3888175  0.00   -0.0979900   -0.0787150   -0.0406433
h    -0.7418261    1.8150280    0.3510873  0.00   -0.0141698   -0.0064304    0.0079565
    13
 Energy =       0.0870523960
c    -3.6862247    1.6920606    0.2939607  0.00   -0.0205816   -0.0078996    0.0103868
c    -2.4646332    2.6056567    0.2040330  0.00    0.0374259    0.1464593    0.0478383
c    -4.9601128    2.4232357   -0.1470154  0.00    0.0130254   -0.0042201    0.0035804
h    -5.1791484    3.2566291    0.5606858  0.00   -0.0002155    0.0002670    0.0030277
h    -5.8359866    1.7345950   -0.1485706  0.00   -0.0024353   -0.0023874   -0.0017060
h    -4.8365576    2.8596792   -1.1669452  0.00   -0.0003562    0.0035387   -0.0027956
n    -3.4667602    0.4694211   -0.5195388  0.00    0.0351493   -0.0079353   -0.0240695
h    -3.7781512    1.3949775    1.3561689  0.00    0.0000619   -0.0013353   -0.0086682
h    -4.3152643    0.2480008   -1.0752415  0.00    0.0079991    0.0133421    0.0088360
h    -2.7215304    0.6587196   -1.2212104  0.00    0.0225717    0.0431092    0.0396216
o    -2.4691252    3.8412661    0.6496266  0.00   -0.0081124   -0.1184063   -0.0498424
o    -1.3605413    2.0627523   -0.4113975  0.00   -0.0832562   -0.0549594   -0.0460071
h    -0.7683182    1.7140241    0.3429867  0.00   -0.0012761   -0.0095729    0.0197981
    13
 Energy =       0.0856429055
c    -3.6855520    1.7035475    0.2896753  0.00   -0.0185050   -0.0071151    0.0092842
c    -2.4587153    2.6105587    0.2061620  0.00    0.0337012    0.1314728    0.0435034
c    -4.9536473    2.4423696   -0.1574984  0.00    0.0117484   -0.0038250    0.0032210
h    -5.1649463    3.2854441    0.5409846  0.00   -0.0002315    0.0003277    0.0027897
h    -5.8349274    1.7610688   -0.1507869  0.00   -0.0022396   -0.0022064   -0.0015242
h    -4.8269021    2.8662295   -1.1819715  0.00   -0.0002956    0.0032198   -0.0025936
n    -3.4743768    0.4768280   -0.5196159  0.00    0.0315120   -0.0072345   -0.0208387
h    -3.7849977    1.4107959    1.3533187  0.00    0.0000430   -0.0012326   -0.0077705
h    -4.3150479    0.2700610   -1.0951302  0.00    0.0067173    0.0119596    0.0076836
h    -2.7077493    0.6447579   -1.2058140  0.00    0.0212914    0.0391074    0.0353040
o    -2.4581890    3.8453111    0.6752353  0.00   -0.0071116   -0.1064274   -0.0445697
o    -1.3446830    2.0675982   -0.3941524  0.00   -0.0856654   -0.0394361   -0.0590955
h    -0.8326198    1.5764476    0.3571358  0.00    0.0090355   -0.0186102    0.0346063
    13
 Energy =       0.0806196518
c    -3.6595250    1.6842128    0.2756128  0.00   -0.0111651   -0.0043493    0.0072914
c    -2.4495302    2.6101767    0.1550599  0.00    0.0261903    0.0968992    0.0323176
c    -4.9723849    2.4217646   -0.0521437  0.00    0.0050952   -0.0011943    0.0035479
h    -5.1390697    3.2474546    0.6801474  0.00   -0.0008527    0.0012282    0.0034608
h    -5.8435908    1.7292177    0.0079663  0.00   -0.0034023   -0.0019180   -0.0008470
h    -4.9289799    2.8681601   -1.0766103  0.00   -0.0001485    0.0035929   -0.0053708
n    -3.4943877    0.4894339   -0.5919347  0.00    0.0262519   -0.0076964   -0.0166492
h    -3.6822904    1.3496873    1.3367354  0.00    0.0000907   -0.0017969   -0.0021432
h    -4.3501642    0.3208403   -1.1631677  0.00    0.0041879    0.0079159    0.0042717
h    -2.7348756    0.6659460   -1.2878670  0.00    0.0168126    0.0303272    0.0265756
o    -2.4697552    3.8654602    0.6189589  0.00   -0.0054435   -0.0785065   -0.0332101
o    -1.3251824    2.0967630   -0.4589404  0.00   -0.0644514   -0.0303843   -0.0454016
h    -0.7926181    1.6119006    0.2737254  0.00    0.0068348   -0.0141177    0.0261569
    13
 Energy =       0.0791474352
c    -3.6853397    1.6997280    0.2831758  0.00   -0.0090342   -0.0027393    0.0075980
c    -2.4520735    2.5976579    0.1884514  0.00    0.0243826    0.0900348    0.0300678
c    -4.9645402    2.4465620   -0.1574156  0.00    0.0014272   -0.0002371    0.0041791
h    -5.1535819    3.3148062    0.5213943  0.00   -0.0018716    0.0030330    0.0046809
h    -5.8534880    1.7759879   -0.1062064  0.00   -0.0037464   -0.0018179   -0.0003870
h    -4.8569272    2.8369928   -1.2029752  0.00    0.0000985    0.0046993   -0.0084670
n    -3.4943911    0.4599868   -0.5162317  0.00    0.0264495   -0.0099908   -0.0154822
h    -3.7763628    1.4182070    1.3595391  0.00   -0.0002312   -0.0026301    0.0015954
h    -4.3373218    0.2492259   -1.0943642  0.00    0.0031490    0.0061313    0.0024527
h    -2.7147620    0.5980421   -1.2004355  0.00    0.0166752    0.0280479    0.0233672
o    -2.4664260    3.8680694    0.6216560  0.00   -0.0053712   -0.0723735   -0.0306395
o    -1.3139459    2.0544303   -0.3757373  0.00   -0.0609270   -0.0266706   -0.0476804
h    -0.7731939    1.6413218    0.3966916  0.00    0.0089998   -0.0154870    0.0287150
    13
 Energy =       0.0747415531
c    -3.7082191    1.7122585    0.2833631  0.00   -0.0056851    0.0007328    0.0060235
c    -2.4550697    2.5830079    0.2007613  0.00    0.0155773    0.0565666    0.0217210
c    -4.9543503    2.4568715   -0.2507681  0.00   -0.0010787   -0.0001051    0.0035940
h    -5.1474938    3.3730606    0.3626412  0.00   -0.0022805    0.0045491    0.0047930
h    -5.8582084    1.8092005   -0.1858455  0.00   -0.0028832   -0.0015334    0.0001469
h    -4.8018845    2.7755896   -1.3151089  0.00    0.0004107    0.0044644   -0.0089992
n    -3.5158385    0.4251197   -0.4366147  0.00    0.0181542   -0.0098830   -0.0095007
h    -3.8515498    1.4931699    1.3707753  0.00   -0.0005520   -0.0026069    0.0041744
h    -4.3505541    0.1739021   -1.0136154  0.00    0.0016090    0.0029105    0.0003300
h    -2.7127757    0.5038156   -1.1085107  0.00    0.0146884    0.0194878    0.0139814
o    -2.4827649    3.8984920    0.5490218  0.00   -0.0056377   -0.0425650   -0.0202714
o    -1.2880718    2.0097766   -0.2798653  0.00   -0.0488019   -0.0148059   -0.0522222
h    -0.7155734    1.7467534    0.5413083  0.00    0.0164796   -0.0172120    0.0362293
    13
 Energy =       0.0732327099
c    -3.7132613    1.7164420    0.2755090  0.00   -0.0044024    0.0012636    0.0042231
c    -2.4538195    2.5790997    0.1866281  0.00    0.0082562    0.0305574    0.0168750
c    -4.9538213    2.4542118   -0.2766732  0.00   -0.0007484   -0.0003536    0.0025047
h    -5.1403962    3.3874681    0.3096948  0.00   -0.0016680    0.0035642    0.0036397
h    -5.8607216    1.8139315   -0.1951473  0.00   -0.0021034   -0.0012181    0.0001319
h    -4.7983052    2.7423969   -1.3467033  0.00    0.0003548    0.0033053   -0.0066776
n    -3.5339481    0.4123494   -0.4141696  0.00    0.0114353   -0.0075806   -0.0046886
h    -3.8633594    1.5222671    1.3655375  0.00   -0.0004291   -0.0018880    0.0031962
h    -4.3525193    0.1715405   -1.0200043  0.00    0.0002076    0.0020464   -0.0002241
h    -2.6989493    0.4473089   -1.0539158  0.00    0.0133971    0.0141749    0.0081066
o    -2.5097986    3.9415049    0.3902687  0.00   -0.0076564   -0.0147926   -0.0126590
o    -1.2554947    1.9740414   -0.1799929  0.00   -0.0320927   -0.0147678   -0.0459766
h    -0.7079594    1.7984556    0.6765107  0.00    0.0154493   -0.0143111    0.0315486
    13
 Energy =       0.0746972513
c    -3.7028000    1.7037888    0.2568671  0.00   -0.0032430    0.0035168    0.0050494
c    -2.4409852    2.5645394    0.1825003  0.00    0.0055946    0.0227567    0.0148933
c    -4.9562437    2.4690111   -0.2299342  0.00   -0.0018963    0.0001861    0.0021607
h    -5.1251142    3.3787556    0.3984430  0.00   -0.0018661    0.0042494    0.0039528
h    -5.8620171    1.8269732   -0.1525091  0.00   -0.0019638   -0.0010773    0.0001910
h    -4.8269659    2.8008199   -1.2914353  0.00    0.0003486    0.0033630   -0.0072339
n    -3.5410206    0.4359796   -0.5051872  0.00    0.0114822   -0.0098846   -0.0042893
h    -3.8286250    1.4538916    1.3398544  0.00   -0.0004129   -0.0019792    0.0046609
h    -4.3586598    0.2417355   -1.1311209  0.00   -0.0010003    0.0007178   -0.0018936
h    -2.7016368    0.4964234   -1.1391477  0.00    0.0121143    0.0125764    0.0063001
o    -2.5126717    3.9458759    0.2668623  0.00   -0.0094088   -0.0042284   -0.0101924
o    -1.2250699    1.9366650   -0.0868100  0.00   -0.0282225   -0.0156507   -0.0501283
h    -0.7605441    1.7065591    0.8091597  0.00    0.0184741   -0.0145459    0.0365294
    13
 Energy =       0.0731681638
c    -3.7020180    1.7260557    0.2783663  0.00   -0.0043434    0.0086918    0.0063390
c    -2.4398184    2.5813597    0.1268959  0.00    0.0060941    0.0213017    0.0131277
c    -4.9565998    2.4624773   -0.2485062  0.00   -0.0014914    0.0002126    0.0021879
h    -5.1205353    3.4091739    0.3270653  0.00   -0.0019119    0.0056461    0.0046736
h    -5.8632715    1.8272778   -0.1266189  0.00   -0.0024728   -0.0017805    0.0003774
h    -4.8331105    2.7308611   -1.3298163  0.00    0.0004381    0.0037728   -0.0087172
n    -3.5610194    0.3978459   -0.3867363  0.00    0.0087757   -0.0154685   -0.0034806
h    -3.8161951    1.5594638    1.3816613  0.00   -0.0006452   -0.0023711    0.0078359
h    -4.3880090    0.1621652   -0.9873719  0.00   -0.0018250   -0.0007731   -0.0035301
h    -2.7296067    0.3956193   -1.0348582  0.00    0.0125727    0.0100212    0.0025721
o    -2.4964055    3.9584385    0.2868591  0.00   -0.0106843   -0.0005119   -0.0084007
o    -1.2372690    1.9610744   -0.2198043  0.00   -0.0252804   -0.0140477   -0.0536418
h    -0.6984957    1.7892052    0.6504066  0.00    0.0207738   -0.0146934    0.0406567
    13
 Energy =       0.0724155873
c    -3.6833477    1.7470340    0.2978189  0.00   -0.0035796    0.0091057    0.0064243
c    -2.4517542    2.6326025    0.0577868  0.00    0.0054349    0.0201842    0.0109151
c    -4.9706266    2.4144523   -0.2435657  0.00   -0.0015677    0.0005763    0.0011949
h    -5.1482717    3.3884993    0.2805601  0.00   -0.0014158    0.0061109    0.0045705
h    -5.8567787    1.7617085   -0.0654055  0.00   -0.0033287   -0.0028106    0.0004344
h    -4.8776451    2.6244516   -1.3410409  0.00    0.0000979    0.0037627   -0.0091699
n    -3.5274147    0.3792625   -0.2807003  0.00    0.0085325   -0.0161217    0.0001765
h    -3.7652508    1.6506899    1.4136171  0.00   -0.0001673   -0.0024955    0.0092281
h    -4.3723529    0.0740864   -0.8286188  0.00   -0.0060383   -0.0033196   -0.0065927
h    -2.7233191    0.3542454   -0.9616817  0.00    0.0110014    0.0073666    0.0005465
o    -2.5349903    4.0091269    0.2142221  0.00   -0.0084278    0.0001294   -0.0067453
o    -1.2463430    2.0486745   -0.3372335  0.00   -0.0174762   -0.0105350   -0.0444657
h    -0.6842591    1.8761840    0.5117838  0.00    0.0169347   -0.0119532    0.0334834
    13
 Energy =       0.0723116930
c    -3.7103347    1.7275804    0.2867556  0.00   -0.0050047    0.0104072    0.0088491
c    -2.4366098    2.5833609    0.1526862  0.00    0.0094661    0.0269722    0.0150645
c    -4.9499788    2.4627633   -0.2896360  0.00   -0.0026422    0.0015696    0.0010917
h    -5.1208256    3.4211934    0.2702594  0.00   -0.0016089    0.0085680    0.0063741
h    -5.8664575    1.8303444   -0.1809257  0.00   -0.0066795   -0.0053719    0.0006224
h    -4.7996374    2.7178224   -1.3762876  0.00    0.0002178    0.0058033   -0.0143248
n    -3.5611672    0.3836871   -0.3565875  0.00    0.0095614   -0.0233019    0.0002787
h    -3.8496344    1.5760234    1.3961227  0.00   -0.0002563   -0.0041463    0.0148728
h    -4.4090806    0.1073176   -0.9186734  0.00   -0.0083162   -0.0046119   -0.0091787
h    -2.7551923    0.3937358   -1.0389556  0.00    0.0142426    0.0082662   -0.0005756
o    -2.4788073    3.9547935    0.3729752  0.00   -0.0095496    0.0040940   -0.0083195
o    -1.2393913    1.9678844   -0.2286145  0.00   -0.0218929   -0.0133654   -0.0594246
h    -0.6652370    1.8345112    0.6284237  0.00    0.0224625   -0.0148831    0.0446700
    13
 Energy =       0.0733319708
c    -3.6919070    1.7389161    0.2973403  0.00   -0.0050249    0.0082447    0.0080240
c    -2.4442118    2.6215748    0.0812711  0.00    0.0097690    0.0235749    0.0140001
c    -4.9710825    2.4291430   -0.2490190  0.00   -0.0030870    0.0018690    0.0004946
h    -5.1492178    3.3918896    0.2991909  0.00   -0.0014502    0.0078429    0.0057773
h    -5.8668969    1.7747595   -0.1012881  0.00   -0.0069802   -0.0054795    0.0006703
h    -4.8607194    2.6704446   -1.3431103  0.00    0.0002178    0.0055465   -0.0137520
n    -3.5456449    0.3752028   -0.3043486  0.00    0.0071052   -0.0221166    0.0017766
h    -3.7844563    1.6219668    1.4158601  0.00   -0.0002240   -0.0041349    0.0150183
h    -4.3769132    0.1014708   -0.8917571  0.00   -0.0081925   -0.0042244   -0.0085818
h    -2.7162769    0.3433605   -0.9581699  0.00    0.0141673    0.0063646   -0.0026463
o    -2.5168647    4.0028127    0.2357953  0.00   -0.0076342    0.0072147   -0.0072844
o    -1.2409525    2.0263851   -0.3100207  0.00   -0.0192403   -0.0114944   -0.0545365
h    -0.6772099    1.8630916    0.5457985  0.00    0.0205741   -0.0132076    0.0410398
    13
 Energy =       0.0735496001
c    -3.6858301    1.7397544    0.2960815  0.00   -0.0047999    0.0073300    0.0063785
c    -2.4564633    2.6353328    0.0254108  0.00    0.0098714    0.0224948    0.0128144
c    -4.9934428    2.4106030   -0.2048234  0.00   -0.0034992    0.0023290    0.0004676
h    -5.1687084    3.3695792    0.3489691  0.00   -0.0014010    0.0070925    0.0052250
h    -5.8726849    1.7408871   -0.0296497  0.00   -0.0068693   -0.0051775    0.0007702
h    -4.9214338    2.6538655   -1.3010321  0.00    0.0002916    0.0051508   -0.0131005
n    -3.5570853    0.3664021   -0.2879473  0.00    0.0039318   -0.0186599    0.0181664
h    -3.7367141    1.6379819    1.4182087  0.00   -0.0002932   -0.0038435    0.0144755
h    -4.3332304    0.1499721   -0.9793241  0.00   -0.0183104   -0.0058811   -0.0158783
h    -2.6527049    0.2690145   -0.8414291  0.00    0.0260029    0.0041929   -0.0108445
o    -2.5427396    4.0170985    0.1658373  0.00   -0.0067208    0.0067771   -0.0065327
o    -1.2488986    2.0544076   -0.3707718  0.00   -0.0170900   -0.0096987   -0.0494613
h    -0.6724176    1.9161192    0.4780126  0.00    0.0188859   -0.0121064    0.0375195
    13
 Energy =       0.0735185952
c    -3.6627161    1.7486612    0.3011466  0.00   -0.0041752    0.0035167    0.0047867
c    -2.4718886    2.6645422   -0.0702674  0.00    0.0107736    0.0187546    0.0103963
c    -5.0161326    2.3783675   -0.1282723  0.00   -0.0047814    0.0029484    0.0005663
h    -5.1882109    3.3350428    0.4273411  0.00   -0.0013165    0.0058348    0.0043329
h    -5.8653575    1.6844917    0.0964204  0.00   -0.0072296   -0.0052025    0.0010337
h    -5.0091380    2.6163801   -1.2276196  0.00    0.0002770    0.0047912   -0.0127312
n    -3.5490327    0.3654832   -0.2568722  0.00    0.0014278   -0.0153481    0.0199680
h    -3.6421805    1.6731765    1.4263626  0.00   -0.0001677   -0.0035754    0.0145890
h    -4.2834050    0.1767016   -1.0000314  0.00   -0.0182053   -0.0054068   -0.0156063
h    -2.6145357    0.2217792   -0.7468640  0.00    0.0256158    0.0016575   -0.0118600
o    -2.5913007    4.0502479    0.0070841  0.00   -0.0044768    0.0090526   -0.0053935
o    -1.2596510    2.1041177   -0.4769940  0.00   -0.0133857   -0.0073226   -0.0413707
h    -0.6888047    1.9420263    0.3661085  0.00    0.0156439   -0.0097005    0.0312887
    13
 Energy =       0.0724699162
c    -3.6400529    1.7555469    0.3002863  0.00   -0.0026480   -0.0001544    0.0027247
c    -2.4941803    2.6839341   -0.1694236  0.00    0.0108848    0.0142372    0.0069582
c    -5.0332966    2.3513203   -0.0391388  0.00   -0.0060048    0.0034219    0.0013176
h    -5.1935552    3.3033981    0.5241312  0.00   -0.0012304    0.0043155    0.0033207
h    -5.8487468    1.6362565    0.2367647  0.00   -0.0069699   -0.0048114    0.0012598
h    -5.1008671    2.5867862   -1.1360471  0.00    0.0001638    0.0041668   -0.0118854
n    -3.5488508    0.3704090   -0.2457663  0.00   -0.0008368   -0.0105130    0.0235682
h    -3.5409531    1.6977384    1.4214411  0.00    0.0000669   -0.0029332    0.0136698
h    -4.2216087    0.2283795   -1.0563062  0.00   -0.0191067   -0.0048784   -0.0173220
h    -2.5821698    0.1778086   -0.6500007  0.00    0.0261422   -0.0006623   -0.0119332
o    -2.6488258    4.0687368   -0.1516690  0.00   -0.0024447    0.0099210   -0.0040225
o    -1.2750984    2.1437754   -0.5773062  0.00   -0.0096208   -0.0052685   -0.0310702
h    -0.7141483    1.9569281    0.2605769  0.00    0.0116044   -0.0068412    0.0234145
    13
 Energy =       0.0702577223
c    -3.6189387    1.7575282    0.2917239  0.00   -0.0000694   -0.0024865    0.0004477
c    -2.5252621    2.6927074   -0.2672604  0.00    0.0085796    0.0083566    0.0024085
c    -5.0422257    2.3261534    0.0603769  0.00   -0.0060355    0.0033426    0.0024961
h    -5.1781653    3.2751077    0.6308662  0.00   -0.0009630    0.0024383    0.0021438
h    -5.8192555    1.5959801    0.3955178  0.00   -0.0057760   -0.0037928    0.0012717
h    -5.1971023    2.5546595   -1.0268642  0.00   -0.0001217    0.0030569   -0.0098526
n    -3.5578083    0.3803087   -0.2601813  0.00   -0.0020229   -0.0047399    0.0248661
h    -3.4351544    1.7053226    1.3995128  0.00    0.0003430   -0.0017967    0.0106032
h    -4.1476302    0.3023220   -1.1412593  0.00   -0.0180616   -0.0034468   -0.0187730
h    -2.5675798    0.1376762   -0.5632350  0.00    0.0236195   -0.0018914   -0.0092589
o    -2.7174581    4.0713477   -0.2966791  0.00   -0.0006759    0.0078230   -0.0021299
o    -1.2954281    2.1776894   -0.6679151  0.00   -0.0048653   -0.0034404   -0.0166355
h    -0.7403453    1.9842150    0.1629392  0.00    0.0060492   -0.0034229    0.0124127
    13
 Energy =       0.0681722839
c    -3.6020017    1.7542070    0.2818026  0.00    0.0013669   -0.0024735   -0.0005410
c    -2.5619911    2.6960303   -0.3490449  0.00    0.0051491    0.0031183   -0.0005507
c    -5.0426085    2.3002144    0.1559113  0.00   -0.0043470    0.0026252    0.0028902
h    -5.1487018    3.2515697    0.7257784  0.00   -0.0005324    0.0011765    0.0013537
h    -5.7791384    1.5620403    0.5542710  0.00   -0.0044970   -0.0028769    0.0012421
h    -5.2849834    2.5128333   -0.9159480  0.00   -0.0005618    0.0020346   -0.0075150
n    -3.5699237    0.3895901   -0.2870202  0.00   -0.0019007   -0.0015142    0.0204179
h    -3.3400011    1.6983099    1.3702782  0.00    0.0005573   -0.0009207    0.0070715
h    -4.0709699    0.3745638   -1.2216489  0.00   -0.0137025   -0.0014477   -0.0165096
h    -2.5717052    0.1023026   -0.4963976  0.00    0.0174653   -0.0017293   -0.0052891
o    -2.7936685    4.0657417   -0.4146392  0.00    0.0002443    0.0051018   -0.0009228
o    -1.3240740    2.2080304   -0.7531698  0.00   -0.0021196   -0.0013621   -0.0072435
h    -0.7525867    2.0455843    0.0673694  0.00    0.0028783   -0.0017319    0.0055963
    13
 Energy =       0.0667798064
c    -3.5861691    1.7485866    0.2709599  0.00    0.0018188   -0.0017560   -0.0005398
c    -2.6018602    2.7017057   -0.4187184  0.00    0.0021322   -0.0016691   -0.0014765
c    -5.0357330    2.2716317    0.2467484  0.00   -0.0020324    0.0018347    0.0024194
h    -5.1123638    3.2314103    0.8054478  0.00   -0.0000673    0.0005232    0.0008487
h    -5.7260603    1.5301884    0.7130241  0.00   -0.0034079   -0.0022908    0.0013363
h    -5.3648969    2.4572974   -0.8045313  0.00   -0.0010021    0.0012028   -0.0053090
n    -3.5798440    0.3981935   -0.3205481  0.00   -0.0012527   -0.0004033    0.0126219
h    -3.2522004    1.6839276    1.3362439  0.00    0.0006284   -0.0004584    0.0039703
h    -3.9919166    0.4391159   -1.2922871  0.00   -0.0077514    0.0003089   -0.0111987
h    -2.5853896    0.0699581   -0.4482798  0.00    0.0100443   -0.0008663   -0.0018409
o    -2.8881504    4.0575060   -0.5360190  0.00    0.0002724    0.0048465   -0.0005591
o    -1.3528683    2.2461461   -0.8238615  0.00   -0.0009398   -0.0004841   -0.0025718
h    -0.7649014    2.1253505   -0.0106365  0.00    0.0015575   -0.0007881    0.0022992
    13
 Energy =       0.0661916498
c    -3.5733073    1.7352219    0.2519374  0.00    0.0012445    0.0008835    0.0000794
c    -2.6394431    2.7093152   -0.4679322  0.00   -0.0006361   -0.0046270   -0.0004047
c    -5.0210138    2.2411416    0.3315857  0.00    0.0002020    0.0007799    0.0006865
h    -5.0678772    3.2113010    0.8741345  0.00    0.0001597    0.0001017    0.0002320
h    -5.6581885    1.5011901    0.8646481  0.00   -0.0010076   -0.0007324    0.0006593
h    -5.4356300    2.3957920   -0.6900984  0.00   -0.0005909    0.0001338   -0.0013983
n    -3.5968192    0.4072297   -0.3829569  0.00   -0.0003727   -0.0012899    0.0029481
h    -3.1756387    1.6433107    1.2898827  0.00    0.0001992   -0.0000852    0.0005438
h    -3.9105007    0.5096520   -1.3810828  0.00   -0.0014392    0.0011366   -0.0039537
h    -2.6180534    0.0297269   -0.4331822  0.00    0.0023215    0.0003045    0.0006491
o    -3.0006439    4.0393572   -0.6547992  0.00   -0.0012119    0.0044807   -0.0002300
o    -1.3676311    2.3002138   -0.8507874  0.00    0.0001084   -0.0008797   -0.0006720
h    -0.7776070    2.2375657   -0.0338069  0.00    0.0010230   -0.0002066    0.0008605
    13
 Energy =       0.0661485544
c    -3.5758509    1.7157985    0.2370884  0.00   -0.0008180    0.0015070    0.0004402
c    -2.6209587    2.7005752   -0.4422880  0.00   -0.0006585    0.0009008    0.0000167
c    -5.0125162    2.2467499    0.3397261  0.00    0.0001004   -0.0002201   -0.0000405
h    -5.0400556    3.1983976    0.9164845  0.00   -0.0000112    0.0008035    0.0003996
h    -5.6607382    1.4997944    0.8469027  0.00   -0.0000186   -0.0003000    0.0001319
h    -5.4264147    2.4462188   -0.6738216  0.00   -0.0003824    0.0001570   -0.0007345
n    -3.6264075    0.4140164   -0.4507260  0.00   -0.0003916   -0.0019154    0.0001624
h    -3.1796020    1.5729198    1.2703603  0.00    0.0004716   -0.0001347    0.0011053
h    -3.9481650    0.5574560   -1.4391154  0.00   -0.0003401   -0.0001451   -0.0010926
h    -2.6562330    0.0207894   -0.5269295  0.00    0.0005022   -0.0004603   -0.0001350
o    -2.9950619    4.0189370   -0.6662207  0.00   -0.0006853    0.0004364    0.0003354
o    -1.3284839    2.3054457   -0.7677950  0.00    0.0012698   -0.0005335   -0.0019523
h    -0.7718663    2.2639193    0.0738766  0.00    0.0009619   -0.0000955    0.0013635
    13
 Energy =       0.0661257873
c    -3.5684596    1.7073283    0.2301269  0.00    0.0000792    0.0007257    0.0002292
c    -2.6216606    2.6889197   -0.4638182  0.00    0.0001970   -0.0020201    0.0004012
c    -4.9980521    2.2486382    0.3752281  0.00   -0.0004687   -0.0001947    0.0002880
h    -5.0027999    3.1956380    0.9595794  0.00   -0.0000550    0.0005482    0.0003635
h    -5.6392389    1.5030232    0.8930291  0.00   -0.0001102   -0.0001239    0.0001112
h    -5.4364626    2.4594973   -0.6256468  0.00   -0.0003381    0.0001230   -0.0006824
n    -3.6459041    0.4137720   -0.4690835  0.00   -0.0004852   -0.0009656    0.0003809
h    -3.1476734    1.5503206    1.2512963  0.00    0.0003696   -0.0000285    0.0008699
h    -3.9917561    0.5697628   -1.4474054  0.00   -0.0003304   -0.0000522   -0.0010980
h    -2.6798709    0.0158884   -0.5736386  0.00    0.0008501   -0.0004451   -0.0001328
o    -3.0214639    3.9885151   -0.7544276  0.00   -0.0013963    0.0033737   -0.0004628
o    -1.3174601    2.3063761   -0.7540752  0.00    0.0001561   -0.0008433   -0.0025719
h    -0.7715519    2.3133384    0.0963778  0.00    0.0015318   -0.0000974    0.0023037
    13
 Energy =       0.0660895723
c    -3.5628706    1.6847745    0.2128777  0.00    0.0004322    0.0024739    0.0004004
c    -2.6113054    2.6733215   -0.4631577  0.00    0.0000621   -0.0015889    0.0002620
c    -4.9744056    2.2538055    0.4248028  0.00   -0.0010161   -0.0003365    0.0007679
h    -4.9385017    3.1774462    1.0460157  0.00   -0.0001239    0.0014851    0.0010013
h    -5.6170722    1.5025114    0.9322321  0.00    0.0000000   -0.0001220    0.0000916
h    -5.4386839    2.5147530   -0.5536147  0.00   -0.0008935    0.0004603   -0.0015715
n    -3.6904020    0.4260405   -0.5429662  0.00   -0.0005150   -0.0031664    0.0008706
h    -3.1170120    1.4697405    1.2139435  0.00    0.0009690   -0.0002941    0.0019884
h    -4.0607385    0.6350361   -1.5035655  0.00   -0.0011050    0.0003286   -0.0029615
h    -2.7360818    0.0123249   -0.6926959  0.00    0.0018702   -0.0010861   -0.0003369
o    -3.0317567    3.9511720   -0.8138530  0.00   -0.0015674    0.0028616   -0.0003079
o    -1.2919390    2.3089358   -0.7036420  0.00    0.0007395   -0.0009610   -0.0018718
h    -0.7715844    2.3511560    0.1611657  0.00    0.0011478   -0.0000547    0.0016674
    13
 Energy =       0.0660294191
c    -3.5588904    1.6699904    0.2001687  0.00    0.0001737    0.0017782    0.0002162
c    -2.6061593    2.6604160   -0.4702796  0.00    0.0001540   -0.0044000    0.0015619
c    -4.9583492    2.2515374    0.4500830  0.00   -0.0008537   -0.0002476    0.0005981
h    -4.8991620    3.1643123    1.0840392  0.00   -0.0000768    0.0009283    0.0006189
h    -5.5998198    1.4995843    0.9579340  0.00   -0.0000145   -0.0000409    0.0000520
h    -5.4387172    2.5328532   -0.5142390  0.00   -0.0005544    0.0002794   -0.0009947
n    -3.7148091    0.4312695   -0.5808527  0.00   -0.0003212   -0.0020571    0.0004816
h    -3.0990525    1.4260258    1.1874747  0.00    0.0006374   -0.0001786    0.0013164
h    -4.0961736    0.6665145   -1.5303306  0.00   -0.0007073    0.0001892   -0.0018954
h    -2.7681371    0.0095962   -0.7530221  0.00    0.0012596   -0.0006545   -0.0001941
o    -3.0532863    3.9032126   -0.9123572  0.00   -0.0037712    0.0066634   -0.0016371
o    -1.2677623    2.3226552   -0.6415169  0.00    0.0015818   -0.0025341   -0.0042402
h    -0.7820352    2.4230505    0.2404408  0.00    0.0024925    0.0002745    0.0041164
    13
 Energy =       0.0659269004
c    -3.5525556    1.6463973    0.1805923  0.00    0.0009325    0.0035779    0.0005550
c    -2.5972082    2.6444023   -0.4736024  0.00    0.0003981   -0.0028024    0.0011737
c    -4.9263186    2.2533629    0.5095519  0.00   -0.0016403   -0.0004360    0.0013573
h    -4.8194848    3.1366973    1.1800651  0.00   -0.0000549    0.0020854    0.0015704
h    -5.5680778    1.4957885    1.0086767  0.00    0.0000018   -0.0001113    0.0001115
h    -5.4360154    2.5881826   -0.4239581  0.00   -0.0014216    0.0008100   -0.0022090
n    -3.7691858    0.4524183   -0.6569971  0.00   -0.0008411   -0.0047246    0.0006896
h    -3.0649148    1.3393241    1.1385308  0.00    0.0015515   -0.0006872    0.0028544
h    -4.1727496    0.7463963   -1.5822967  0.00   -0.0017530    0.0007917   -0.0041199
h    -2.8401118    0.0124628   -0.8785017  0.00    0.0027030   -0.0015973   -0.0006051
o    -3.0566904    3.8601105   -0.9708214  0.00   -0.0028099    0.0047442   -0.0012298
o    -1.2499155    2.3272781   -0.6019625  0.00    0.0012101   -0.0018293   -0.0029265
h    -0.7891257    2.4581968    0.2882654  0.00    0.0017236    0.0001790    0.0027782
    13
 Energy =       0.0657674341
c    -3.5468789    1.6266529    0.1626656  0.00    0.0003288    0.0023354    0.0001335
c    -2.5924606    2.6295905   -0.4835092  0.00   -0.0002795   -0.0052841    0.0031995
c    -4.9008315    2.2450000    0.5426872  0.00   -0.0011344   -0.0002807    0.0009999
h    -4.7637611    3.1084125    1.2314974  0.00   -0.0000361    0.0012700    0.0009239
h    -5.5414436    1.4843277    1.0385315  0.00   -0.0000040   -0.0000454    0.0000696
h    -5.4288309    2.6098502   -0.3681282  0.00   -0.0008757    0.0004801   -0.0013599
n    -3.8027294    0.4644227   -0.7051502  0.00   -0.0004734   -0.0029059    0.0002584
h    -3.0426911    1.2815339    1.0976719  0.00    0.0009460   -0.0004470    0.0017834
h    -4.2161280    0.7942226   -1.6128122  0.00   -0.0010741    0.0004689   -0.0024794