    27
 Energy =       0.3458900903
c    -1.4235396    2.6054793   -0.0667700  0.00   -0.0462958    0.0383262    0.0026825
c    -1.3072796    1.2134697   -0.1072300  0.00   -0.0852839   -0.0325790    0.0019460
c    -0.0178900    0.6711998   -0.1697000  0.00   -0.0887793   -0.1877833   -0.0009570
c    -0.2940599    3.4190890   -0.0891300  0.00   -0.0231376    0.0690964    0.0028480
c     0.9872197    2.8590292   -0.1560400  0.00    0.0105626    0.0642230    0.0008658
c     1.1340797    1.4562096   -0.1970299  0.00    0.0532193    0.0517696    0.0022190
n     0.3879399   -0.6395298   -0.2140799  0.00    0.1425914    0.1095938   -0.0041608
c     2.2666594    0.5727398   -0.2659299  0.00    0.1500931   -0.0637423   -0.0067151
c     1.7555995   -0.7123598   -0.2706899  0.00   -0.0871971   -0.0979996    0.0095887
h    -0.2400399   -1.4313496   -0.2047299  0.00    0.0365409    0.0479347   -0.0003003
c     3.7030089    1.0223397   -0.3320099  0.00    0.0081507   -0.0141015   -0.0140186
c     4.7465686   -0.0024900    0.1378100  0.00    0.0040725    0.0851606    0.0247394
h     3.7978489    1.9290294    0.2803699  0.00   -0.0056839   -0.0082093   -0.0116065
h     3.9233889    1.3348996   -1.3618196  0.00   -0.0023389   -0.0044336    0.0159961
c     4.8964886   -1.0916697   -0.9404947  0.00    0.0341074   -0.0207389   -0.3467656
n     4.3764788   -0.6892298    1.4261196  0.00   -0.0193262   -0.1167635    0.0173561
h     5.7313184    0.4619039    0.2668599  0.00   -0.0156508   -0.0100914    0.0070480
h     3.5102190   -0.2546209    1.7604995  0.00    0.0175575   -0.0049333   -0.0420490
h     4.0970388   -1.6495395    1.1968197  0.00    0.1163383   -0.0813368   -0.3297765
h    -2.4108593    3.0588691   -0.0157800  0.00   -0.0007868    0.0002411    0.0000782
h    -2.1896094    0.5822398   -0.0890100  0.00   -0.0036126    0.0037861    0.0001233
h    -0.4052699    4.5000487   -0.0535400  0.00    0.0008796    0.0002083    0.0003395
h     1.8590495    3.5066790   -0.1715100  0.00   -0.0006363    0.0027498    0.0008009
h     2.2327294   -1.6813195   -0.3062999  0.00   -0.0159983   -0.0211995   -0.0023019
o     5.1775685   -0.8974357   -2.1114694  0.00   -0.0605748   -0.0467603    0.2824911
o     4.6751387   -2.3299593   -0.4225999  0.00   -0.1116038    0.1931664    0.3580313
h     3.9222489   -2.6988092   -0.9533687  0.00   -0.0072072    0.0444163    0.0314974
    27
 Energy =       0.3257185987
c    -1.4530667    2.5174484   -0.1094541  0.00   -0.0434179    0.0359673    0.0025101
c    -1.3098294    1.1289296   -0.1441418  0.00   -0.0799401   -0.0306531    0.0017581
c    -0.0130427    0.6119152   -0.2118294  0.00   -0.0831206   -0.1741276   -0.0013530
c    -0.3410039    3.3523740   -0.1362333  0.00   -0.0215444    0.0648502    0.0026731
c     0.9475968    2.8177248   -0.2030640  0.00    0.0102498    0.0601121    0.0008371
c     1.1176473    1.4214504   -0.2434894  0.00    0.0494686    0.0488683    0.0021409
n     0.4249333   -0.6975129   -0.2183296  0.00    0.1320721    0.1015835   -0.0030681
c     2.2674540    0.5738884   -0.3053700  0.00    0.1389314   -0.0594810   -0.0066914
c     1.7974930   -0.7244536   -0.3158543  0.00   -0.0803680   -0.0912917    0.0083949
h    -0.1746212   -1.5142775   -0.1785422  0.00    0.0330786    0.0431945   -0.0000856
c     3.6927057    1.0721335   -0.3105609  0.00    0.0082772   -0.0133253   -0.0135253
c     4.7430275    0.0766604    0.2096907  0.00    0.0051946    0.0791723    0.0230477
h     3.7328099    1.9793750    0.3112400  0.00   -0.0052751   -0.0065441   -0.0098083
h     3.9510322    1.3947002   -1.3303527  0.00   -0.0018523   -0.0041371    0.0141498
c     4.9347346   -1.0143160   -0.8539296  0.00    0.0329850   -0.0193055   -0.3265166
n     4.3374983   -0.5976781    1.4936189  0.00   -0.0159994   -0.1090079    0.0169368
h     5.7159536    0.5615489    0.3635291  0.00   -0.0140451   -0.0093302    0.0068529
h     3.4430623   -0.1840036    1.7885239  0.00    0.0144931   -0.0037725   -0.0383402
h     4.0904396   -1.5721182    1.2729456  0.00    0.1085032   -0.0778451   -0.3099523
h    -2.4490293    2.9515475   -0.0552586  0.00   -0.0009577    0.0003235    0.0000842
h    -2.1787830    0.4796445   -0.1126975  0.00   -0.0036579    0.0033287    0.0001256
h    -0.4732015    4.4312234   -0.1025809  0.00    0.0008069    0.0004320    0.0003243
h     1.8073871    3.4814712   -0.2203692  0.00   -0.0003900    0.0026675    0.0007628
h     2.3179933   -1.6760114   -0.3602090  0.00   -0.0114551   -0.0219922   -0.0027427
o     5.2118891   -0.8090392   -2.0370638  0.00   -0.0583002   -0.0440639    0.2635935
o     4.6699625   -2.2533932   -0.3543568  0.00   -0.0763077    0.2032609    0.3781515
h     4.0810020   -2.6943191   -1.0666140  0.00   -0.0374289    0.0211166   -0.0102600
    27
 Energy =       0.2816354734
c    -1.4866907    2.4213003   -0.0612123  0.00   -0.0328118    0.0274322    0.0018526
c    -1.3200954    1.0427547   -0.0910109  0.00   -0.0607769   -0.0231786    0.0011877
c    -0.0265120    0.5493771   -0.1626806  0.00   -0.0637210   -0.1322632   -0.0013692
c    -0.3926233    3.2699738   -0.0996921  0.00   -0.0161261    0.0493013    0.0020520
c     0.8947614    2.7569034   -0.1743027  0.00    0.0083545    0.0455043    0.0006628
c     1.0756680    1.3745024   -0.2072609  0.00    0.0366776    0.0378019    0.0015499
n     0.4232920   -0.7683626   -0.1769001  0.00    0.0982861    0.0770976   -0.0014034
c     2.2299939    0.5728200   -0.2861640  0.00    0.1043726   -0.0452955   -0.0048359
c     1.8079949   -0.7330302   -0.3052156  0.00   -0.0609587   -0.0676684    0.0061751
h    -0.1533442   -1.6109208   -0.1269036  0.00    0.0247846    0.0317839    0.0000738
c     3.6421879    1.1157955   -0.3475298  0.00    0.0066964   -0.0090241   -0.0104525
c     4.7440734    0.1650831    0.1623360  0.00    0.0045618    0.0601934    0.0170028
h     3.6815174    2.0391047    0.2554042  0.00   -0.0037671   -0.0045396   -0.0073881
h     3.8546229    1.4228433   -1.3875289  0.00   -0.0015569   -0.0025133    0.0094714
c     4.9720547   -0.9248874   -0.8822847  0.00    0.0243710   -0.0138630   -0.2473652
n     4.3897084   -0.4954065    1.4609476  0.00   -0.0100123   -0.0845163    0.0124680
h     5.7005457    0.7002584    0.2856447  0.00   -0.0092381   -0.0061475    0.0053967
h     3.5091500   -0.0844773    1.8143792  0.00    0.0087324   -0.0021829   -0.0277054
h     4.1609448   -1.4869174    1.2600807  0.00    0.0852845   -0.0637132   -0.2452072
h    -2.4893749    2.8391127   -0.0031523  0.00   -0.0008768    0.0003348    0.0000681
h    -2.1760045    0.3766819   -0.0535360  0.00   -0.0029799    0.0024115    0.0000930
h    -0.5414792    4.3469590   -0.0721122  0.00    0.0006369    0.0004968    0.0002510
h     1.7454466    3.4316286   -0.2072187  0.00    0.0000560    0.0020134    0.0005780
h     2.3852605   -1.6515660   -0.3977102  0.00   -0.0056411   -0.0196972   -0.0028923
o     5.2650997   -0.6958219   -2.0968136  0.00   -0.0438275   -0.0328328    0.1999055
o     4.7560914   -2.1867190   -0.3958925  0.00   -0.0574110    0.1596744    0.3011632
h     4.2397551   -2.6720769   -1.1344237  0.00   -0.0331090    0.0133900   -0.0113326
    27
 Energy =       0.2576195395
c    -1.5252643    2.3270396   -0.0191897  0.00   -0.0264769    0.0219881    0.0014436
c    -1.3304146    0.9562848   -0.0254152  0.00   -0.0487599   -0.0188667    0.0006974
c    -0.0352089    0.4895524   -0.1118853  0.00   -0.0509656   -0.1044526   -0.0024235
c    -0.4517157    3.1943669   -0.0928742  0.00   -0.0124118    0.0398085    0.0017146
c     0.8385922    2.7064393   -0.1831645  0.00    0.0072785    0.0365017    0.0006671
c     1.0397395    1.3339890   -0.1943634  0.00    0.0290759    0.0307973    0.0013295
n     0.4376600   -0.8288872   -0.0834910  0.00    0.0752619    0.0605575    0.0010962
c     2.2023842    0.5710009   -0.2867794  0.00    0.0831801   -0.0360640   -0.0037596
c     1.8231456   -0.7430216   -0.2826077  0.00   -0.0463251   -0.0527552    0.0034612
h    -0.1136596   -1.6915637    0.0188702  0.00    0.0182285    0.0226799    0.0007433
c     3.5987288    1.1539836   -0.3944662  0.00    0.0055591   -0.0061612   -0.0085545
c     4.7430062    0.2489188    0.1137570  0.00    0.0039952    0.0482287    0.0134716
h     3.6296920    2.0925492    0.1885267  0.00   -0.0027741   -0.0032120   -0.0057902
h     3.7765402    1.4433681   -1.4488497  0.00   -0.0014074   -0.0015424    0.0067402
c     5.0110557   -0.8383682   -0.9161986  0.00    0.0190348   -0.0100101   -0.1968417
n     4.4290830   -0.4002829    1.4242262  0.00   -0.0070740   -0.0673486    0.0100945
h     5.6798851    0.8279292    0.2162979  0.00   -0.0063093   -0.0041619    0.0044384
h     3.5529361   -0.0030476    1.8107965  0.00    0.0061902   -0.0015864   -0.0214463
h     4.2319501   -1.4087349    1.2449384  0.00    0.0693683   -0.0545628   -0.2007817
h    -2.5352620    2.7252791    0.0510304  0.00   -0.0010166    0.0003237    0.0000679
h    -2.1701144    0.2716399    0.0466631  0.00   -0.0030831    0.0013231    0.0001321
h    -0.6214136    4.2688779   -0.0826340  0.00    0.0005791    0.0008045    0.0002035
h     1.6756057    3.3964866   -0.2476906  0.00    0.0006895    0.0020168    0.0004338
h     2.4418967   -1.6341295   -0.3950769  0.00   -0.0028357   -0.0171644   -0.0029014
o     5.3173581   -0.5926989   -2.1497382  0.00   -0.0345522   -0.0259832    0.1590833
o     4.8473301   -2.1153143   -0.4371793  0.00   -0.0448233    0.1305744    0.2486649
h     4.3985082   -2.6367436   -1.1942552  0.00   -0.0296261    0.0082674   -0.0119841
    27
 Energy =       0.2524295746
c    -1.4944886    2.3852603   -0.0411243  0.00   -0.0258377    0.0211113    0.0013969
c    -1.3208463    1.0129044   -0.0762237  0.00   -0.0470205   -0.0187891    0.0006649
c    -0.0326889    0.5284109   -0.1468719  0.00   -0.0483265   -0.0977226   -0.0022077
c    -0.4062079    3.2366631   -0.0758798  0.00   -0.0115635    0.0387267    0.0016027
c     0.8778760    2.7303821   -0.1506712  0.00    0.0072979    0.0354814    0.0005898
c     1.0570213    1.3559849   -0.1865170  0.00    0.0282437    0.0300855    0.0012510
n     0.4091622   -0.8012275   -0.1795686  0.00    0.0701226    0.0559184    0.0010515
c     2.2081711    0.5766831   -0.2718199  0.00    0.0804413   -0.0339458   -0.0036099
c     1.8066145   -0.7309029   -0.3073710  0.00   -0.0418723   -0.0496958    0.0033172
h    -0.1653694   -1.6571419   -0.1398829  0.00    0.0153980    0.0187480    0.0007936
c     3.6177824    1.1354588   -0.3491579  0.00    0.0053120   -0.0055614   -0.0082861
c     4.7392164    0.1932388    0.1455104  0.00    0.0039143    0.0461403    0.0131651
h     3.6611792    2.0580798    0.2591948  0.00   -0.0024820   -0.0026573   -0.0052828
h     3.8135509    1.4470313   -1.3946161  0.00   -0.0014021   -0.0012313    0.0060540
c     4.9792922   -0.8946179   -0.8919681  0.00    0.0183823   -0.0091682   -0.1889977
n     4.4109308   -0.4546853    1.4515769  0.00   -0.0051989   -0.0633823    0.0097938
h     5.6919532    0.7467604    0.2502333  0.00   -0.0056642   -0.0037736    0.0043056
h     3.5530404   -0.0248943    1.8476396  0.00    0.0048464   -0.0009171   -0.0202814
h     4.1660426   -1.4517683    1.2597341  0.00    0.0660801   -0.0542882   -0.1929550
h    -2.4997496    2.7976928    0.0162121  0.00   -0.0012165    0.0002889    0.0000769
h    -2.1730710    0.3392529   -0.0456159  0.00   -0.0037246    0.0005498    0.0001467
h    -0.5591651    4.3136224   -0.0464264  0.00    0.0006288    0.0011370    0.0001954
h     1.7274664    3.4080666   -0.1838411  0.00    0.0011626    0.0023929    0.0003919
h     2.4122183   -1.6289889   -0.4245547  0.00   -0.0027972   -0.0167123   -0.0027949
o     5.2841312   -0.6450691   -2.1292063  0.00   -0.0331454   -0.0249765    0.1524643
o     4.7802329   -2.1730502   -0.4245768  0.00   -0.0430436    0.1244448    0.2390017
h     4.3477492   -2.6882337   -1.1949605  0.00   -0.0285350    0.0077963   -0.0118476
    27
 Energy =       0.2333320364
c    -1.4613365    2.4319895   -0.0307035  0.00   -0.0203329    0.0163678    0.0010794
c    -1.3072731    1.0633198   -0.0997398  0.00   -0.0364524   -0.0154039    0.0006075
c    -0.0321505    0.5626185   -0.1596471  0.00   -0.0363668   -0.0717626   -0.0003032
c    -0.3613872    3.2642201   -0.0278839  0.00   -0.0086707    0.0304195    0.0010763
c     0.9119049    2.7396751   -0.0927189  0.00    0.0058125    0.0280344    0.0002509
c     1.0651101    1.3689827   -0.1568897  0.00    0.0221382    0.0239062    0.0008262
n     0.3728132   -0.7793405   -0.2693292  0.00    0.0528822    0.0399420   -0.0007501
c     2.1988390    0.5821450   -0.2450129  0.00    0.0631423   -0.0249584   -0.0024533
c     1.7824794   -0.7157385   -0.3309657  0.00   -0.0300477   -0.0374397    0.0037669
h    -0.2233858   -1.6276860   -0.2986360  0.00    0.0094203    0.0110402    0.0001745
c     3.6202516    1.1179599   -0.3103051  0.00    0.0037932   -0.0042228   -0.0066989
c     4.7296103    0.1415167    0.1521027  0.00    0.0032220    0.0351276    0.0103227
h     3.6844608    2.0227259    0.3255735  0.00   -0.0017930   -0.0015117   -0.0036410
h     3.8194240    1.4526090   -1.3496044  0.00   -0.0011481   -0.0008087    0.0043989
c     4.9435530   -0.9412460   -0.8932771  0.00    0.0142401   -0.0067802   -0.1463527
n     4.4089473   -0.4997296    1.4575133  0.00    0.0037033   -0.0473221    0.0062661
h     5.6953377    0.6778651    0.2443869  0.00   -0.0040793   -0.0028172    0.0033812
h     3.6026726   -0.0098124    1.9052148  0.00   -0.0019129    0.0031802   -0.0131025
h     4.0820124   -1.4773735    1.2532643  0.00    0.0507830   -0.0492203   -0.1562827
h    -2.4611572    2.8583727    0.0176299  0.00   -0.0011375    0.0001928    0.0000699
h    -2.1692565    0.4007503   -0.1121273  0.00   -0.0036390   -0.0003676    0.0000902
h    -0.4976362    4.3427925    0.0234134  0.00    0.0005396    0.0012948    0.0001495
h     1.7734574    3.4030592   -0.0975180  0.00    0.0013166    0.0022836    0.0002774
h     2.3850079   -1.6103084   -0.4711554  0.00   -0.0019740   -0.0135734   -0.0022187
o     5.2539574   -0.6702636   -2.1466484  0.00   -0.0256483   -0.0188091    0.1174784
o     4.7119383   -2.2297983   -0.4553523  0.00   -0.0330399    0.1001508    0.1961342
h     4.3638500   -2.7543925   -1.2623370  0.00   -0.0247505    0.0030576   -0.0145470
    27
 Energy =       0.2168162203
c    -1.4712244    2.4050373   -0.0491514  0.00   -0.0142802    0.0115590    0.0007631
c    -1.3092961    1.0424799   -0.1265983  0.00   -0.0256865   -0.0108586    0.0004989
c    -0.0378395    0.5497129   -0.1836293  0.00   -0.0256981   -0.0506279    0.0000015
c    -0.3774853    3.2393200   -0.0355515  0.00   -0.0060459    0.0214421    0.0007154
c     0.8936853    2.7210534   -0.0966205  0.00    0.0041830    0.0197528    0.0001226
c     1.0480950    1.3574206   -0.1682062  0.00    0.0154878    0.0169778    0.0005611
n     0.3665020   -0.7958315   -0.3009402  0.00    0.0369304    0.0281353   -0.0007468
c     2.1800924    0.5876278   -0.2505570  0.00    0.0445920   -0.0175260   -0.0018186
c     1.7819675   -0.7103303   -0.3472565  0.00   -0.0211232   -0.0262826    0.0028920
h    -0.2255167   -1.6497470   -0.3417913  0.00    0.0065947    0.0076482    0.0000761
c     3.5994573    1.1335842   -0.2993412  0.00    0.0027375   -0.0029819   -0.0047463
c     4.7122238    0.1634112    0.1707930  0.00    0.0023455    0.0253352    0.0070628
h     3.6542474    2.0359297    0.3426188  0.00   -0.0012878   -0.0010134   -0.0025227
h     3.8078120    1.4715170   -1.3371339  0.00   -0.0007804   -0.0005691    0.0030624
c     4.9509910   -0.9231472   -0.8626493  0.00    0.0096515   -0.0037807   -0.1029676
n     4.3985435   -0.4525990    1.4869575  0.00    0.0036917   -0.0317377    0.0047038
h     5.6730979    0.7126267    0.2552812  0.00   -0.0027936   -0.0019153    0.0024476
h     3.5751506    0.0171291    1.9274723  0.00   -0.0018441    0.0026759   -0.0091200
h     4.1168890   -1.4532016    1.3139850  0.00    0.0372661   -0.0399564   -0.1171560
h    -2.4730568    2.8263324   -0.0031966  0.00   -0.0008189    0.0001455    0.0000523
h    -2.1663634    0.3749508   -0.1480940  0.00   -0.0026170   -0.0002968    0.0000704
h    -0.5184537    4.3167394    0.0215744  0.00    0.0003912    0.0009439    0.0001016
h     1.7526767    3.3868303   -0.0928702  0.00    0.0009939    0.0016038    0.0001927
h     2.4082294   -1.5894700   -0.4797578  0.00   -0.0004512   -0.0100992   -0.0017386
o     5.2665942   -0.6417416   -2.1343028  0.00   -0.0180079   -0.0130319    0.0827642
o     4.7624221   -2.2253097   -0.4335720  0.00   -0.0225647    0.0781841    0.1527922
h     4.5226031   -2.7854119   -1.2582153  0.00   -0.0208660   -0.0037261   -0.0180644
    27
 Energy =       0.2041236169
c    -1.4807953    2.3825970   -0.0385197  0.00   -0.0089840    0.0073336    0.0004639
c    -1.3133905    1.0252016   -0.1203345  0.00   -0.0162444   -0.0068538    0.0003185
c    -0.0458790    0.5382017   -0.1800189  0.00   -0.0162838   -0.0320641    0.0000122
c    -0.3917446    3.2177081   -0.0235231  0.00   -0.0038092    0.0135485    0.0004236
c     0.8768996    2.7037202   -0.0877310  0.00    0.0026785    0.0124789    0.0000569
c     1.0310796    1.3458450   -0.1630914  0.00    0.0097132    0.0108190    0.0003521
n     0.3556178   -0.8111918   -0.2994990  0.00    0.0232206    0.0178053   -0.0004247
c     2.1600596    0.5892860   -0.2488620  0.00    0.0282857   -0.0110938   -0.0010803
c     1.7750962   -0.7078848   -0.3504386  0.00   -0.0133588   -0.0165650    0.0018639
h    -0.2341528   -1.6693498   -0.3390118  0.00    0.0041939    0.0048156    0.0000506
c     3.5775996    1.1417245   -0.3050005  0.00    0.0017147   -0.0018660   -0.0030539
c     4.6998175    0.1784813    0.1609199  0.00    0.0016722    0.0163998    0.0041738
h     3.6337371    2.0449516    0.3370070  0.00   -0.0008239   -0.0006307   -0.0016021
h     3.7796122    1.4781831   -1.3457154  0.00   -0.0005055   -0.0003489    0.0019172
c     4.9576349   -0.9078883   -0.8669023  0.00    0.0057265   -0.0017536   -0.0647948
n     4.4047037   -0.4174398    1.4876006  0.00    0.0026249   -0.0202277    0.0028794
h     5.6551253    0.7419310    0.2317783  0.00   -0.0016185   -0.0011011    0.0015921
h     3.5916823    0.0557930    1.9447044  0.00   -0.0014372    0.0017756   -0.0056516
h     4.1296286   -1.4244618    1.3395388  0.00    0.0258152   -0.0287686   -0.0816216
h    -2.4837791    2.8003192    0.0097763  0.00   -0.0005258    0.0001016    0.0000324
h    -2.1666727    0.3539523   -0.1427434  0.00   -0.0016683   -0.0001924    0.0000449
h    -0.5357143    4.2943200    0.0366941  0.00    0.0002487    0.0006072    0.0000627
h     1.7339494    3.3710926   -0.0839976  0.00    0.0006548    0.0009921    0.0001224
h     2.4183087   -1.5734429   -0.4857816  0.00    0.0002621   -0.0067312   -0.0012096
o     5.2756915   -0.6102260   -2.1535254  0.00   -0.0113866   -0.0078706    0.0522863
o     4.8065728   -2.2229420   -0.4536941  0.00   -0.0146277    0.0580230    0.1125241
h     4.6813562   -2.8035686   -1.2903820  0.00   -0.0155374   -0.0086329   -0.0197383
    27
 Energy =       0.1951837224
c    -1.4948063    2.3524476    0.0041771  0.00   -0.0048936    0.0040311    0.0002081
c    -1.3199546    0.9996922   -0.0838349  0.00   -0.0088798   -0.0036980    0.0001291
c    -0.0546196    0.5207301   -0.1550167  0.00   -0.0089029   -0.0174518   -0.0000273
c    -0.4115920    3.1911635    0.0133208  0.00   -0.0020970    0.0073911    0.0001961
c     0.8560373    2.6841009   -0.0635672  0.00    0.0015326    0.0067524    0.0000166
c     1.0133122    1.3311565   -0.1444473  0.00    0.0051751    0.0059424    0.0002120
n     0.3473421   -0.8303629   -0.2816746  0.00    0.0123571    0.0096958   -0.0001028
c     2.1411774    0.5881016   -0.2446676  0.00    0.0153099   -0.0061392   -0.0004045
c     1.7689928   -0.7089606   -0.3497924  0.00   -0.0070914   -0.0089225    0.0010021
h    -0.2387538   -1.6933563   -0.3157863  0.00    0.0022710    0.0025657    0.0000393
c     3.5549261    1.1493718   -0.3245464  0.00    0.0009807   -0.0009030   -0.0017445
c     4.6931112    0.1958467    0.1264616  0.00    0.0011278    0.0091014    0.0016963
h     3.6172113    2.0549466    0.3146864  0.00   -0.0004148   -0.0003193   -0.0008497
h     3.7383299    1.4834428   -1.3705812  0.00   -0.0002759   -0.0001207    0.0008672
c     4.9646638   -0.8866162   -0.9026744  0.00    0.0030933   -0.0003276   -0.0344320
n     4.4280805   -0.3841643    1.4642544  0.00    0.0031394   -0.0116425    0.0010217
h     5.6412070    0.7756931    0.1780756  0.00   -0.0006068   -0.0004311    0.0008848
h     3.6477325    0.1128394    1.9554840  0.00   -0.0024620    0.0018668   -0.0019092
h     4.1290666   -1.3873916    1.3389810  0.00    0.0161428   -0.0194213   -0.0520674
h    -2.4994877    2.7645277    0.0619736  0.00   -0.0003450    0.0000850    0.0000167
h    -2.1685648    0.3232238   -0.1018248  0.00   -0.0009434   -0.0001130    0.0000197
h    -0.5604509    4.2666645    0.0781433  0.00    0.0001264    0.0003538    0.0000341
h     1.7095470    3.3553111   -0.0660707  0.00    0.0004037    0.0005383    0.0000664
h     2.4261936   -1.5609716   -0.4982949  0.00    0.0005791   -0.0039521   -0.0007120
o     5.2664052   -0.5675533   -2.2035551  0.00   -0.0064018   -0.0036083    0.0279342
o     4.8568282   -2.2144370   -0.5097785  0.00   -0.0092343    0.0391201    0.0757856
h     4.8401093   -2.8005335   -1.3501979  0.00   -0.0096902   -0.0103935   -0.0178809
    27
 Energy =       0.1923399772
c    -1.5398972    2.2590078    0.0667851  0.00   -0.0041910    0.0030425    0.0001711
c    -1.3323049    0.9113871   -0.0199870  0.00   -0.0070625   -0.0029519    0.0000683
c    -0.0574441    0.4642474   -0.1107943  0.00   -0.0067022   -0.0129481   -0.0000577
c    -0.4781140    3.1243180    0.0549836  0.00   -0.0015633    0.0059882    0.0001753
c     0.7997682    2.6488826   -0.0423945  0.00    0.0016967    0.0051829    0.0000077
c     0.9884788    1.3008817   -0.1215593  0.00    0.0039593    0.0044630    0.0001876
n     0.3753950   -0.8786821   -0.2391621  0.00    0.0082097    0.0068248    0.0000472
c     2.1318625    0.5889469   -0.2410091  0.00    0.0112378   -0.0045532   -0.0002000
c     1.7936725   -0.7175209   -0.3361317  0.00   -0.0045522   -0.0066960    0.0006206
h    -0.1890770   -1.7576262   -0.2578090  0.00    0.0012327    0.0012100    0.0000268
c     3.5284756    1.1882346   -0.3558907  0.00    0.0008823    0.0001414   -0.0014783
c     4.7031138    0.2648077    0.0666665  0.00    0.0010911    0.0065997   -0.0000492
h     3.5832019    2.0958109    0.2816026  0.00   -0.0002356   -0.0001604   -0.0006337
h     3.6765065    1.5268054   -1.4069399  0.00   -0.0001158    0.0001804    0.0000520
c     4.9777871   -0.8157478   -0.9650843  0.00    0.0023840    0.0024622   -0.0195410
n     4.4911861   -0.3068502    1.4178062  0.00    0.0030780   -0.0092945    0.0017800
h     5.6372155    0.8705622    0.0861080  0.00    0.0003688    0.0000992    0.0005922
h     3.7326396    0.1936949    1.9395570  0.00   -0.0026211    0.0016347   -0.0005243
h     4.1905614   -1.3117250    1.3153714  0.00    0.0119549   -0.0152053   -0.0395682
h    -2.5538887    2.6459863    0.1403098  0.00   -0.0007448    0.0002063    0.0000425
h    -2.1638170    0.2133399   -0.0214383  0.00   -0.0011385   -0.0003913    0.0000124
h    -0.6527724    4.1962309    0.1188511  0.00    0.0000501    0.0006212    0.0000463
h     1.6362930    3.3413759   -0.0624873  0.00    0.0007323    0.0007318    0.0000352
h     2.4741861   -1.5497119   -0.4968737  0.00    0.0010363   -0.0033927   -0.0006119
o     5.1551239   -0.4911566   -2.2985135  0.00   -0.0041722    0.0025628    0.0106417
o     4.9850295   -2.1483257   -0.5557434  0.00   -0.0075334    0.0223790    0.0615551
h     4.9988624   -2.7422613   -1.3869762  0.00   -0.0072816   -0.0087366   -0.0133979
    27
 Energy =       0.1885944038
c    -1.5585844    2.2071159    0.1495642  0.00   -0.0024488    0.0022475    0.0001022
c    -1.3380747    0.8657780    0.0222597  0.00   -0.0038026   -0.0019430    0.0000063
c    -0.0618318    0.4344778   -0.0950864  0.00   -0.0036466   -0.0065047    0.0001624
c    -0.5065056    3.0823504    0.1503047  0.00   -0.0010964    0.0036347    0.0000661
c     0.7735436    2.6225059    0.0255538  0.00    0.0009860    0.0031574   -0.0000208
c     0.9736476    1.2802393   -0.0932876  0.00    0.0019624    0.0023224    0.0000914
n     0.3797589   -0.9017021   -0.2709066  0.00    0.0046637    0.0027372   -0.0001433
c     2.1204506    0.5853934   -0.2472103  0.00    0.0061798   -0.0021570    0.0001101
c     1.7959966   -0.7198397   -0.3802325  0.00   -0.0022921   -0.0040015    0.0003631
h    -0.1767558   -1.7859006   -0.3103529  0.00    0.0004816    0.0002227   -0.0000133
c     3.5097902    1.1993218   -0.3675966  0.00    0.0003894    0.0001039   -0.0007689
c     4.6981821    0.2882653    0.0438805  0.00    0.0006280    0.0037519    0.0009779
h     3.5599195    2.1044740    0.2739361  0.00   -0.0000940   -0.0000705   -0.0003136
h     3.6482828    1.5444314   -1.4179962  0.00   -0.0000665    0.0001496   -0.0000384
c     5.0103584   -0.7606057   -1.0124474  0.00   -0.0020618    0.0004895   -0.0029894
n     4.4952118   -0.3032658    1.3863733  0.00    0.0036717   -0.0050143    0.0004612
h     5.6182737    0.9153758    0.0775850  0.00    0.0004846    0.0003207    0.0002003
h     3.7765812    0.2238175    1.9393991  0.00   -0.0031869    0.0023784    0.0008907
h     4.1504335   -1.2931135    1.2798911  0.00    0.0070007   -0.0110139   -0.0240692
h    -2.5753944    2.5817303    0.2448490  0.00   -0.0006589    0.0003529    0.0000507
h    -2.1618863    0.1592772    0.0091705  0.00   -0.0006606   -0.0003520   -0.0000004
h    -0.6911353    4.1505224    0.2458074  0.00   -0.0001249    0.0008901    0.0000677
h     1.6021473    3.3240492    0.0147457  0.00    0.0004231    0.0005361    0.0000103
h     2.4858231   -1.5355595   -0.5785876  0.00    0.0011621   -0.0025299   -0.0004608
o     5.3138770   -0.3761116   -2.3173903  0.00    0.0009890    0.0057471   -0.0060130
o     4.9661133   -2.1128884   -0.6749586  0.00   -0.0055208    0.0140622    0.0474060
h     5.0838215   -2.6652260   -1.5280201  0.00   -0.0033610   -0.0095175   -0.0161354
    27
 Energy =       0.1882100095
c    -1.5887459    2.1471894    0.1428802  0.00   -0.0027927    0.0019812    0.0001281
c    -1.3468663    0.8128179   -0.0184810  0.00   -0.0036766   -0.0024483   -0.0000460
c    -0.0626267    0.4031267   -0.1250427  0.00   -0.0034888   -0.0059875    0.0001749
c    -0.5492047    3.0372246    0.1876131  0.00   -0.0005593    0.0039743    0.0001169
c     0.7393861    2.5990570    0.0736713  0.00    0.0012109    0.0035159    0.0000339
c     0.9603018    1.2633929   -0.0796225  0.00    0.0020686    0.0022357    0.0000887
n     0.4013186   -0.9217613   -0.3315435  0.00    0.0036843    0.0018816   -0.0001953
c     2.1196680    0.5902120   -0.2308637  0.00    0.0054230   -0.0016608    0.0004085
c     1.8172937   -0.7157567   -0.4075909  0.00   -0.0018263   -0.0041027    0.0002342
h    -0.1417936   -1.8128035   -0.4075435  0.00   -0.0002343   -0.0008863   -0.0001044
c     3.5017071    1.2298240   -0.3016937  0.00    0.0007180   -0.0003539   -0.0006112
c     4.6991190    0.3153245    0.0753401  0.00    0.0001965    0.0051165    0.0001121
h     3.5295653    2.1018334    0.3886649  0.00   -0.0000398    0.0014966    0.0008449
h     3.6478990    1.6326396   -1.3321395  0.00    0.0002981    0.0008736   -0.0016699
c     5.0397311   -0.6735034   -1.0323237  0.00   -0.0018172    0.0012459   -0.0022529
n     4.4927513   -0.3454022    1.3874119  0.00    0.0040064   -0.0046513    0.0029580
h     5.6088993    0.9552710    0.1495784  0.00    0.0010197    0.0010817    0.0000868
h     3.7646499    0.1465330    1.9610905  0.00   -0.0036908    0.0026429    0.0018096
h     4.1631743   -1.3357803    1.2351470  0.00    0.0053434   -0.0115961   -0.0208800
h    -2.6125442    2.5046424    0.2301490  0.00   -0.0008127    0.0003292    0.0000582
h    -2.1603166    0.0950110   -0.0667723  0.00   -0.0011057   -0.0008848   -0.0000413
h    -0.7506417    4.1000036    0.3098272  0.00   -0.0000594    0.0013433    0.0001133
h     1.5586851    3.3121600    0.0981471  0.00    0.0009000    0.0010487    0.0000343
h     2.5236602   -1.5152645   -0.6145653  0.00    0.0011468   -0.0025319   -0.0004426
o     5.3460273   -0.2173585   -2.3151083  0.00    0.0017118    0.0061901   -0.0086510
o     5.0241680   -2.0427414   -0.7652482  0.00   -0.0049860    0.0100428    0.0439331
h     5.1667790   -2.5509787   -1.6417347  0.00   -0.0026379   -0.0098965   -0.0162408
    27
 Energy =       0.1869296509
c    -1.5756384    2.1472670    0.2634066  0.00   -0.0028087    0.0012463    0.0001106
c    -1.3414407    0.8135789    0.0924772  0.00   -0.0035804   -0.0015985    0.0000323
c    -0.0624855    0.4023691   -0.0618140  0.00   -0.0026904   -0.0044794    0.0001140
c    -0.5336498    3.0353115    0.2696863  0.00   -0.0008243    0.0033008    0.0001658
c     0.7496046    2.5957336    0.1066047  0.00    0.0017393    0.0023841   -0.0000634
c     0.9630001    1.2604502   -0.0553395  0.00    0.0015698    0.0017265    0.0001004
n     0.3901571   -0.9230773   -0.2870857  0.00    0.0013383    0.0014172    0.0000612
c     2.1147542    0.5858897   -0.2536791  0.00    0.0039570   -0.0020632    0.0003959
c     1.8031483   -0.7183404   -0.4203767  0.00    0.0000092   -0.0026951    0.0000254
h    -0.1573058   -1.8131460   -0.3415325  0.00   -0.0004440   -0.0009410   -0.0000879
c     3.4956041    1.2202004   -0.3909860  0.00    0.0016365   -0.0008087   -0.0006719
c     4.7021850    0.3187898   -0.0109902  0.00    0.0000168    0.0042515   -0.0012095
h     3.5473143    2.1196633    0.2626165  0.00    0.0004012    0.0020564    0.0014358
h     3.6125567    1.5808283   -1.4415270  0.00    0.0004163    0.0011149   -0.0025668
c     5.0221860   -0.7052079   -1.0939331  0.00   -0.0014275    0.0011975   -0.0020632