    13
 Energy =       0.1151066497
c    -3.7133889    1.6950595    0.3173519  0.00   -0.0783704    0.0342869    0.0985819
c    -2.4962693    2.6345192    0.2419999  0.00    0.2040639    0.1671076   -0.3002277
c    -4.9565486    2.3924193   -0.2155699  0.00    0.0172180   -0.0017370   -0.0008961
h    -5.2099685    3.2528291    0.4143399  0.00    0.0027079   -0.0127223   -0.0105038
h    -5.8205883    1.7190695   -0.2147749  0.00    0.0120245    0.0112219   -0.0014595
h    -4.8083986    2.7651692   -1.2348596  0.00   -0.0077269   -0.0010744    0.0197056
n    -3.4097890    0.4519539   -0.4549189  0.00    0.0258958   -0.0686702   -0.0109974
h    -3.8575589    1.4177196    1.3669296  0.00    0.0082954   -0.0082477   -0.0279464
h    -3.2072391   -0.2948399    0.2179739  0.00   -0.0176674    0.0296661   -0.0190352
h    -4.2689788    0.1396900   -0.9176007  0.00    0.0231687    0.0214714    0.0251554
o    -1.9513094    3.0041591   -0.7839488  0.00   -0.1295808   -0.1032758    0.2466433
o    -2.1005994    3.0267291    1.4825496  0.00   -0.0448152   -0.0307975   -0.0100805
h    -2.2705794    4.0015489    1.5135996  0.00   -0.0152134   -0.0372292   -0.0089396
    13
 Energy =       0.0944101397
c    -3.7221912    1.6933026    0.3265603  0.00   -0.0477358    0.0206124    0.0604872
c    -2.4877464    2.5994612    0.2815296  0.00    0.1219648    0.1054311   -0.1825771
c    -4.9428250    2.4213462   -0.2436866  0.00    0.0143254   -0.0018407    0.0026124
h    -5.2576237    3.2282787    0.4447469  0.00    0.0009077   -0.0049936   -0.0024131
h    -5.8043966    1.7347100   -0.3735281  0.00    0.0013507    0.0013584   -0.0026119
h    -4.7088969    2.8800436   -1.2274963  0.00   -0.0021419    0.0026694    0.0055866
n    -3.4415462    0.4471230   -0.4351920  0.00    0.0181794   -0.0413557   -0.0059648
h    -3.8992720    1.4366119    1.3850080  0.00    0.0051582   -0.0049016   -0.0166050
h    -3.2449181   -0.3124900    0.2382600  0.00   -0.0111127    0.0180485   -0.0114220
h    -4.2867289    0.1414337   -0.9466661  0.00    0.0124932    0.0129848    0.0141765
o    -1.9263331    2.9622724   -0.8166697  0.00   -0.0796296   -0.0643979    0.1494726
o    -2.0208536    3.0081630    1.5031593  0.00   -0.0163638   -0.0390808   -0.0036873
h    -2.3278848    3.9657702    1.5970463  0.00   -0.0173956   -0.0045342   -0.0070540
    13
 Energy =       0.0888101151
c    -3.7058551    1.6884599    0.3243881  0.00   -0.0318761    0.0135465    0.0406899
c    -2.4641042    2.5799285    0.2902576  0.00    0.0811522    0.0719126   -0.1230182
c    -4.9206617    2.4336872   -0.2401923  0.00    0.0154550   -0.0058632    0.0045946
h    -5.1421569    3.3390890    0.3779224  0.00   -0.0006600    0.0054868    0.0048513
h    -5.8265266    1.7766116   -0.2366045  0.00   -0.0063987   -0.0056126   -0.0009486
h    -4.7162173    2.7629596   -1.2923409  0.00    0.0017984    0.0037908   -0.0060000
n    -3.4542249    0.4456517   -0.4454255  0.00    0.0134200   -0.0269499   -0.0037796
h    -3.8862857    1.4350463    1.3875528  0.00    0.0034503   -0.0032500   -0.0110765
h    -3.2774701   -0.3340301    0.2180005  0.00   -0.0075228    0.0113488   -0.0072911
h    -4.2967017    0.1669647   -0.9871346  0.00    0.0070929    0.0088353    0.0085385
o    -1.8989713    2.9548797   -0.8418998  0.00   -0.0539024   -0.0425741    0.0999399
o    -1.9954030    3.0323749    1.5028658  0.00    0.0081135   -0.0599238   -0.0052733
h    -2.4866379    3.9244035    1.6756820  0.00   -0.0301222    0.0292527   -0.0012269
    13
 Energy =       0.0846399911
c    -3.7207238    1.6798259    0.3244678  0.00   -0.0213871    0.0095461    0.0282410
c    -2.4431904    2.5173641    0.2968896  0.00    0.0529544    0.0483713   -0.0810396
c    -4.9136748    2.4878330   -0.2115210  0.00    0.0097941   -0.0028851    0.0020887
h    -5.0823972    3.3991370    0.4127257  0.00   -0.0008180    0.0048013    0.0038433
h    -5.8466410    1.8729084   -0.1922036  0.00   -0.0053555   -0.0043695   -0.0007588
h    -4.7159964    2.8095694   -1.2648610  0.00    0.0012764    0.0024664   -0.0040820
n    -3.5378691    0.4404823   -0.4684074  0.00    0.0118482   -0.0177359   -0.0031540
h    -3.8994806    1.4212873    1.3899879  0.00    0.0023539   -0.0020097   -0.0071246
h    -3.4049533   -0.3683774    0.1770439  0.00   -0.0048841    0.0050688   -0.0036092
h    -4.3877445    0.2192107   -1.0334988  0.00    0.0020813    0.0050934    0.0037769
o    -1.8568932    2.8739668   -0.8585937  0.00   -0.0346337   -0.0285307    0.0655645
o    -1.9337671    2.9569992    1.5029836  0.00    0.0114347   -0.0470639   -0.0048716
h    -2.3278848    3.8958198    1.6580585  0.00   -0.0246646    0.0272475    0.0011255
    13
 Energy =       0.0841178215
c    -3.7325014    1.6695968    0.3116643  0.00   -0.0168163    0.0106505    0.0286935
c    -2.4011979    2.4238250    0.2794457  0.00    0.0458089    0.0412500   -0.0700358
c    -4.8941493    2.5818192   -0.1384309  0.00    0.0052240   -0.0002511   -0.0011889
h    -4.9798783    3.4756274    0.5321812  0.00   -0.0011510    0.0077507    0.0058562
h    -5.8645409    2.0258430   -0.1087134  0.00   -0.0068935   -0.0045727   -0.0010752
h    -4.7187748    2.9363295   -1.1852073  0.00    0.0006195    0.0023075   -0.0044551
n    -3.6618093    0.4583425   -0.5486657  0.00    0.0156253   -0.0192655   -0.0066102
h    -3.8864220    1.3706320    1.3726525  0.00    0.0025323   -0.0014391   -0.0044218
h    -3.5637064   -0.3950387    0.0492362  0.00   -0.0035742    0.0001353   -0.0010945
h    -4.5426878    0.3252940   -1.1029941  0.00   -0.0040108    0.0025285   -0.0011764
o    -1.8150132    2.7725555   -0.8866423  0.00   -0.0289862   -0.0239991    0.0554679
o    -1.8329250    2.8058440    1.4833090  0.00    0.0136865   -0.0410355   -0.0014452
h    -2.1776100    3.7553564    1.6752361  0.00   -0.0220644    0.0259404    0.0014856
    13
 Energy =       0.0828205172
c    -3.7293653    1.6594997    0.3225687  0.00   -0.0145656    0.0091262    0.0244413
c    -2.4202080    2.4499617    0.3093289  0.00    0.0363771    0.0347427   -0.0605958
c    -4.9079423    2.5380363   -0.1498932  0.00    0.0042261    0.0001427   -0.0013139
h    -5.0209085    3.4354298    0.5104783  0.00   -0.0010129    0.0069751    0.0052525
h    -5.8644530    1.9598353   -0.1226605  0.00   -0.0062347   -0.0040433   -0.0009443
h    -4.7305697    2.8856540   -1.1978038  0.00    0.0005073    0.0019896   -0.0038630
n    -3.6158850    0.4442957   -0.5267251  0.00    0.0153278   -0.0167839   -0.0057996
h    -3.8920314    1.3662801    1.3845895  0.00    0.0021403   -0.0012207   -0.0036916
h    -3.5454339   -0.4054608    0.0810308  0.00   -0.0029405   -0.0002868   -0.0002731
h    -4.4667377    0.3058767   -1.1268725  0.00   -0.0053888    0.0018190   -0.0024410
o    -1.7773883    2.7369355   -0.8533871  0.00   -0.0237486   -0.0208194    0.0429430
o    -1.9155045    2.9155732    1.5165625  0.00    0.0201485   -0.0518859    0.0043774
h    -2.1847887    3.9141095    1.5858550  0.00   -0.0248359    0.0402448    0.0019080
    13
 Energy =       0.0817876460
c    -3.7322883    1.6578074    0.3416525  0.00   -0.0097595    0.0061371    0.0153904
c    -2.4207092    2.4389934    0.3207957  0.00    0.0126817    0.0218245   -0.0297270
c    -4.9043279    2.5286975   -0.1563618  0.00    0.0026145    0.0001937   -0.0008263
h    -5.0165185    3.4384720    0.4823198  0.00   -0.0006897    0.0045830    0.0035134
h    -5.8602766    1.9549509   -0.1172049  0.00   -0.0039532   -0.0026445   -0.0005945
h    -4.7228085    2.8512140   -1.2100954  0.00    0.0003978    0.0013519   -0.0027224
n    -3.6241839    0.4208017   -0.4714876  0.00    0.0169228   -0.0052182   -0.0052283
h    -3.9025662    1.3971195    1.4128108  0.00    0.0011952   -0.0007691   -0.0017143
h    -3.6550879   -0.4219243    0.1580104  0.00   -0.0016891   -0.0069225    0.0054541
h    -4.4248964    0.3201202   -1.1494510  0.00   -0.0099631    0.0015937   -0.0063019
o    -1.6897513    2.5781824   -0.8434898  0.00   -0.0061817   -0.0148223    0.0101242
o    -1.9635303    3.0124939    1.5055241  0.00    0.0187702   -0.0457998    0.0109120
h    -2.1542715    4.0290978    1.4600486  0.00   -0.0203460    0.0404924    0.0017208
    13
 Energy =       0.0831913038
c    -3.7333866    1.6625516    0.3514317  0.00   -0.0105500    0.0070529    0.0153168
c    -2.3886789    2.3870416    0.2859786  0.00    0.0089984    0.0198440   -0.0235259
c    -4.8836882    2.5708493   -0.1312852  0.00    0.0023169    0.0004526   -0.0009859
h    -4.9538718    3.4880233    0.5031505  0.00   -0.0007502    0.0048634    0.0036465
h    -5.8577240    2.0294504   -0.0708201  0.00   -0.0043550   -0.0027613   -0.0005027
h    -4.7110488    2.8796839   -1.1903758  0.00    0.0004703    0.0012033   -0.0026093
n    -3.6961321    0.4063445   -0.4404965  0.00    0.0186284   -0.0037980   -0.0071786
h    -3.8859531    1.4282150    1.4319562  0.00    0.0007368   -0.0003697   -0.0008560
h    -3.8073135   -0.4262220    0.1978181  0.00   -0.0020068   -0.0110077    0.0075190
h    -4.4795529    0.3559597   -1.1454240  0.00   -0.0113728    0.0016651   -0.0073748
o    -1.6462236    2.4194292   -0.8853664  0.00   -0.0013350   -0.0128999    0.0031012
o    -1.8987831    2.9991476    1.4387037  0.00    0.0177602   -0.0420579    0.0125325
h    -2.1288597    4.0055524    1.3878006  0.00   -0.0185413    0.0378131    0.0009172
    13
 Energy =       0.0845811709
c    -3.7256246    1.6659613    0.3609631  0.00   -0.0110630    0.0079601    0.0146749
c    -2.3582605    2.3436338    0.2424469  0.00    0.0056573    0.0185315   -0.0189128
c    -4.8657712    2.6008374   -0.0945546  0.00    0.0018656    0.0004039   -0.0010350
h    -4.9003725    3.5193110    0.5407328  0.00   -0.0007147    0.0048577    0.0036738
h    -5.8497672    2.0808448   -0.0104234  0.00   -0.0044317   -0.0026812   -0.0004599
h    -4.7126227    2.9050640   -1.1578134  0.00    0.0004819    0.0010491   -0.0025815
n    -3.7546477    0.3963368   -0.4107803  0.00    0.0226400   -0.0005254   -0.0087232
h    -3.8468059    1.4520954    1.4504293  0.00    0.0004554    0.0001582    0.0001712
h    -3.9660666   -0.4192329    0.2308791  0.00   -0.0032644   -0.0168992    0.0112272
h    -4.4997497    0.4020399   -1.1612340  0.00   -0.0143281    0.0023718   -0.0101700
o    -1.6195982    2.2742208   -0.9349258  0.00    0.0023209   -0.0118104   -0.0027661
o    -1.8319819    2.9988957    1.3561459  0.00    0.0189865   -0.0426204    0.0156107
h    -2.1399476    3.9860184    1.3212059  0.00   -0.0186057    0.0392044   -0.0007091
    13
 Energy =       0.0841102206
c    -3.7597921    1.6694544    0.3477849  0.00   -0.0104254    0.0049544    0.0115692
c    -2.3703514    2.3177183    0.3343007  0.00    0.0056411    0.0167988   -0.0173143
c    -4.8386771    2.6373382   -0.1932122  0.00   -0.0005638    0.0024056   -0.0004095
h    -4.8762615    3.5696285    0.4210103  0.00   -0.0010391    0.0047231    0.0034722
h    -5.8469442    2.1570609   -0.1545858  0.00   -0.0060143   -0.0029919   -0.0000636
h    -4.6112381    2.9133211   -1.2537670  0.00    0.0010187    0.0018970   -0.0052328
n    -3.7599222    0.4070730   -0.4365308  0.00    0.0284654    0.0061933   -0.0092533
h    -3.9744290    1.4545127    1.4266725  0.00   -0.0003906   -0.0003852    0.0044613
h    -3.8591511   -0.4288203    0.2145532  0.00   -0.0038700   -0.0236394    0.0164082
h    -4.5712419    0.3616946   -1.1201618  0.00   -0.0197578    0.0022405   -0.0153310
o    -1.5841488    2.3121845   -0.8163641  0.00    0.0041981   -0.0108346   -0.0063202
o    -1.8885169    2.9151036    1.5025845  0.00    0.0211280   -0.0401227    0.0198706
h    -2.1305420    3.9197570    1.4607869  0.00   -0.0183903    0.0387610   -0.0018569
    13
 Energy =       0.0837903591
c    -3.7934937    1.6795145    0.3333576  0.00   -0.0090066   -0.0001660    0.0095296
c    -2.3675064    2.2465397    0.4071747  0.00    0.0061819    0.0139136   -0.0126576
c    -4.7787989    2.7089127   -0.2795569  0.00   -0.0020990    0.0063330   -0.0004872
h    -4.7845638    3.6553664    0.3129459  0.00   -0.0014037    0.0048126    0.0028330
h    -5.8202205    2.2981396   -0.2797349  0.00   -0.0083095   -0.0034175    0.0004780
h    -4.4815545    2.9462931   -1.3341841  0.00    0.0017501    0.0026755   -0.0070240
n    -3.8182518    0.4209747   -0.4527842  0.00    0.0279199    0.0075411   -0.0069436
h    -4.0928608    1.4767764    1.3969267  0.00   -0.0014819   -0.0018432    0.0068644
h    -3.8430591   -0.4150130    0.2040559  0.00   -0.0032687   -0.0221013    0.0162536
h    -4.6815044    0.3505741   -1.0684909  0.00   -0.0205765    0.0005793   -0.0165326
o    -1.5174197    2.2107433   -0.6987143  0.00    0.0069013   -0.0081535   -0.0080184
o    -1.9189093    2.8147262    1.6023787  0.00    0.0180750   -0.0320832    0.0172403
h    -2.1730736    3.8124788    1.5896973  0.00   -0.0146824    0.0319096   -0.0015354
    13
 Energy =       0.0826620172
c    -3.8251247    1.6954197    0.3132471  0.00   -0.0070379   -0.0048677    0.0070738
c    -2.3694069    2.1627714    0.4804230  0.00    0.0056024    0.0092971   -0.0052254
c    -4.6965479    2.7861915   -0.3664522  0.00   -0.0025282    0.0092793   -0.0009740
h    -4.6582852    3.7437869    0.2045467  0.00   -0.0015047    0.0044164    0.0018268
h    -5.7664744    2.4568927   -0.4096519  0.00   -0.0094875   -0.0031130    0.0008277
h    -4.3313693    2.9757704   -1.4098472  0.00    0.0022709    0.0028407   -0.0073520
n    -3.8879245    0.4450902   -0.4764146  0.00    0.0261170    0.0090647   -0.0041717
h    -4.2104672    1.5116614    1.3533756  0.00   -0.0025526   -0.0029875    0.0076288
h    -3.8152581   -0.3887706    0.1766167  0.00   -0.0016554   -0.0186407    0.0153858
h    -4.8117291    0.3480272   -0.9934843  0.00   -0.0217197   -0.0013082   -0.0165111
o    -1.4537392    2.0712392   -0.5703275  0.00    0.0096381   -0.0044774   -0.0091281
o    -1.9583767    2.7133052    1.6949184  0.00    0.0131572   -0.0264858    0.0116083
h    -2.2865131    3.6846414    1.7361216  0.00   -0.0102997    0.0269820   -0.0009890
    13
 Energy =       0.0798228923
c    -3.8618070    1.7109706    0.2889508  0.00   -0.0016540   -0.0056084   -0.0000867
c    -2.4115156    2.1136386    0.5703442  0.00    0.0028159    0.0009142   -0.0001015
c    -4.6197552    2.8268456   -0.4648078  0.00   -0.0018891    0.0053490   -0.0003483
h    -4.5544438    3.7939467    0.0812170  0.00   -0.0008661    0.0014531    0.0003203
h    -5.6988513    2.5635355   -0.5684050  0.00   -0.0050805   -0.0009934    0.0006412
h    -4.1829865    2.9614244   -1.4863504  0.00    0.0015689    0.0015195   -0.0047756
n    -3.9257466    0.4724883   -0.5055990  0.00    0.0231135    0.0174112   -0.0045789
h    -4.3395800    1.5483523    1.2911490  0.00   -0.0024696   -0.0019805    0.0053694
h    -3.6936731   -0.3520096    0.1215970  0.00    0.0028211   -0.0173727    0.0155614
h    -4.9109256    0.3107243   -0.8717246  0.00   -0.0243433   -0.0018381   -0.0127832
o    -1.4532254    2.0811515   -0.4393091  0.00    0.0032644   -0.0012137   -0.0050895
o    -2.0568247    2.6063373    1.8243744  0.00    0.0048237   -0.0017912    0.0065929
h    -2.3618815    3.5686210    1.8916349  0.00   -0.0021049    0.0041509   -0.0007217
    13
 Energy =       0.0783707834
c    -3.8934304    1.7330142    0.2668196  0.00   -0.0007404   -0.0041569   -0.0006591
c    -2.4496590    2.0739225    0.6394190  0.00    0.0001830   -0.0015140   -0.0020290
c    -4.5476804    2.8662797   -0.5478865  0.00   -0.0010027    0.0040438    0.0004544
h    -4.4755230    3.8365381   -0.0103884  0.00   -0.0003635    0.0003862    0.0000089
h    -5.6258709    2.6471620   -0.7271581  0.00   -0.0042723   -0.0004267   -0.0001260
h    -4.0367444    2.9652849   -1.5379056  0.00    0.0015408    0.0009935   -0.0040379
n    -3.9674789    0.4933227   -0.5207799  0.00    0.0094520    0.0063042   -0.0011753
h    -4.4422162    1.6026939    1.2347819  0.00   -0.0020709   -0.0016035    0.0034782
h    -3.6592882   -0.3148302    0.0795019  0.00    0.0008737   -0.0057438    0.0058107
h    -4.9653861    0.2989998   -0.7966442  0.00   -0.0094619   -0.0006599   -0.0049785
o    -1.4416995    2.0571852   -0.3192914  0.00    0.0028213   -0.0001683   -0.0028166
o    -2.1434177    2.4905972    1.9332346  0.00    0.0040286    0.0003744    0.0062597
h    -2.4228215    3.4558566    2.0393686  0.00   -0.0009876    0.0021711   -0.0001896
    13
 Energy =       0.0777791740
c    -3.9160476    1.7555558    0.2505144  0.00    0.0001715   -0.0008068    0.0005602
c    -2.4808515    2.0539754    0.6750072  0.00   -0.0003836   -0.0009668   -0.0011746
c    -4.4959381    2.8899627   -0.6061605  0.00   -0.0001913    0.0007814    0.0004522
h    -4.4273774    3.8647742   -0.0770214  0.00   -0.0000448   -0.0000014    0.0000708
h    -5.5638467    2.6921589   -0.8436822  0.00   -0.0010111    0.0000190   -0.0001468
h    -3.9323291    2.9610176   -1.5663641  0.00    0.0004652    0.0001573   -0.0011645
n    -4.0094411    0.5090145   -0.5230706  0.00    0.0078531    0.0079548   -0.0038105
h    -4.5045856    1.6617190    1.1954060  0.00   -0.0004915   -0.0005517    0.0005250
h    -3.5947145   -0.2798656    0.0388164  0.00    0.0036279   -0.0056873    0.0056862
h    -5.0235274    0.2671739   -0.6779900  0.00   -0.0110728   -0.0016627   -0.0021177
o    -1.4445959    2.0392157   -0.2498803  0.00    0.0003734    0.0000864   -0.0001741
o    -2.2065212    2.4135442    1.9895557  0.00    0.0008693    0.0001370    0.0012464
h    -2.4714402    3.3777800    2.1279409  0.00   -0.0001653    0.0005407    0.0000475
    13
 Energy =       0.0776804853
c    -3.9258716    1.7667437    0.2431184  0.00    0.0000264   -0.0003025   -0.0001786
c    -2.4964080    2.0454882    0.6998184  0.00   -0.0000673   -0.0002858   -0.0005089
c    -4.4651274    2.9002506   -0.6394151  0.00   -0.0001639    0.0004461    0.0000982
h    -4.3998425    3.8789639   -0.1170869  0.00   -0.0000350    0.0000417    0.0000223
h    -5.5270266    2.7126678   -0.9077793  0.00   -0.0004258    0.0000017   -0.0000886
h    -3.8722828    2.9554136   -1.5821654  0.00    0.0002660    0.0000653   -0.0004882
n    -4.0239429    0.5137966   -0.5200694  0.00   -0.0004394   -0.0008573    0.0004193
h    -4.5383992    1.6947331    1.1743508  0.00   -0.0003068   -0.0000815    0.0004159
h    -3.6026098   -0.2693217    0.0344472  0.00   -0.0004202    0.0005150   -0.0004489
h    -5.0316415    0.2680769   -0.6602585  0.00    0.0009483    0.0001764    0.0000347
o    -1.4435174    2.0399097   -0.2061941  0.00    0.0002990   -0.0000079   -0.0002780
o    -2.2427586    2.3683815    2.0276997  0.00    0.0004145   -0.0000247    0.0009647
h    -2.5017879    3.3309224    2.1866055  0.00   -0.0000959    0.0003137    0.0000362
    13
 Energy =       0.0776779797
c    -3.9261812    1.7685845    0.2433086  0.00    0.0000028    0.0000065    0.0000076
c    -2.4953332    2.0464070    0.6949960  0.00   -0.0000078   -0.0000067   -0.0000151
c    -4.4662858    2.9003656   -0.6397218  0.00   -0.0000002   -0.0000029    0.0000009
h    -4.3989476    3.8800695   -0.1195797  0.00    0.0000013    0.0000040    0.0000030
h    -5.5284446    2.7128145   -0.9054465  0.00   -0.0000025   -0.0000006   -0.0000018
h    -3.8757654    2.9530495   -1.5834751  0.00    0.0000043    0.0000018   -0.0000043
n    -4.0288888    0.5142664   -0.5169574  0.00    0.0000640    0.0000551   -0.0000517
h    -4.5356610    1.6996954    1.1762122  0.00   -0.0000066   -0.0000021    0.0000082
h    -3.5992755   -0.2671989    0.0345251  0.00    0.0000371   -0.0000370    0.0000390
h    -5.0381002    0.2657873   -0.6457029  0.00   -0.0001099   -0.0000270   -0.0000055
o    -1.4461711    2.0441590   -0.2150105  0.00    0.0000176   -0.0000022   -0.0000185
o    -2.2365624    2.3633050    2.0227214  0.00    0.0000064   -0.0000145    0.0000372
h    -2.4955995    3.3247216    2.1872020  0.00   -0.0000065    0.0000255    0.0000010
    13
 Energy =       0.0776779480
c    -3.9260959    1.7690635    0.2432196  0.00   -0.0000002    0.0000004    0.0000007
c    -2.4951971    2.0472125    0.6945081  0.00   -0.0000032   -0.0000012   -0.0000018
c    -4.4663396    2.9001680   -0.6406122  0.00   -0.0000001   -0.0000000   -0.0000001
h    -4.3987831    3.8802887   -0.1212896  0.00    0.0000001    0.0000004    0.0000002
h    -5.5285730    2.7125018   -0.9059390  0.00   -0.0000001   -0.0000001   -0.0000000
h    -3.8760159    2.9520619   -1.5845284  0.00    0.0000002    0.0000001   -0.0000003
n    -4.0287732    0.5141452   -0.5160317  0.00   -0.0000001    0.0000006   -0.0000013
h    -4.5355057    1.7008664    1.1762047  0.00   -0.0000001   -0.0000001    0.0000002
h    -3.6001383   -0.2670413    0.0365358  0.00    0.0000008   -0.0000014    0.0000008
h    -5.0379242    0.2660841   -0.6455205  0.00   -0.0000006    0.0000000    0.0000001
o    -1.4467058    2.0479863   -0.2162616  0.00    0.0000038   -0.0000003   -0.0000052
o    -2.2356817    2.3609763    2.0228167  0.00    0.0000013   -0.0000050    0.0000057
h    -2.4954828    3.3217131    2.1899696  0.00   -0.0000017    0.0000065    0.0000011
    13
 Energy =       0.0776779480
c    -3.9260950    1.7690781    0.2432165  0.00   -0.0000000    0.0000000    0.0000000
c    -2.4951949    2.0472351    0.6944956  0.00   -0.0000000   -0.0000000   -0.0000000
c    -4.4663409    2.9001636   -0.6406382  0.00   -0.0000000    0.0000000   -0.0000000
h    -4.3987802    3.8802954   -0.1213379  0.00   -0.0000000    0.0000000    0.0000000
h    -5.5285755    2.7124937   -0.9059571  0.00   -0.0000000   -0.0000000    0.0000000
h    -3.8760202    2.9520362   -1.5845571  0.00    0.0000000    0.0000000   -0.0000000
n    -4.0287729    0.5141435   -0.5160067  0.00   -0.0000000    0.0000000   -0.0000000
h    -4.5355040    1.7009013    1.1762033  0.00   -0.0000000   -0.0000000    0.0000000
h    -3.6001517   -0.2670319    0.0365850  0.00    0.0000000   -0.0000000    0.0000000
h    -5.0379236    0.2660862   -0.6455024  0.00   -0.0000000    0.0000000   -0.0000000
o    -1.4467225    2.0480904   -0.2162903  0.00    0.0000000   -0.0000000   -0.0000000
o    -2.2356578    2.3609101    2.0228170  0.00    0.0000000   -0.0000000    0.0000000
h    -2.4954770    3.3216249    2.1900439  0.00   -0.0000000    0.0000000    0.0000000
