    13
 Energy =       0.0961128478
c    -3.7133889    1.6950595    0.3173519  0.00   -0.1172901    0.0663234    0.0117248
c    -2.4962693    2.6345192    0.2419999  0.00    0.3697100   -0.0360469    0.1182021
c    -4.9565486    2.3924193   -0.2155699  0.00    0.0407009    0.0329537   -0.0027320
h    -5.2099685    3.2528291    0.4143399  0.00    0.0030676   -0.0119221   -0.0095514
h    -5.8205883    1.7190695   -0.2147749  0.00    0.0072127    0.0150755    0.0007205
h    -4.8083986    2.7651692   -1.2348596  0.00   -0.0022610    0.0028630    0.0208394
n    -3.4097890    0.4519539   -0.4549189  0.00    0.0803447   -0.0550756   -0.0113584
h    -3.8575589    1.4177196    1.3669296  0.00    0.0064185   -0.0099736   -0.0251198
h    -2.5963493    0.6418898   -1.0496997  0.00   -0.0246500    0.0128442    0.0422874
h    -3.0749291   -0.2623099    0.1989099  0.00   -0.0111173    0.0296716   -0.0230635
o    -1.4040496    2.4172293    0.7380088  0.00   -0.2598276    0.0471676   -0.1272437
o    -2.7835192    3.7545589   -0.4737969  0.00   -0.0693023   -0.0568337    0.0089032
h    -2.5521993    4.5104687    0.1222010  0.00   -0.0230060   -0.0370471   -0.0036085
    13
 Energy =       0.0724763077
c    -3.6705380    1.7018760    0.2982204  0.00   -0.0680745    0.0408384    0.0059812
c    -2.4730768    2.6443536    0.1663750  0.00    0.2181665   -0.0208096    0.0708577
c    -4.9494095    2.3905111   -0.1623986  0.00    0.0262815    0.0209675   -0.0011831
h    -5.1526306    3.2817971    0.4559706  0.00    0.0022160   -0.0055797   -0.0043346
h    -5.8149853    1.7090522   -0.0775445  0.00    0.0013024    0.0070697    0.0009845
h    -4.8545644    2.7181200   -1.2135555  0.00    0.0002905    0.0024849    0.0098684
n    -3.4505224    0.4613693   -0.4894748  0.00    0.0442132   -0.0307249   -0.0077568
h    -3.7517479    1.4427069    1.3703782  0.00    0.0039445   -0.0051702   -0.0120874
h    -2.6421069    0.5982800   -1.1240456  0.00   -0.0118412    0.0078485    0.0234139
h    -3.1637891   -0.3039665    0.1477366  0.00   -0.0053587    0.0133936   -0.0121553
o    -1.3229705    2.3984522    0.6902763  0.00   -0.1532075    0.0275764   -0.0742051
o    -2.7262627    3.8059825   -0.5146029  0.00   -0.0448514   -0.0710477   -0.0382358
h    -2.7109524    4.5420417    0.2087859  0.00   -0.0130814    0.0131531    0.0388524
    13
 Energy =       0.0634364886
c    -3.6747071    1.7049992    0.3018438  0.00   -0.0522567    0.0316396    0.0044702
c    -2.4879539    2.6547153    0.1524884  0.00    0.1671226   -0.0157811    0.0554644
c    -4.9680153    2.3815272   -0.1377013  0.00    0.0206919    0.0164254   -0.0007524
h    -5.1584828    3.2853281    0.4699936  0.00    0.0018905   -0.0040606   -0.0032075
h    -5.8275561    1.6943002   -0.0223827  0.00    0.0006233    0.0051690    0.0008261
h    -4.8960008    2.6898719   -1.1985794  0.00    0.0003399    0.0020597    0.0072168
n    -3.4746489    0.4641615   -0.4856469  0.00    0.0336807   -0.0233039   -0.0061383
h    -3.7376086    1.4533187    1.3795940  0.00    0.0030454   -0.0039412   -0.0090811
h    -2.6600610    0.5802229   -1.1215375  0.00   -0.0088035    0.0060674    0.0179109
h    -3.2130415   -0.3123221    0.1535228  0.00   -0.0040267    0.0097795   -0.0090679
o    -1.3090033    2.3943662    0.6631915  0.00   -0.1174310    0.0209704   -0.0576618
o    -2.7242783    3.8176674   -0.5400357  0.00   -0.0372617   -0.0707709   -0.0446904
h    -2.5521993    4.5824198    0.1413704  0.00   -0.0076146    0.0257467    0.0447111
    13
 Energy =       0.0560119411
c    -3.6789265    1.7168387    0.3101947  0.00   -0.0366624    0.0227259    0.0030779
c    -2.4937351    2.6611314    0.1243517  0.00    0.1151907   -0.0103044    0.0399409
c    -4.9840152    2.3830061   -0.1131977  0.00    0.0151289    0.0114243   -0.0001706
h    -5.1565431    3.3078894    0.4717700  0.00    0.0014360   -0.0022862   -0.0018830
h    -5.8399729    1.6965588    0.0442815  0.00   -0.0002197    0.0030631    0.0007268
h    -4.9368754    2.6563830   -1.1874741  0.00    0.0003926    0.0016542    0.0041702
n    -3.5123509    0.4610872   -0.4571419  0.00    0.0222046   -0.0161171   -0.0045448
h    -3.7212224    1.4908440    1.3974552  0.00    0.0021152   -0.0026575   -0.0057349
h    -2.6904047    0.5355681   -1.0957768  0.00   -0.0050316    0.0041193    0.0117192
h    -3.2847826   -0.3175890    0.1972404  0.00   -0.0026339    0.0058264   -0.0057655
o    -1.2844878    2.3750119    0.6120282  0.00   -0.0807076    0.0141129   -0.0409708
o    -2.7067939    3.8245052   -0.5833040  0.00   -0.0298506   -0.0635607   -0.0437621
h    -2.3934462    4.5993413    0.0356939  0.00   -0.0013621    0.0319999    0.0431968
    13
 Energy =       0.0519171309
c    -3.6903708    1.7451391    0.3299671  0.00   -0.0277085    0.0195479    0.0028696
c    -2.4885424    2.6560088    0.0766593  0.00    0.0795793   -0.0047626    0.0289875
c    -4.9914377    2.4007011   -0.1256272  0.00    0.0120614    0.0068047    0.0010264
h    -5.1429541    3.3734655    0.3917081  0.00    0.0006519    0.0015120    0.0002099
h    -5.8548759    1.7365746    0.0927171  0.00   -0.0014713    0.0006248    0.0011675
h    -4.9510604    2.5911863   -1.2219173  0.00    0.0006148    0.0018142   -0.0004632
n    -3.5613740    0.4354987   -0.3538013  0.00    0.0121247   -0.0139546   -0.0062791
h    -3.7291807    1.5966180    1.4346586  0.00    0.0011481   -0.0020284   -0.0009641
h    -2.7328066    0.4343359   -0.9954055  0.00   -0.0000876    0.0020893    0.0051473
h    -3.3664726   -0.3081189    0.3559935  0.00   -0.0012449    0.0007484   -0.0012206
o    -1.2554221    2.3301237    0.5254217  0.00   -0.0543828    0.0094629   -0.0294056
o    -2.6743675    3.8148552   -0.6521231  0.00   -0.0246656   -0.0553732   -0.0398390
h    -2.2446919    4.5841882   -0.1021301  0.00    0.0033804    0.0335148    0.0387636
    13
 Energy =       0.0500038841
c    -3.6800140    1.7409360    0.3269111  0.00   -0.0188859    0.0185519    0.0039475
c    -2.4655731    2.6226993    0.0307700  0.00    0.0612976   -0.0031317    0.0230564
c    -4.9932717    2.4547158   -0.0126027  0.00    0.0050548    0.0050101    0.0009181
h    -5.0779483    3.4132086    0.5504612  0.00   -0.0000970    0.0038187    0.0021438
h    -5.8617951    1.8086954    0.2399567  0.00   -0.0022366    0.0005033    0.0008778
h    -5.0234105    2.6820060   -1.1050286  0.00   -0.0000630    0.0016547   -0.0035130
n    -3.6436626    0.4549945   -0.4155754  0.00    0.0085859   -0.0131571   -0.0107922
h    -3.6475371    1.5521167    1.4291300  0.00    0.0013814   -0.0008132    0.0028869
h    -2.8237506    0.4262028   -1.0689043  0.00    0.0006802    0.0011894    0.0036098
h    -3.4934623   -0.3352573    0.2578981  0.00    0.0000548   -0.0035642    0.0010974
o    -1.2182697    2.2546166    0.4344299  0.00   -0.0398733    0.0067811   -0.0229242
o    -2.6344588    3.7823667   -0.7037399  0.00   -0.0218047   -0.0490980   -0.0359743
h    -2.1204029    4.5332751   -0.2075850  0.00    0.0059056    0.0322551    0.0346660
    13
 Energy =       0.0506796492
c    -3.6761686    1.7529237    0.3410787  0.00   -0.0187007    0.0193029    0.0062462
c    -2.4389520    2.5784056   -0.0294928  0.00    0.0605237   -0.0047028    0.0239241
c    -4.9761679    2.5163073    0.0546466  0.00    0.0036891    0.0042109    0.0006128
h    -4.9968455    3.4844318    0.6104707  0.00   -0.0001858    0.0053565    0.0032905
h    -5.8589010    1.9075799    0.3539913  0.00   -0.0038584   -0.0002309    0.0011886
h    -5.0476839    2.7311339   -1.0392497  0.00   -0.0001289    0.0014425   -0.0043911
n    -3.7290839    0.4542531   -0.3826667  0.00    0.0054918   -0.0160266   -0.0112877
h    -3.5975212    1.5802978    1.4447516  0.00    0.0012993   -0.0001091    0.0041674
h    -2.9295833    0.3708375   -1.0591845  0.00    0.0030127    0.0004179    0.0013047
h    -3.6029339   -0.3340865    0.2982783  0.00    0.0002033   -0.0042252    0.0010606
o    -1.1936585    2.1844340    0.3598166  0.00   -0.0376552    0.0069974   -0.0223661
o    -2.5805488    3.7005004   -0.8299810  0.00   -0.0198772   -0.0445201   -0.0376367
h    -2.0555082    4.4635578   -0.3663381  0.00    0.0061863    0.0320866    0.0338866
    13
 Energy =       0.0491269734
c    -3.6873468    1.7450433    0.3243166  0.00   -0.0164793    0.0165630    0.0065394
c    -2.4502099    2.5975217    0.0144791  0.00    0.0541012   -0.0075264    0.0245603
c    -4.9906212    2.4907298    0.0084316  0.00    0.0028412    0.0032805    0.0007384
h    -5.0434397    3.4503275    0.5768241  0.00   -0.0001499    0.0052283    0.0032975
h    -5.8722796    1.8636013    0.2718780  0.00   -0.0041028   -0.0005431    0.0012158
h    -5.0309855    2.7212128   -1.0837601  0.00   -0.0001028    0.0012844   -0.0045065
n    -3.6978683    0.4603361   -0.4251076  0.00    0.0032622   -0.0151908   -0.0104478
h    -3.6434633    1.5528522    1.4268197  0.00    0.0011328    0.0000360    0.0044820
h    -2.8688160    0.3960786   -1.0690561  0.00    0.0041044    0.0002736   -0.0000659
h    -3.5936238   -0.3387615    0.2470645  0.00    0.0001515   -0.0040465    0.0014746
o    -1.2013298    2.1583740    0.3580857  0.00   -0.0316304    0.0037495   -0.0187340
o    -2.5917360    3.7906791   -0.6862694  0.00   -0.0211988   -0.0345715   -0.0413227
h    -2.0118370    4.5025814   -0.2075850  0.00    0.0080707    0.0314630    0.0327689
    13
 Energy =       0.0482362650
c    -3.6616057    1.7399684    0.3292217  0.00   -0.0150689    0.0141447    0.0067332
c    -2.4781821    2.6556494   -0.0182873  0.00    0.0497467   -0.0077388    0.0238683
c    -5.0117757    2.4165271    0.0455251  0.00    0.0014832    0.0044465    0.0001741
h    -5.0993611    3.3741009    0.6134988  0.00   -0.0003072    0.0055442    0.0032037
h    -5.8542159    1.7445078    0.3321034  0.00   -0.0053538   -0.0016661    0.0016469
h    -5.0915816    2.6437606   -1.0455565  0.00   -0.0003108    0.0016177   -0.0049438
n    -3.6288323    0.4514976   -0.4128075  0.00   -0.0020982   -0.0112136   -0.0108471
h    -3.5789495    1.5552761    1.4312265  0.00    0.0012168   -0.0004920    0.0049439
h    -2.8317214    0.4387876   -1.1026495  0.00    0.0074912    0.0006811   -0.0029988
h    -3.4348707   -0.3371800    0.2576472  0.00    0.0012781   -0.0088954    0.0053662
o    -1.1917056    2.2767130    0.2711490  0.00   -0.0248987    0.0021565   -0.0164511
o    -2.7052636    3.8533677   -0.6947612  0.00   -0.0215604   -0.0285177   -0.0421977
h    -2.1154915    4.5775998   -0.2501887  0.00    0.0083820    0.0299327    0.0315024
    13
 Energy =       0.0489096068
c    -3.6606205    1.7422004    0.3321652  0.00   -0.0148338    0.0140031    0.0065748
c    -2.4756504    2.6460347   -0.0430906  0.00    0.0390207   -0.0056115    0.0232134
c    -5.0114172    2.4228617    0.0615822  0.00    0.0013492    0.0042348    0.0001930
h    -5.0901586    3.3810380    0.6295079  0.00   -0.0002822    0.0053614    0.0031013
h    -5.8528468    1.7538342    0.3575984  0.00   -0.0051898   -0.0016235    0.0015901
h    -5.1019922    2.6496427   -1.0284688  0.00   -0.0002934    0.0015603   -0.0048107
n    -3.6480389    0.4462115   -0.3967258  0.00   -0.0055365   -0.0093113   -0.0105701
h    -3.5637105    1.5675905    1.4344261  0.00    0.0011958   -0.0004432    0.0049013
h    -2.8954755    0.4431619   -1.1379052  0.00    0.0098737    0.0009272   -0.0055527
h    -3.3926027   -0.3300002    0.2702581  0.00    0.0018649   -0.0105876    0.0075453
o    -1.1763402    2.2037075    0.1123959  0.00   -0.0114153   -0.0037514   -0.0137363
o    -2.7165587    3.8840226   -0.6423997  0.00   -0.0246518   -0.0242572   -0.0435904
h    -2.0981445    4.5802707   -0.1932225  0.00    0.0088984    0.0294989    0.0311410
    13
 Energy =       0.0492864365
c    -3.6177508    1.7456547    0.3217308  0.00   -0.0134411    0.0103682    0.0064112
c    -2.4987134    2.7077667   -0.1197605  0.00    0.0373785   -0.0046530    0.0231128
c    -5.0148363    2.3651866    0.1317498  0.00   -0.0008877    0.0059814    0.0008133
h    -5.1049734    3.3175904    0.7073233  0.00   -0.0005533    0.0053076    0.0029665
h    -5.8103263    1.6575569    0.4694377  0.00   -0.0068974   -0.0030270    0.0024286
h    -5.1744079    2.5922114   -0.9525610  0.00   -0.0007901    0.0022117   -0.0068191
n    -3.5901758    0.4528173   -0.4134421  0.00   -0.0219688    0.0031637   -0.0124887
h    -3.4448269    1.5741266    1.4177781  0.00    0.0014970   -0.0010802    0.0075452
h    -2.7367224    0.3995961   -1.0521077  0.00    0.0239204    0.0001335   -0.0170257
h    -3.4819375   -0.3461412    0.2826231  0.00    0.0033477   -0.0231437    0.0201220
o    -1.1680353    2.3381625   -0.0144947  0.00   -0.0055708   -0.0049470   -0.0127385
o    -2.8288624    3.9312249   -0.7140201  0.00   -0.0260063   -0.0197591   -0.0450901
h    -2.2119884    4.6548232   -0.3081357  0.00    0.0099720    0.0294439    0.0307626
    13
 Energy =       0.0458106655
c    -3.6322816    1.7402381    0.3182886  0.00   -0.0118669    0.0089044    0.0053670
c    -2.5092359    2.7203108   -0.0644315  0.00    0.0250684   -0.0026447    0.0175649
c    -5.0281349    2.3467646    0.0931441  0.00   -0.0010592    0.0046747    0.0006905
h    -5.1429597    3.2938112    0.6719605  0.00   -0.0004581    0.0045912    0.0026640
h    -5.8239820    1.6294196    0.4053889  0.00   -0.0059739   -0.0026258    0.0021023
h    -5.1607198    2.5786118   -0.9927606  0.00   -0.0007242    0.0018126   -0.0059613
n    -3.5687776    0.4617221   -0.4359946  0.00   -0.0186552    0.0019020   -0.0107264
h    -3.4955823    1.5528169    1.4164240  0.00    0.0013129   -0.0007294    0.0069849
h    -2.7103838    0.4336530   -1.0647763  0.00    0.0200879   -0.0000703   -0.0143829
h    -3.4542092   -0.3430092    0.2475531  0.00    0.0027149   -0.0191330    0.0166110
o    -1.1771310    2.3847215    0.1442584  0.00    0.0025686   -0.0048470   -0.0093373
o    -2.8238378    3.9426468   -0.6654700  0.00   -0.0244939   -0.0191979   -0.0383493
h    -2.1563212    4.6488690   -0.3174634  0.00    0.0114787    0.0273632    0.0267725
    13
 Energy =       0.0422741371
c    -3.6473639    1.7352699    0.3156069  0.00   -0.0089224    0.0065069    0.0037502
c    -2.5253222    2.7363205   -0.0008294  0.00    0.0128481   -0.0008439    0.0102929
c    -5.0413347    2.3242314    0.0521429  0.00   -0.0010165    0.0028396    0.0004238
h    -5.1875267    3.2619246    0.6371674  0.00   -0.0003162    0.0035100    0.0021683
h    -5.8342352    1.5924245    0.3315802  0.00   -0.0045606   -0.0020443    0.0015995
h    -5.1432603    2.5653839   -1.0334251  0.00   -0.0005730    0.0012040   -0.0045265
n    -3.5415470    0.4753749   -0.4597914  0.00   -0.0134281    0.0004239   -0.0079044
h    -3.5505114    1.5282519    1.4133626  0.00    0.0009541   -0.0002734    0.0057261
h    -2.6811528    0.4786312   -1.0789691  0.00    0.0141960   -0.0003764   -0.0102949
h    -3.4150903   -0.3350543    0.2075612  0.00    0.0017651   -0.0131928    0.0113991
o    -1.2013512    2.4293344    0.3030115  0.00    0.0076875   -0.0035253   -0.0050378
o    -2.8225341    3.9614612   -0.5994026  0.00   -0.0225281   -0.0183272   -0.0282334
h    -2.0923269    4.6370220   -0.3318940  0.00    0.0138941    0.0240989    0.0206370
    13
 Energy =       0.0398005082
c    -3.6698867    1.7310157    0.3178136  0.00   -0.0055541    0.0039941    0.0018996
c    -2.5405197    2.7421346    0.0778739  0.00    0.0056602    0.0002792    0.0048459
c    -5.0528024    2.3117698   -0.0054157  0.00   -0.0012391    0.0012903    0.0004249
h    -5.2347971    3.2390806    0.5842676  0.00   -0.0002106    0.0024613    0.0017695
h    -5.8498733    1.5695012    0.2269384  0.00   -0.0035484   -0.0016855    0.0011762
h    -5.1059336    2.5654522   -1.0906320  0.00   -0.0004788    0.0007644   -0.0037847
n    -3.5188192    0.4871693   -0.4709196  0.00   -0.0098372    0.0010842   -0.0056248
h    -3.6296488    1.5062131    1.4149635  0.00    0.0006306    0.0000977    0.0050526
h    -2.6768205    0.5368200   -1.1074083  0.00    0.0099066   -0.0005622   -0.0070107
h    -3.3402017   -0.3210398    0.1822534  0.00    0.0010718   -0.0095606    0.0075587
o    -1.2357346    2.4390072    0.4617646  0.00    0.0084546   -0.0022140   -0.0019098
o    -2.8058815    3.9749738   -0.5154665  0.00   -0.0179432   -0.0144354   -0.0178925
h    -2.0226375    4.6084786   -0.3199117  0.00    0.0130874    0.0184867    0.0134951
    13
 Energy =       0.0397378898
c    -3.6484940    1.7311801    0.3114094  0.00   -0.0043421    0.0033498    0.0015722
c    -2.5469359    2.7665030    0.0471648  0.00    0.0052216    0.0002341    0.0042760
c    -5.0519800    2.2913394    0.0416306  0.00   -0.0018890    0.0015675    0.0007328
h    -5.2313559    3.2078222    0.6485942  0.00   -0.0003880    0.0023806    0.0016962
h    -5.8284994    1.5322789    0.2886194  0.00   -0.0035538   -0.0017599    0.0012385
h    -5.1433665    2.5579873   -1.0385076  0.00   -0.0004841    0.0009233   -0.0041852
n    -3.5011750    0.5019891   -0.5007182  0.00   -0.0146443    0.0051929   -0.0070301
h    -3.5654358    1.4926797    1.4038146  0.00    0.0005471   -0.0000438    0.0056030
h    -2.6074498    0.5244060   -1.0699628  0.00    0.0142352    0.0003668   -0.0097854
h    -3.4156735   -0.3333987    0.1430146  0.00    0.0013864   -0.0144408    0.0117133
o    -1.2301845    2.4931878    0.4129558  0.00    0.0084100   -0.0021868   -0.0014904
o    -2.8471435    3.9907605   -0.5480228  0.00   -0.0169697   -0.0127286   -0.0166981
h    -2.0658627    4.6338409   -0.3838709  0.00    0.0124708    0.0171450    0.0123571
    13
 Energy =       0.0378042898
c    -3.6385389    1.7294336    0.3130068  0.00   -0.0005163    0.0009851    0.0006028
c    -2.5815011    2.8106373    0.0883523  0.00   -0.0021224    0.0009378   -0.0017517
c    -5.0574536    2.2461102    0.0687697  0.00    0.0009220    0.0003414   -0.0003004
h    -5.2728041    3.1266033    0.7139610  0.00   -0.0004511    0.0014063    0.0007211
h    -5.7998201    1.4461158    0.2787458  0.00   -0.0009206   -0.0010891    0.0005421
h    -5.1583398    2.5557196   -0.9955489  0.00    0.0003144    0.0000929   -0.0005822
n    -3.4491077    0.5445223   -0.5479048  0.00   -0.0024224   -0.0019748   -0.0012833
h    -3.5437048    1.4483891    1.3897600  0.00   -0.0003684   -0.0001477    0.0004382
h    -2.5238800    0.5807024   -1.0459880  0.00    0.0019929    0.0005982   -0.0025574
h    -3.4204571   -0.3147214    0.0523322  0.00    0.0005304   -0.0010875    0.0025604
o    -1.2757103    2.5934511    0.5180772  0.00    0.0035027   -0.0010467    0.0014364
o    -2.8984859    4.0132211   -0.5348183  0.00   -0.0195357   -0.0137731   -0.0014495
h    -2.0637532    4.6103918   -0.5426240  0.00    0.0190745    0.0147573    0.0016235
    13
 Energy =       0.0377353912
c    -3.6491361    1.7266735    0.3235181  0.00   -0.0004977    0.0006311    0.0001302
c    -2.5835669    2.8033972    0.1218587  0.00   -0.0020884   -0.0020681    0.0007124
c    -5.0616913    2.2558485    0.0706967  0.00    0.0004461    0.0001389   -0.0001051
h    -5.2780359    3.1281626    0.7252423  0.00   -0.0001894    0.0007748    0.0003928
h    -5.8106559    1.4579284    0.2618992  0.00   -0.0005776   -0.0006898    0.0003045
h    -5.1505424    2.5795637   -0.9904730  0.00    0.0001334    0.0000994   -0.0004566
n    -3.4593434    0.5510226   -0.5492598  0.00   -0.0058342    0.0020432   -0.0011153
h    -3.5686853    1.4320718    1.3979206  0.00   -0.0001336   -0.0000452    0.0004615
h    -2.5682860    0.6277193   -1.1058414  0.00    0.0053243    0.0005578   -0.0038420
h    -3.3560592   -0.3086526    0.0457010  0.00    0.0004801   -0.0041554    0.0039801
o    -1.3022784    2.6068061    0.6324158  0.00    0.0059299   -0.0024191    0.0028022
o    -2.8645129    3.9719188   -0.5846890  0.00   -0.0125145   -0.0024758   -0.0040084
h    -2.0307631    4.5581163   -0.5928680  0.00    0.0095216    0.0076081    0.0007437
    13
 Energy =       0.0375309680
c    -3.6576814    1.7130086    0.3253508  0.00    0.0000623    0.0015371    0.0015078
c    -2.5749263    2.7776259    0.1620497  0.00   -0.0002421   -0.0003800    0.0024772
c    -5.0622238    2.2872614    0.1253445  0.00   -0.0007760   -0.0009458    0.0000452
h    -5.2504874    3.1226206    0.8357946  0.00   -0.0001778    0.0014871    0.0011561
h    -5.8238673    1.4942149    0.2791030  0.00    0.0001118   -0.0003062   -0.0001618
h    -5.1623331    2.6755604   -0.9145983  0.00   -0.0006712    0.0007597   -0.0018042
n    -3.5083434    0.5829971   -0.6152815  0.00   -0.0044650    0.0019216   -0.0023602
h    -3.5667166    1.3565236    1.3814844  0.00    0.0006122   -0.0004341    0.0017525
h    -2.6788091    0.7139206   -1.2500768  0.00    0.0048855   -0.0015653   -0.0034780
h    -3.3205784   -0.2971876   -0.0747010  0.00    0.0004485   -0.0037690    0.0023587
o    -1.3338703    2.5961662    0.7613782  0.00    0.0013645   -0.0007083    0.0003472
o    -2.7920492    3.9062492   -0.6235243  0.00    0.0053739    0.0065381   -0.0011495
h    -1.9516704    4.4616153   -0.6362021  0.00   -0.0065266   -0.0041351   -0.0006909
    13
 Energy =       0.0375189079
c    -3.6399063    1.7108684    0.3225701  0.00    0.0000749    0.0006102    0.0007512
c    -2.5876618    2.8040836    0.1461032  0.00   -0.0010054   -0.0005538    0.0012596
c    -5.0616166    2.2546321    0.1610851  0.00   -0.0009911   -0.0001813    0.0003280
h    -5.2526883    3.0787029    0.8829157  0.00   -0.0002387    0.0010020    0.0007457
h    -5.8020852    1.4433082    0.3250594  0.00   -0.0002532   -0.0004648    0.0000396
h    -5.1933923    2.6494462   -0.8727638  0.00   -0.0004566    0.0007003   -0.0015642
n    -3.4853160    0.5966477   -0.6347397  0.00   -0.0027683    0.0011734   -0.0017492
h    -3.5164420    1.3443660    1.3719265  0.00    0.0003471   -0.0005629    0.0015906
h    -2.6445958    0.7322466   -1.2517192  0.00    0.0032011   -0.0008338   -0.0023441
h    -3.3170525   -0.2946999   -0.1076973  0.00    0.0003464   -0.0027032    0.0017558
o    -1.3532871    2.6821359    0.7765526  0.00    0.0032980   -0.0010044    0.0016063
o    -2.8251523    3.9001769   -0.6792062  0.00    0.0012884    0.0045874   -0.0021515
h    -2.0043605    4.4886616   -0.6839653  0.00   -0.0028426   -0.0017693   -0.0002678
    13
 Energy =       0.0374619580
c    -3.6156058    1.7080363    0.3139711  0.00    0.0016586    0.0008658   -0.0004446
c    -2.5895088    2.8195071    0.1105641  0.00   -0.0010249   -0.0014321   -0.0008229
c    -5.0489633    2.2419636    0.2531771  0.00   -0.0017458    0.0000902    0.0008815
h    -5.2057767    3.0412980    1.0091773  0.00   -0.0004629    0.0002431    0.0004513
h    -5.7728824    1.4204587    0.4359134  0.00   -0.0002863    0.0002281    0.0001958
h    -5.2423179    2.6636407   -0.7599606  0.00   -0.0000916    0.0003051   -0.0011986
n    -3.5051689    0.6310651   -0.6894668  0.00    0.0005836    0.0015254   -0.0033906
h    -3.4266540    1.3085122    1.3414693  0.00    0.0000829   -0.0001089    0.0018732
h    -2.6414317    0.7474406   -1.2728490  0.00   -0.0008039    0.0016071    0.0009499
h    -3.4101198   -0.2943980   -0.2033901  0.00    0.0005880   -0.0040804    0.0016439
o    -1.3794043    2.7742160    0.7956941  0.00    0.0026700   -0.0011650    0.0020359
o    -2.8255670    3.8565498   -0.7871505  0.00   -0.0038559    0.0001606   -0.0025597
h    -2.0201562    4.4722862   -0.7910284  0.00    0.0026881    0.0017608    0.0003848
    13
 Energy =       0.0374436218
c    -3.6182575    1.7028431    0.3127639  0.00    0.0003572    0.0002440    0.0007026
c    -2.5784626    2.8014450    0.1093526  0.00   -0.0000473    0.0000224    0.0004681
c    -5.0411639    2.2621366    0.2852893  0.00   -0.0004048   -0.0001380   -0.0001290
h    -5.1705822    3.0502114    1.0581543  0.00   -0.0000831    0.0004068    0.0003632
h    -5.7753817    1.4489082    0.4647029  0.00   -0.0000689   -0.0000848   -0.0000393
h    -5.2448319    2.7052874   -0.7157207  0.00   -0.0001602    0.0001086   -0.0003136
n    -3.5460548    0.6396052   -0.7084279  0.00   -0.0017598   -0.0001078   -0.0000212
h    -3.4190008    1.2834922    1.3289829  0.00    0.0001284   -0.0000387    0.0002890
h    -2.7132410    0.7670714   -1.3363819  0.00    0.0018375   -0.0000325   -0.0016984
h    -3.4209996   -0.2882507   -0.2382989  0.00    0.0000348   -0.0007382    0.0006551
o    -1.3821150    2.7603537    0.8151762  0.00    0.0003494   -0.0001929    0.0001984
o    -2.7909771    3.8244378   -0.8080856  0.00   -0.0002015    0.0004780   -0.0004399
h    -1.9824886    4.4330349   -0.8113859  0.00    0.0000184    0.0000730   -0.0000350
    13
 Energy =       0.0374353795
c    -3.6149207    1.7020569    0.3120908  0.00    0.0000693    0.0000655    0.0000513
c    -2.5805074    2.8049350    0.1062949  0.00   -0.0007340   -0.0003885    0.0000076
c    -5.0381823    2.2594544    0.3024923  0.00   -0.0001101   -0.0000203    0.0000280
h    -5.1615449    3.0405639    1.0828191  0.00   -0.0000327    0.0000868    0.0000789
h    -5.7696087    1.4438970    0.4823414  0.00   -0.0000132   -0.0000117    0.0000034
h    -5.2514448    2.7100596   -0.6930186  0.00   -0.0000326    0.0000450   -0.0001114
n    -3.5507645    0.6477204   -0.7180183  0.00   -0.0001434    0.0000007   -0.0001602
h    -3.4052524    1.2747993    1.3227882  0.00    0.0000176   -0.0000348    0.0001294
h    -2.7189045    0.7764356   -1.3447958  0.00    0.0001854   -0.0000040   -0.0001634
h    -3.4311833   -0.2851126   -0.2574273  0.00    0.0000197   -0.0001799    0.0001148
o    -1.4036653    2.7973025    0.8467715  0.00    0.0013962   -0.0003698    0.0010891
o    -2.7796642    3.8004770   -0.8441690  0.00   -0.0007662    0.0007588   -0.0011197
h    -1.9779137    4.4179872   -0.8420482  0.00    0.0001440    0.0000520    0.0000520
    13
 Energy =       0.0374326037
c    -3.6112168    1.6979013    0.3072196  0.00    0.0000767    0.0001870    0.0001015
c    -2.5792692    2.8035085    0.1044150  0.00    0.0000234    0.0000834   -0.0000226
c    -5.0337702    2.2568801    0.3246212  0.00   -0.0001228   -0.0000534    0.0000569
h    -5.1462604    3.0258273    1.1186754  0.00   -0.0000486    0.0001400    0.0001467
h    -5.7637215    1.4393058    0.5012574  0.00   -0.0000009   -0.0000121    0.0000101
h    -5.2593137    2.7229315   -0.6611561  0.00   -0.0000601    0.0000945   -0.0001949
n    -3.5616215    0.6595355   -0.7398916  0.00    0.0000055   -0.0000409   -0.0003616
h    -3.3886489    1.2548777    1.3084496  0.00    0.0000516   -0.0000743    0.0002217
h    -2.7353680    0.7945918   -1.3725459  0.00    0.0000471   -0.0000429   -0.0000564
h    -3.4421882   -0.2810734   -0.2953483  0.00    0.0000403   -0.0002273    0.0000807
o    -1.4080146    2.8033681    0.8518244  0.00   -0.0000584    0.0000247   -0.0000803
o    -2.7765521    3.7959648   -0.8483779  0.00    0.0000379   -0.0000863    0.0001002
h    -1.9776115    4.4169571   -0.8430217  0.00    0.0000082    0.0000075   -0.0000019
    13
 Energy =       0.0374323000
c    -3.6114399    1.6986682    0.3081016  0.00    0.0000169    0.0000373    0.0000200
c    -2.5803311    2.8049809    0.1051285  0.00   -0.0000710   -0.0000288   -0.0000070
c    -5.0342060    2.2566163    0.3230254  0.00   -0.0000264   -0.0000107    0.0000118
h    -5.1481877    3.0262640    1.1159796  0.00   -0.0000097    0.0000290    0.0000307
h    -5.7638771    1.4387883    0.4996277  0.00   -0.0000002   -0.0000025    0.0000019
h    -5.2587045    2.7212680   -0.6634785  0.00   -0.0000125    0.0000198   -0.0000403
n    -3.5599378    0.6592686   -0.7376092  0.00   -0.0000055   -0.0000063   -0.0000745
h    -3.3897959    1.2569906    1.3099493  0.00    0.0000105   -0.0000156    0.0000458
h    -2.7318790    0.7930242   -1.3681372  0.00    0.0000150   -0.0000083   -0.0000164
h    -3.4428163   -0.2809189   -0.2918273  0.00    0.0000090   -0.0000501    0.0000190
o    -1.4163420    2.8149024    0.8640117  0.00    0.0001284   -0.0000288    0.0001041
o    -2.7715540    3.7886781   -0.8580999  0.00   -0.0000695    0.0000598   -0.0001009
h    -1.9744854    4.4120455   -0.8505506  0.00    0.0000150    0.0000052    0.0000055
    13
 Energy =       0.0374322778
c    -3.6114333    1.6986669    0.3080775  0.00   -0.0000000    0.0000000   -0.0000000
c    -2.5803558    2.8050123    0.1051411  0.00   -0.0000002   -0.0000000   -0.0000000
c    -5.0341675    2.2565615    0.3230985  0.00   -0.0000000    0.0000000   -0.0000000
h    -5.1481084    3.0261309    1.1160788  0.00   -0.0000000    0.0000000   -0.0000000
h    -5.7638287    1.4387202    0.4996723  0.00   -0.0000000   -0.0000000   -0.0000000
h    -5.2586955    2.7212602   -0.6633284  0.00    0.0000000   -0.0000000   -0.0000000
n    -3.5599859    0.6593718   -0.7376677  0.00    0.0000000   -0.0000000   -0.0000000
h    -3.3897527    1.2569315    1.3098425  0.00   -0.0000000    0.0000000    0.0000000
h    -2.7319162    0.7931404   -1.3681595  0.00    0.0000000   -0.0000000    0.0000000
h    -3.4429577   -0.2808318   -0.2919688  0.00    0.0000000   -0.0000000    0.0000000
o    -1.4167482    2.8153620    0.8644351  0.00    0.0000003   -0.0000001    0.0000001
o    -2.7712864    3.7883834   -0.8583824  0.00   -0.0000002    0.0000001   -0.0000001
h    -1.9743204    4.4118670   -0.8507181  0.00    0.0000000    0.0000000    0.0000000
    13
 Energy =       0.0374322778
c    -3.6114312    1.6986655    0.3080759  0.00   -0.0000000    0.0000000   -0.0000000
c    -2.5803596    2.8050174    0.1051461  0.00   -0.0000000   -0.0000000   -0.0000000
c    -5.0341656    2.2565582    0.3231137  0.00   -0.0000000    0.0000000    0.0000000
h    -5.1481027    3.0261162    1.1161057  0.00   -0.0000000    0.0000000    0.0000000
h    -5.7638246    1.4387135    0.4996809  0.00   -0.0000000   -0.0000000    0.0000000
h    -5.2587003    2.7212697   -0.6633058  0.00   -0.0000000    0.0000000   -0.0000000
n    -3.5599893    0.6593852   -0.7376841  0.00    0.0000000    0.0000000   -0.0000000
h    -3.3897425    1.2569165    1.3098332  0.00   -0.0000000   -0.0000000    0.0000000
h    -2.7319154    0.7931548   -1.3681702  0.00    0.0000000    0.0000000    0.0000000