      -----------------------------------------------------------      
     |                   =====================                   |     
     |                           x T B                           |     
     |                   =====================                   |     
     |                         S. Grimme                         |     
     |          Mulliken Center for Theoretical Chemistry        |     
     |                    University of Bonn                     |     
      -----------------------------------------------------------      

   * xtb version 6.4.0 (d4b70c2) compiled by 'ehlert@majestix' on 2021-02-01

   xtb is free software: you can redistribute it and/or modify it under
   the terms of the GNU Lesser General Public License as published by
   the Free Software Foundation, either version 3 of the License, or
   (at your option) any later version.
   
   xtb is distributed in the hope that it will be useful,
   but WITHOUT ANY WARRANTY; without even the implied warranty of
   MERCHANTABILITY or FITNESS FOR A PARTICULAR PURPOSE.  See the
   GNU Lesser General Public License for more details.
   
   Cite this work as:
   * C. Bannwarth, E. Caldeweyher, S. Ehlert, A. Hansen, P. Pracht,
     J. Seibert, S. Spicher, S. Grimme, WIREs Comput. Mol. Sci., 2020,
     e01493. DOI: 10.1002/wcms.1493
   
   for GFN2-xTB:
   * C. Bannwarth, S. Ehlert and S. Grimme., J. Chem. Theory Comput., 2019,
     15, 1652-1671. DOI: 10.1021/acs.jctc.8b01176
   for GFN1-xTB:
   * S. Grimme, C. Bannwarth, P. Shushkov, J. Chem. Theory Comput., 2017,
     13, 1989-2009. DOI: 10.1021/acs.jctc.7b00118
   for GFN0-xTB:
   * P. Pracht, E. Caldeweyher, S. Ehlert, S. Grimme, ChemRxiv, 2019, preprint.
     DOI: 10.26434/chemrxiv.8326202.v1
   for GFN-FF:
   * S. Spicher and S. Grimme, Angew. Chem. Int. Ed., 2020, 59, 15665-15673.
     DOI: 10.1002/anie.202004239
   
   for DFT-D4:
   * E. Caldeweyher, C. Bannwarth and S. Grimme, J. Chem. Phys., 2017,
     147, 034112. DOI: 10.1063/1.4993215
   * E. Caldeweyher, S. Ehlert, A. Hansen, H. Neugebauer, S. Spicher,
     C. Bannwarth and S. Grimme, J. Chem. Phys., 2019, 150, 154122.
     DOI: 10.1063/1.5090222
   * E. Caldeweyher, J.-M. Mewes, S. Ehlert and S. Grimme, Phys. Chem. Chem. Phys.
     2020, 22, 8499-8512. DOI: 10.1039/D0CP00502A
   
   for sTDA-xTB:
   * S. Grimme and C. Bannwarth, J. Chem. Phys., 2016, 145, 054103.
     DOI: 10.1063/1.4959605
   
   in the mass-spec context:
   * V. Asgeirsson, C. Bauer and S. Grimme, Chem. Sci., 2017, 8, 4879.
     DOI: 10.1039/c7sc00601b
   * J. Koopman and S. Grimme, ACS Omega 2019, 4, 12, 15120-15133.
     DOI: 10.1021/acsomega.9b02011
   
   for metadynamics refer to:
   * S. Grimme, J. Chem. Theory Comput., 2019, 155, 2847-2862
     DOI: 10.1021/acs.jctc.9b00143
   
   with help from (in alphabetical order)
   P. Atkinson, C. Bannwarth, F. Bohle, G. Brandenburg, E. Caldeweyher
   M. Checinski, S. Dohm, S. Ehlert, S. Ehrlich, I. Gerasimov, J. Koopman
   C. Lavinge, S. Lehtola, F. März, M. Müller, F. Musil, H. Neugebauer
   J. Pisarek, P. Pracht, J. Seibert, P. Shushkov, S. Spicher, M. Stahn
   T. Strunk, J. Stückrath, T. Rose, and J. Unsleber
   
 * started run on 2023/05/17 at 16:57:44.211     

           -------------------------------------------------
          |                Calculation Setup                |
           -------------------------------------------------

          program call               : xtb --gfnff struc.xyz
          hostname                   : k27
          coordinate file            : struc.xyz
          omp threads                :                    12
          number of atoms            :                    13
          number of electrons        :                    36
          charge                     :                     0
          spin                       :                   0.0
          first test random number   :      0.46325333899657

   ID    Z sym.   atoms
    1    6 C      1-3
    2    1 H      4-6, 8-10, 13
    3    7 N      7
    4    8 O      11, 12
   1.00000000000000     
 
          ==================== Thresholds ====================
          CN  :   150.00000
          rep :   500.00000
          disp:  2500.00000
          HB1 :   250.00000
          HB2 :   450.00000
 
          Pauling EN used:
          Z : 1  EN :  2.20
          Z : 6  EN :  2.55
          Z : 7  EN :  3.04
          Z : 8  EN :  3.44
          electric field strengths (au): 0.000
 
           ------------------------------------------------- 
          |           Force Field Initialization            |
           ------------------------------------------------- 
 
          distances ...
          ----------------------------------------
          generating topology and atomic info file ...
          pair mat ...
          computing topology distances matrix with Floyd-Warshall algo ...
          making topology EEQ charges ...
          #fragments for EEQ constrain: 1
          ----------------------------------------
          generating topology and atomic info file ...
          pair mat ...
          computing topology distances matrix with Floyd-Warshall algo ...
          making topology EEQ charges ...
          #fragments for EEQ constrain: 1
          rings ...
          # BATM   84
          # H in HB   7
          maxhb123   75 30 0
          doing iterative Hueckel for 1 subsystem(s) ...
 
  atom   neighbors  erfCN metchar sp-hybrid imet pi  qest     coordinates
    1  C       4    3.48   0.00         3    0    0   0.043   -7.017289    3.203199    0.599708
    2  C       3    2.79   0.00         2    0    1   0.228   -4.717266    4.978521    0.457314
    3  C       4    3.49   0.00         3    0    0  -0.060   -9.366521    4.521018   -0.407368
    4  H       1    0.97   0.00         0    0    0   0.072   -9.845416    6.146957    0.782989
    5  H       1    0.97   0.00         0    0    0   0.072  -10.999320    3.248571   -0.405866
    6  H       1    0.97   0.00         0    0    0   0.072   -9.086558    5.225414   -2.333547
    7  N       3    2.78   0.00         3    0    0  -0.280   -6.443569    0.854069   -0.859672
    8  H       1    0.97   0.00         0    0    0   0.070   -7.289731    2.679102    2.583123
    9  H       1    0.98   0.00         0    0    0   0.154   -8.001213    0.423068   -1.928787
   10  H       1    0.98   0.00         0    0    0   0.154   -5.079300    1.265007   -2.170709
   11  O       1    0.98   0.00         2    0    1  -0.370   -3.687441    5.677039   -1.481449
   12  O       2    1.91   0.00         3    0    1  -0.412   -3.969558    5.719690    2.801613
   13  H       1    0.97   0.01         0    0    0   0.258   -5.035194    4.742626    3.989023
 
          #atoms :   13
          #bonds :   12
          #angl  :   19
          #tors  :   25
          #nmol  :   1
          #optfrag :   1
           ------------------------------------------------- 
          |                   G F N - F F                   |
          |          A general generic force-field          |
          |                  Version 1.0.2                  | 
           ------------------------------------------------- 

 E+G (total)                   0 d,  0 h,  0 min,  0.001 sec
 distance/D3 list               ...        0 min,  0.000 sec (  0.181%)
 non bonded repulsion           ...        0 min,  0.000 sec ( 12.563%)
 dCN                            ...        0 min,  0.000 sec (  0.764%)
 EEQ energy and q               ...        0 min,  0.000 sec (  9.206%)
 D3                             ...        0 min,  0.000 sec (  9.266%)
 EEQ gradient                   ...        0 min,  0.000 sec (  8.261%)
 bonds                          ...        0 min,  0.000 sec ( 16.945%)
 bend and torsion               ...        0 min,  0.000 sec ( 16.523%)
 bonded ATM                     ...        0 min,  0.000 sec (  8.261%)
 HB/XB (incl list setup)        ...        0 min,  0.000 sec ( 16.784%)

         :::::::::::::::::::::::::::::::::::::::::::::::::::::
         ::                     SUMMARY                     ::
         :::::::::::::::::::::::::::::::::::::::::::::::::::::
         :: total energy              -2.000716806058 Eh    ::
         :: gradient norm              0.050432433639 Eh/a0 ::
         ::.................................................::
         :: bond energy               -1.982251622288 Eh    ::
         :: angle energy               0.002204194262 Eh    ::
         :: torsion energy             0.003783842487 Eh    ::
         :: repulsion energy           0.125735997348 Eh    ::
         :: electrostat energy        -0.142839751906 Eh    ::
         :: dispersion energy         -0.005766029060 Eh    ::
         :: HB energy                 -0.000004133346 Eh    ::
         :: XB energy                  0.000000000000 Eh    ::
         :: bonded atm energy         -0.001579303553 Eh    ::
         :: external energy            0.000000000000 Eh    ::
         :: add. restraining           0.000000000000 Eh    ::
         :: total charge              -0.000000000000 e     ::
         :::::::::::::::::::::::::::::::::::::::::::::::::::::

           -------------------------------------------------
          |                Property Printout                |
           -------------------------------------------------

           -------------------------------------------------
          | TOTAL ENERGY               -2.000716806058 Eh   |
          | GRADIENT NORM               0.050432433639 Eh/α |
           -------------------------------------------------

------------------------------------------------------------------------
 * finished run on 2023/05/17 at 16:57:44.238     
------------------------------------------------------------------------
 total:
 * wall-time:     0 d,  0 h,  0 min,  0.028 sec
 *  cpu-time:     0 d,  0 h,  0 min,  0.266 sec
 * ratio c/w:     9.644 speedup
 SCF:
 * wall-time:     0 d,  0 h,  0 min,  0.001 sec
 *  cpu-time:     0 d,  0 h,  0 min,  0.014 sec
 * ratio c/w:     9.933 speedup

