    27
 Energy =       1.2607539320
c    -1.4235396    2.6054793   -0.0667700  0.00   -0.0462672    0.0383553    0.0027616
c    -1.3072796    1.2134697   -0.1072300  0.00   -0.0853126   -0.0325801    0.0020183
c    -0.0178900    0.6711998   -0.1697000  0.00   -0.0886599   -0.1878237   -0.0011164
c    -0.2940599    3.4190890   -0.0891300  0.00   -0.0231042    0.0691674    0.0029498
c     0.9872197    2.8590292   -0.1560400  0.00    0.0105819    0.0643691    0.0010398
c     1.1340797    1.4562096   -0.1970299  0.00    0.0530636    0.0517651    0.0021395
n     0.3879399   -0.6395298   -0.2140799  0.00    0.1449116    0.1086178   -0.0036040
c     2.2666594    0.5727398   -0.2659299  0.00    0.1387571   -0.0561485   -0.0195631
c     1.7555995   -0.7123598   -0.2706899  0.00   -0.0964582   -0.0971295    0.0048167
h    -0.2400399   -1.4313496   -0.2047299  0.00    0.0367376    0.0479173   -0.0004738
c     3.7030089    1.0223397   -0.3320099  0.00    0.0112729    0.0181091    0.0223235
c     4.7465686   -0.0024900    0.1378100  0.00   -0.0005669   -0.0175641   -0.0322076
h     3.7978489    1.9290294    0.2803699  0.00    0.0022056   -0.0130402   -0.0110777
h     3.9233889    1.3348996   -1.3618196  0.00   -0.0025831   -0.0007283    0.0142632
c     6.0911583    0.7171698    0.3515799  0.00    0.1061057    0.2773869    0.1818408
n     4.9813086   -1.1161597   -0.8485798  0.00    1.2590483    0.3182341   -0.0587707
h     4.4627987   -0.4486599    1.0982597  0.00    0.0066877   -0.0037912   -0.0217869
h     5.2391085   -0.6793528   -1.7395595  0.00    0.3755528    0.0158630    0.2758346
h     5.8334383   -1.6105095   -0.5615798  0.00    3.9895831    5.1330205   -1.5959401
h    -2.4108593    3.0588691   -0.0157800  0.00   -0.0007551    0.0002136    0.0000232
h    -2.1896094    0.5822398   -0.0890100  0.00   -0.0036270    0.0038012    0.0000665
h    -0.4052699    4.5000487   -0.0535400  0.00    0.0008495    0.0000619    0.0002510
h     1.8590495    3.5066790   -0.1715100  0.00   -0.0008518    0.0024612    0.0006421
h     2.2327294   -1.6813195   -0.3062999  0.00   -0.0439202   -0.0110142    0.0034618
o     6.2733082    1.6803095    1.0775897  0.00   -0.0416240   -0.2290864   -0.1764975
o     7.0804880    0.1383800   -0.3810899  0.00   -0.1279773   -0.0959932   -0.0280826
h     6.6344681   -0.5938798   -0.8805597  0.00   -5.5736496   -5.4044440    1.4346878
    27
 Energy =       1.0463691150
c    -1.4084401    2.5554774   -0.1581380  0.00   -0.0358732    0.0302344    0.0021303
c    -1.2888914    1.1705243   -0.1800491  0.00   -0.0665797   -0.0254075    0.0014937
c    -0.0096409    0.6321724   -0.2348517  0.00   -0.0694967   -0.1443276   -0.0021476
c    -0.2840641    3.3663013   -0.1846222  0.00   -0.0180317    0.0541590    0.0023626
c     0.9893013    2.8078456   -0.2368463  0.00    0.0085444    0.0503998    0.0008470
c     1.1265965    1.4159063   -0.2623098  0.00    0.0404440    0.0411375    0.0018237
n     0.3890026   -0.6942623   -0.2185185  0.00    0.1131191    0.0826816   -0.0016286
c     2.2539112    0.5584234   -0.2937958  0.00    0.1071219   -0.0440131   -0.0157362
c     1.7720956   -0.7283337   -0.2775808  0.00   -0.0762620   -0.0738406    0.0028542
h    -0.2321230   -1.5008832   -0.1832215  0.00    0.0283979    0.0369473    0.0000066
c     3.6879759    1.0283010   -0.2884654  0.00    0.0101791    0.0120333    0.0173230
c     4.7335038    0.0022713    0.1941615  0.00   -0.0007319   -0.0132104   -0.0250974
h     3.7360938    1.9117018    0.3716265  0.00    0.0023786   -0.0085610   -0.0069489
h     3.9483894    1.3931187   -1.2971976  0.00   -0.0009180   -0.0001032    0.0090911
c     6.0460396    0.7366838    0.4754458  0.00    0.0829386    0.2111423    0.1404589
n     5.0188095   -1.0527158   -0.8227979  0.00    1.0189013    0.2485322   -0.0421604
h     4.4165919   -0.4811579    1.1327208  0.00    0.0042716   -0.0035268   -0.0156584
h     5.2375093   -0.5490696   -1.6894493  0.00    0.2983302    0.0156075    0.2186536
h     5.8665990   -1.5014460   -0.5461075  0.00    3.2026144    4.1366174   -1.2849160
h    -2.3962907    3.0084327   -0.1154554  0.00   -0.0005240    0.0004200   -0.0001256
h    -2.1681453    0.5357737   -0.1480900  0.00   -0.0028845    0.0030846   -0.0000152
h    -0.3955254    4.4478754   -0.1627322  0.00    0.0007784    0.0002922    0.0000463
h     1.8634143    3.4525691   -0.2522406  0.00   -0.0005464    0.0019602    0.0003797
h     2.2996836   -1.6740393   -0.2635975  0.00   -0.0330732   -0.0105828    0.0027757
o     6.1145551    1.7457039    1.2318246  0.00   -0.0366383   -0.1716013   -0.1330097
o     7.0941362    0.2394657   -0.2565672  0.00   -0.0909174   -0.0692034   -0.0134006
h     6.6905334   -0.4750690   -0.8702034  0.00   -4.4855426   -4.3608718    1.1405984
    27
 Energy =       0.9650608783
c    -1.4330240    2.4734838   -0.1406136  0.00   -0.0321885    0.0271788    0.0019080
c    -1.2937241    1.0925213   -0.1546143  0.00   -0.0597344   -0.0228162    0.0012990
c    -0.0108874    0.5728211   -0.2113133  0.00   -0.0624775   -0.1290480   -0.0021447
c    -0.3217308    3.2987253   -0.1756411  0.00   -0.0160592    0.0486538    0.0021369
c     0.9556463    2.7583632   -0.2294194  0.00    0.0078972    0.0451737    0.0007834
c     1.1081301    1.3724874   -0.2477439  0.00    0.0360767    0.0371278    0.0016434
n     0.4072725   -0.7533150   -0.1788376  0.00    0.1008177    0.0738920   -0.0011371
c     2.2457622    0.5433941   -0.2777232  0.00    0.0959206   -0.0394267   -0.0137194
c     1.7957166   -0.7505422   -0.2537382  0.00   -0.0681293   -0.0659544    0.0023187
h    -0.1953676   -1.5771020   -0.1287508  0.00    0.0250957    0.0324727    0.0001049
c     3.6674004    1.0512147   -0.2719264  0.00    0.0083763    0.0109444    0.0158851
c     4.7545082    0.0411826    0.1599698  0.00   -0.0005490   -0.0114523   -0.0215791
h     3.6935011    1.9083250    0.4266621  0.00    0.0016931   -0.0065580   -0.0055377
h     3.9039980    1.4686903   -1.2689269  0.00   -0.0003559    0.0006923    0.0067075
c     6.0488567    0.8081625    0.4414020  0.00    0.0733744    0.1883195    0.1256384
n     5.0575492   -0.9645737   -0.8975185  0.00    0.9158304    0.2196268   -0.0375397
h     4.4680937   -0.4832303    1.0898161  0.00    0.0034338   -0.0039072   -0.0129818
h     5.2655086   -0.3903165   -1.7331285  0.00    0.2668265    0.0175347    0.1921740
h     5.9118731   -1.4105958   -0.5928800  0.00    2.8864285    3.7261045   -1.1556379
h    -2.4271162    2.9125627   -0.0961914  0.00   -0.0005814    0.0004310   -0.0001079
h    -2.1629367    0.4444955   -0.1132148  0.00   -0.0027329    0.0026523   -0.0000057
h    -0.4481476    4.3788708   -0.1593756  0.00    0.0006992    0.0003980    0.0000446
h     1.8215291    3.4141248   -0.2521065  0.00   -0.0003684    0.0018079    0.0003355
h     2.3563623   -1.6772823   -0.2420113  0.00   -0.0292313   -0.0100007    0.0024651
o     6.0790708    1.8327531    1.2036232  0.00   -0.0330635   -0.1527175   -0.1185320
o     7.1129066    0.3624347   -0.3088974  0.00   -0.0791380   -0.0609409   -0.0122646
h     6.7408706   -0.3760845   -0.9239590  0.00   -4.0378609   -3.9301881    1.0277431
    27
 Energy =       0.8782655717
c    -1.4619844    2.3839559   -0.1420016  0.00   -0.0291732    0.0243516    0.0017242
c    -1.2899206    1.0090508   -0.1805421  0.00   -0.0537807   -0.0212859    0.0013608
c     0.0025145    0.5218505   -0.2257453  0.00   -0.0553016   -0.1115332   -0.0009506
c    -0.3710957    3.2348790   -0.1498187  0.00   -0.0142237    0.0438758    0.0017937
c     0.9167478    2.7264024   -0.1944349  0.00    0.0075327    0.0405387    0.0005101
c     1.0987806    1.3484742   -0.2298871  0.00    0.0322177    0.0337908    0.0013491
n     0.4486911   -0.8025750   -0.2707475  0.00    0.0878228    0.0627761   -0.0019242
c     2.2539851    0.5577113   -0.2637622  0.00    0.0865322   -0.0343333   -0.0122288
c     1.8444256   -0.7470153   -0.2799990  0.00   -0.0577643   -0.0576182    0.0027418
h    -0.1287235   -1.6520435   -0.2875039  0.00    0.0199800    0.0248375    0.0001495
c     3.6641444    1.1040171   -0.2728622  0.00    0.0079043    0.0095698    0.0139925
c     4.7629505    0.1321725    0.1989817  0.00   -0.0001909   -0.0082576   -0.0174174
h     3.6778943    1.9897860    0.3925469  0.00    0.0017698   -0.0051381   -0.0038984
h     3.8966211    1.4780111   -1.2895366  0.00   -0.0004112    0.0012151    0.0051152
c     6.0530128    0.9106341    0.4322428  0.00    0.0658375    0.1685471    0.1110605
n     5.0469653   -0.9306796   -0.8069925  0.00    0.8188100    0.1896955   -0.0243351
h     4.4885935   -0.3426727    1.1609493  0.00    0.0030709   -0.0045034   -0.0103304
h     5.2620900   -0.4744841   -1.7104500  0.00    0.2332795    0.0181684    0.1566739
h     5.8968511   -1.3586290   -0.5537805  0.00    2.5865462    3.3444281   -1.0396600
h    -2.4675359    2.7978889   -0.1069454  0.00   -0.0010611    0.0002325   -0.0000742
h    -2.1438666    0.3381526   -0.1758203  0.00   -0.0032852    0.0013896    0.0001597
h    -0.5239474    4.3115536   -0.1206325  0.00    0.0004567    0.0006211   -0.0000827
h     1.7672455    3.4027110   -0.1989198  0.00    0.0000016    0.0017959    0.0001450
h     2.4435417   -1.6502811   -0.2873135  0.00   -0.0253327   -0.0100633    0.0024836
o     6.1079995    1.9276369    1.2227522  0.00   -0.0299467   -0.1357719   -0.1050332
o     7.1118469    0.4566150   -0.3187072  0.00   -0.0693631   -0.0519978   -0.0091944
h     6.7437941   -0.3215518   -0.8781285  0.00   -3.6119272   -3.5253310    0.9258698
    27
 Energy =       0.7926017434
c    -1.4544639    2.3770535   -0.1765201  0.00   -0.0253872    0.0210408    0.0015096
c    -1.2794796    1.0064576   -0.2408550  0.00   -0.0465754   -0.0188315    0.0012838
c     0.0099975    0.5228426   -0.2718250  0.00   -0.0473230   -0.0945834    0.0000381
c    -0.3659580    3.2275951   -0.1499245  0.00   -0.0120045    0.0382022    0.0014863
c     0.9200748    2.7216468   -0.1808504  0.00    0.0067191    0.0352775    0.0003336
c     1.1005035    1.3484721   -0.2374442  0.00    0.0280663    0.0296679    0.0010877
n     0.4515344   -0.8042777   -0.3733140  0.00    0.0743757    0.0527320   -0.0027096
c     2.2528304    0.5669317   -0.2654081  0.00    0.0754094   -0.0287910   -0.0105764
c     1.8521577   -0.7369160   -0.3220688  0.00   -0.0483334   -0.0491334    0.0030448
h    -0.1256637   -1.6558425   -0.4462570  0.00    0.0158422    0.0193659   -0.0002661
c     3.6635813    1.1142964   -0.2565778  0.00    0.0066250    0.0084666    0.0122413
c     4.7505609    0.1475109    0.2522930  0.00    0.0001598   -0.0065869   -0.0146111
h     3.6698831    2.0129186    0.3930309  0.00    0.0014348   -0.0042222   -0.0032298
h     3.9158366    1.4658639   -1.2776243  0.00   -0.0003038    0.0011687    0.0040018
c     6.0437075    0.9184899    0.4772364  0.00    0.0567707    0.1457488    0.0957860
n     5.0268092   -0.9450166   -0.7236615  0.00    0.7143991    0.1650962   -0.0194338
h     4.4619332   -0.2964518    1.2261800  0.00    0.0025309   -0.0041409   -0.0084117
h     5.2453474   -0.5369888   -1.6489692  0.00    0.2036455    0.0152661    0.1346454
h     5.8827976   -1.3742289   -0.4871369  0.00    2.2591256    2.9212946   -0.9094700
h    -2.4611219    2.7889930   -0.1527631  0.00   -0.0010192    0.0001543   -0.0000607
h    -2.1318997    0.3336538   -0.2734047  0.00   -0.0033767    0.0007079    0.0001135
h    -0.5202573    4.3035667   -0.1037101  0.00    0.0004652    0.0007054   -0.0000713
h     1.7701559    3.3983974   -0.1583292  0.00    0.0003239    0.0017800    0.0001249
h     2.4654319   -1.6309508   -0.3379478  0.00   -0.0217951   -0.0088888    0.0022172
o     6.1092755    1.9442827    1.2773886  0.00   -0.0258057   -0.1173539   -0.0906935
o     7.1065471    0.4608521   -0.2673253  0.00   -0.0600643   -0.0450131   -0.0079141
h     6.7415002   -0.3275813   -0.8112702  0.00   -3.1539049   -3.0791299    0.8095339
    27
 Energy =       0.4943189223
c    -1.4548422    2.2614320   -0.2354712  0.00   -0.0064856    0.0066068    0.0006588
c    -1.2461098    0.9084757   -0.2711669  0.00   -0.0130422   -0.0051021    0.0002667
c     0.0344406    0.4573208   -0.2786975  0.00   -0.0133734   -0.0239872   -0.0031474
c    -0.3920363    3.1274120   -0.2107758  0.00   -0.0029193    0.0106414    0.0008618
c     0.8902789    2.6495006   -0.2220160  0.00    0.0029175    0.0095915    0.0004126
c     1.0834119    1.2972476   -0.2524355  0.00    0.0064451    0.0094384   -0.0000646
n     0.4799570   -0.8876507   -0.3113540  0.00    0.0164829    0.0120107    0.0029769
c     2.2343787    0.5773310   -0.2648453  0.00    0.0216092   -0.0078391   -0.0032691
c     1.9004205   -0.7323359   -0.3207205  0.00   -0.0123195   -0.0100243   -0.0017852
h    -0.0796261   -1.7688034   -0.3255529  0.00    0.0030863    0.0019937    0.0001203
c     3.6332391    1.1655683   -0.2892756  0.00    0.0015714    0.0016819    0.0035485
c     4.7359235    0.2468619    0.2870140  0.00    0.0034923   -0.0021627   -0.0036953
h     3.6252224    2.1064035    0.3078409  0.00    0.0001907    0.0010803    0.0003588
h     3.8803012    1.4517099   -1.3362985  0.00   -0.0000261    0.0009716   -0.0008779
c     6.0173553    1.0316915    0.4868685  0.00    0.0158828    0.0409998    0.0272504
n     5.0031475   -0.8855766   -0.6351328  0.00    0.3354250    0.0907113   -0.0062952
h     4.4404985   -0.1383403    1.2903708  0.00    0.0006228   -0.0018613   -0.0004951
h     5.2079147   -0.5267497   -1.5882767  0.00    0.1031625    0.0056179    0.0656370
h     5.8981582   -1.3233010   -0.4167698  0.00    1.1326677    1.4427744   -0.4550269
h    -2.4704631    2.6511774   -0.2300716  0.00   -0.0006878    0.0003201   -0.0002689
h    -2.0784568    0.2119213   -0.2950834  0.00   -0.0013235   -0.0001104   -0.0004235
h    -0.5686000    4.2007627   -0.1844332  0.00    0.0000711    0.0006304    0.0000422
h     1.7271797    3.3416439   -0.2064077  0.00    0.0007544    0.0002446    0.0002540
h     2.5965417   -1.5698080   -0.3707005  0.00   -0.0009646   -0.0048908   -0.0001012
o     6.0728460    2.1030358    1.3302209  0.00   -0.0087942   -0.0329396   -0.0247169
o     7.1196561    0.6165108   -0.2417364  0.00   -0.0175594   -0.0109929   -0.0013427
h     6.8108843   -0.2218704   -0.7521517  0.00   -1.5668862   -1.5354041    0.3991219
    27
 Energy =       0.3611576679
c    -1.4629793    2.2209295   -0.2477566  0.00   -0.0023766    0.0025611    0.0002665
c    -1.2405270    0.8739073   -0.2732732  0.00   -0.0048441   -0.0018764    0.0000736
c     0.0393014    0.4360057   -0.2701374  0.00   -0.0048735   -0.0088598   -0.0012029
c    -0.4097352    3.0945948   -0.2243897  0.00   -0.0010350    0.0039850    0.0003623
c     0.8737995    2.6282560   -0.2255375  0.00    0.0011890    0.0035281    0.0001675
c     1.0756328    1.2814564   -0.2445160  0.00    0.0023613    0.0034724   -0.0000618
n     0.4889148   -0.9086702   -0.3049521  0.00    0.0057866    0.0043763    0.0010021
c     2.2274216    0.5782401   -0.2520645  0.00    0.0079764   -0.0028941   -0.0012035
c     1.9106830   -0.7331713   -0.3059326  0.00   -0.0044740   -0.0036214   -0.0006553
h    -0.0675500   -1.7932051   -0.3251230  0.00    0.0011193    0.0006947   -0.0000050
c     3.6224660    1.1785014   -0.2862288  0.00    0.0006637    0.0008069    0.0012444
c     4.7358214    0.2578610    0.2667748  0.00    0.0021306   -0.0021394   -0.0018208
h     3.6147845    2.1099086    0.3249115  0.00    0.0001164    0.0005107    0.0002320
h     3.8568254    1.4788827   -1.3315723  0.00    0.0000820    0.0003849   -0.0004632
c     6.0112311    1.0474932    0.5090991  0.00    0.0029070    0.0081441   -0.0012422
n     5.0067329   -0.8516883   -0.6766216  0.00    0.1719771    0.0472901   -0.0060502
h     4.4355040   -0.1514400    1.2599448  0.00    0.0000642   -0.0008421    0.0001291
h     5.1866422   -0.4654293   -1.6292645  0.00    0.0548555    0.0048314    0.0335611
h     5.9244922   -1.2661810   -0.4355668  0.00    0.6171272    0.7799783   -0.2398316
h    -2.4819694    2.6009341   -0.2496528  0.00   -0.0003123    0.0002008   -0.0001203
h    -2.0648085    0.1686270   -0.2978020  0.00   -0.0005496   -0.0000429   -0.0001954
h    -0.5957406    4.1663234   -0.2072608  0.00    0.0000330    0.0003427    0.0000151
h     1.7045615    3.3274271   -0.2130147  0.00    0.0003355    0.0001167    0.0000951
h     2.6204776   -1.5566567   -0.3582775  0.00   -0.0002747   -0.0019194   -0.0000438
o     6.0639539    2.0305316    1.4889741  0.00   -0.0033861   -0.0028253    0.0047509
o     7.1376863    0.7145286   -0.2377562  0.00   -0.0030944   -0.0032088   -0.0009595
h     6.8879994   -0.1163960   -0.7900621  0.00   -0.8435041   -0.8329943    0.2119557
    27
 Energy =       0.3158119852
c    -1.4989226    2.1222920   -0.1783184  0.00   -0.0025631    0.0015500    0.0001898
c    -1.2433819    0.7811762   -0.1821089  0.00   -0.0039793   -0.0018686    0.0000139
c     0.0464461    0.3754666   -0.2015156  0.00   -0.0035762   -0.0064075   -0.0008678
c    -0.4671484    3.0221752   -0.1989033  0.00   -0.0003789    0.0036119    0.0002519
c     0.8273164    2.5877757   -0.2227917  0.00    0.0015266    0.0029589    0.0001221
c     1.0615389    1.2463558   -0.2193667  0.00    0.0020429    0.0024970   -0.0000160
n     0.5270131   -0.9594836   -0.2223707  0.00    0.0026959    0.0025308    0.0007680
c     2.2295204    0.5728199   -0.2445812  0.00    0.0054625   -0.0017977   -0.0007514
c     1.9448089   -0.7470995   -0.2655959  0.00   -0.0022757   -0.0027840   -0.0005413
h    -0.0088570   -1.8579813   -0.2107935  0.00    0.0000352   -0.0006609    0.0000232
c     3.6092302    1.2066556   -0.3332641  0.00    0.0008686    0.0012104    0.0007246
c     4.7603265    0.3261204    0.2110612  0.00    0.0020365   -0.0022417   -0.0014916
h     3.5957713    2.1528727    0.2547378  0.00    0.0003824    0.0006909    0.0003633
h     3.8071664    1.4865435   -1.3923898  0.00    0.0000668    0.0006390   -0.0011930
c     6.0209802    1.1537837    0.4205664  0.00    0.0021121    0.0033954   -0.0023527
n     5.0315338   -0.7952169   -0.7168705  0.00    0.1214202    0.0333702   -0.0041442
h     4.4895357   -0.0716158    1.2177786  0.00    0.0000137   -0.0008847    0.0006052
h     5.1954530   -0.4209173   -1.6784157  0.00    0.0395500    0.0036044    0.0236794
h     5.9577991   -1.1996325   -0.4766452  0.00    0.4435994    0.5595939   -0.1721669
h    -2.5273544    2.4767636   -0.1623560  0.00   -0.0007879    0.0001954   -0.0000732
h    -2.0503818    0.0546997   -0.1718809  0.00   -0.0011410   -0.0006998   -0.0001256
h    -0.6792995    4.0895454   -0.1989511  0.00    0.0000506    0.0007822    0.0000108
h     1.6408040    3.3079525   -0.2460753  0.00    0.0009954    0.0008002    0.0000386
h     2.6746063   -1.5522604   -0.3250017  0.00    0.0000437   -0.0015875   -0.0000568
o     6.0430632    2.1892847    1.3491367  0.00   -0.0018322    0.0010903    0.0056830
o     7.1634528    0.8260109   -0.3041096  0.00   -0.0016869   -0.0013285   -0.0002541
h     6.9506010   -0.0225161   -0.8380333  0.00   -0.6046813   -0.5982598    0.1515607
    27
 Energy =       0.2717634028
c    -1.5315795    2.0187785   -0.1163569  0.00   -0.0023298    0.0007111    0.0001275
c    -1.2405251    0.6854838   -0.0978584  0.00   -0.0028073   -0.0016801   -0.0000057
c     0.0582994    0.3135392   -0.1380539  0.00   -0.0021966   -0.0038938   -0.0005021
c    -0.5246591    2.9445752   -0.1796213  0.00    0.0000973    0.0029035    0.0001287
c     0.7797740    2.5436975   -0.2243864  0.00    0.0015010    0.0022430    0.0000570
c     1.0489090    1.2095061   -0.1980592  0.00    0.0015693    0.0014776    0.0000078
n     0.5716951   -1.0097011   -0.1447671  0.00    0.0004388    0.0008509    0.0005025
c     2.2326238    0.5670725   -0.2385988  0.00    0.0030423   -0.0007559   -0.0003701
c     1.9827889   -0.7600592   -0.2263788  0.00   -0.0005938   -0.0019520   -0.0003781
h     0.0587222   -1.9212896   -0.1029613  0.00   -0.0006586   -0.0014687    0.0000569
c     3.5935439    1.2342342   -0.3790921  0.00    0.0007689    0.0012637    0.0001041
c     4.7810962    0.3981243    0.1598134  0.00    0.0018088   -0.0019805   -0.0010630
h     3.5694467    2.1957149    0.1832132  0.00    0.0005045    0.0008199    0.0004242
h     3.7582724    1.4902110   -1.4500489  0.00   -0.0000041    0.0006960   -0.0014605
c     6.0234662    1.2665518    0.3363145  0.00    0.0011669   -0.0000303   -0.0024243
n     5.0541913   -0.7398894   -0.7456439  0.00    0.0723786    0.0196950   -0.0021087
h     4.5380186    0.0176872    1.1804077  0.00    0.0000190   -0.0007988    0.0008763
h     5.1941545   -0.3852041   -1.7201987  0.00    0.0246925    0.0026430    0.0137083
h     5.9900515   -1.1319809   -0.5033406  0.00    0.2785810    0.3492658   -0.1072333
h    -2.5686530    2.3464345   -0.0840852  0.00   -0.0009868    0.0001727   -0.0000253
h    -2.0275432   -0.0618918   -0.0541408  0.00   -0.0013493   -0.0010599   -0.0000441
h    -0.7648629    4.0060521   -0.1972223  0.00    0.0000337    0.0010292   -0.0000012
h     1.5732266    3.2845651   -0.2821616  0.00    0.0012653    0.0011647   -0.0000224
h     2.7324597   -1.5460005   -0.2899227  0.00    0.0002406   -0.0011540   -0.0000605
o     6.0064630    2.3480378    1.2127805  0.00   -0.0006167    0.0036191    0.0054489
o     7.1874374    0.9515268   -0.3604326  0.00   -0.0002153    0.0005452    0.0004120
h     7.0248040    0.0857952   -0.8762564  0.00   -0.3763503   -0.3743265    0.0938451
    27
 Energy =       0.2380653755
c    -1.5607120    1.9125699   -0.0583445  0.00   -0.0020247    0.0001316    0.0001053
c    -1.2324467    0.5889524   -0.0141893  0.00   -0.0018631   -0.0015430    0.0000270
c     0.0743329    0.2516277   -0.0764483  0.00   -0.0011758   -0.0021373   -0.0002055
c    -0.5815953    2.8633042   -0.1686804  0.00    0.0004080    0.0023185    0.0000148
c     0.7317391    2.4969146   -0.2352030  0.00    0.0013117    0.0017485   -0.0000199
c     1.0378513    1.1718012   -0.1825710  0.00    0.0012372    0.0007937   -0.0000061
n     0.6221662   -1.0578177   -0.0653881  0.00   -0.0007643   -0.0002414    0.0002970
c     2.2368242    0.5610482   -0.2370948  0.00    0.0014665    0.0000475   -0.0001736
c     2.0238430   -0.7716516   -0.1869176  0.00    0.0003722   -0.0014002   -0.0002253
h     0.1344039   -1.9813932    0.0099029  0.00   -0.0010240   -0.0019069    0.0001018
c     3.5760422    1.2598164   -0.4299784  0.00    0.0005320    0.0010266   -0.0003701
c     4.7976282    0.4737593    0.1105673  0.00    0.0014919   -0.0014401   -0.0005703
h     3.5370413    2.2391799    0.0997582  0.00    0.0005402    0.0010447    0.0005093
h     3.7111901    1.4835680   -1.5121710  0.00   -0.0001104    0.0006513   -0.0015218
c     6.0174671    1.3855383    0.2540961  0.00    0.0002826   -0.0015557   -0.0018492
n     5.0773382   -0.6865356   -0.7629911  0.00    0.0357904    0.0089918   -0.0004504
h     4.5785038    0.1178420    1.1453792  0.00    0.0000824   -0.0006649    0.0009698
h     5.1897724   -0.3625291   -1.7537424  0.00    0.0129520    0.0019722    0.0055806
h     6.0196420   -1.0669254   -0.5110323  0.00    0.1547796    0.1914000   -0.0581259
h    -2.6054295    2.2126320   -0.0090002  0.00   -0.0009921    0.0001213    0.0000127
h    -1.9971662   -0.1784081    0.0665299  0.00   -0.0013652   -0.0012454    0.0000354
h    -0.8512998    3.9172307   -0.2064727  0.00    0.0000177    0.0011334   -0.0000219
h     1.5026669    3.2575832   -0.3305627  0.00    0.0013144    0.0013354   -0.0000846
h     2.7928545   -1.5381104   -0.2509958  0.00    0.0002883   -0.0007916   -0.0000516
o     5.9523010    2.5067909    1.0772981  0.00   -0.0000410    0.0046959    0.0047012
o     7.2081688    1.0888579   -0.4070352  0.00    0.0010051    0.0021330    0.0009701
h     7.1084938    0.2059248   -0.9017713  0.00   -0.2045116   -0.2066193    0.0503507
    27
 Energy =       0.2174166562
c    -1.5837193    1.8143235   -0.0121482  0.00   -0.0016333   -0.0001787    0.0001078
c    -1.2206951    0.5013140    0.0558321  0.00   -0.0012541   -0.0012881    0.0000754
c     0.0919691    0.1953617   -0.0302968  0.00   -0.0005946   -0.0012069   -0.0000296
c    -0.6323956    2.7858881   -0.1695512  0.00    0.0004677    0.0017791   -0.0000606
c     0.6876692    2.4509697   -0.2594099  0.00    0.0010243    0.0013243   -0.0000801
c     1.0288385    1.1358721   -0.1821342  0.00    0.0009617    0.0004330   -0.0000460
n     0.6717647   -1.0997654   -0.0029709  0.00   -0.0010953   -0.0005693    0.0001806
c     2.2408433    0.5534676   -0.2515139  0.00    0.0008002    0.0001944   -0.0000890
c     2.0623004   -0.7821770   -0.1653346  0.00    0.0007282   -0.0009277   -0.0001418
h     0.2087574   -2.0326990    0.1052444  0.00   -0.0009999   -0.0018127    0.0001318
c     3.5588800    1.2765024   -0.4952612  0.00   -0.0000712    0.0002365   -0.0005860
c     4.8046099    0.5494899    0.0750361  0.00    0.0010329   -0.0004167    0.0004296
h     3.4991966    2.2824097   -0.0184234  0.00    0.0004674    0.0020508    0.0009438
h     3.6784861    1.4454169   -1.5895284  0.00   -0.0003006    0.0006552   -0.0020624
c     5.9965248    1.5063485    0.1939139  0.00   -0.0007953   -0.0021660   -0.0012993
n     5.1084690   -0.6420139   -0.7473529  0.00    0.0141404    0.0018731   -0.0004342
h     4.5920463    0.2310986    1.1234604  0.00    0.0002299   -0.0005121    0.0010916
h     5.2167080   -0.3634271   -1.7538353  0.00    0.0053666    0.0011771    0.0004427
h     6.0462238   -1.0141296   -0.4581098  0.00    0.0794879    0.0947898   -0.0278017
h    -2.6341657    2.0892483    0.0556139  0.00   -0.0008436    0.0000572    0.0000342
h    -1.9632177   -0.2826513    0.1735171  0.00   -0.0011751   -0.0011592    0.0000874
h    -0.9297996    3.8313582   -0.2262126  0.00    0.0000105    0.0009894   -0.0000377
h     1.4355626    3.2284714   -0.3922433  0.00    0.0011603    0.0012455   -0.0001314
h     2.8480596   -1.5307802   -0.2313051  0.00    0.0002822   -0.0004928   -0.0000335
o     5.8687401    2.6655440    0.9562235  0.00   -0.0003021    0.0058820    0.0047004
o     7.2224857    1.2289505   -0.4131524  0.00    0.0022498    0.0034206    0.0012270
h     7.1974794    0.3271788   -0.8771157  0.00   -0.0993448   -0.1053777    0.0233811
    27
 Energy =       0.2097275682
c    -1.5950954    1.7662343    0.0402331  0.00   -0.0013361   -0.0000440    0.0000890
c    -1.2116072    0.4610686    0.1420144  0.00   -0.0007624   -0.0014140    0.0001035
c     0.1041138    0.1721507    0.0494984  0.00   -0.0004930   -0.0008163    0.0000239
c    -0.6605529    2.7468440   -0.1560943  0.00    0.0005700    0.0016480   -0.0001099
c     0.6629743    2.4287039   -0.2514024  0.00    0.0006640    0.0014243   -0.0001149
c     1.0241614    1.1216421   -0.1403431  0.00    0.0008034    0.0004334   -0.0001102
n     0.7042920   -1.1127684    0.1090481  0.00   -0.0005523   -0.0008292    0.0001265
c     2.2438156    0.5568319   -0.2059328  0.00    0.0003315    0.0010465    0.0003051
c     2.0877691   -0.7786312   -0.0768357  0.00    0.0001319   -0.0012360   -0.0000802
h     0.2572764   -2.0491419    0.2502496  0.00   -0.0009746   -0.0019316    0.0001827
c     3.5447011    1.2992590   -0.4805925  0.00   -0.0017320    0.0007395   -0.0002387
c     4.8246999    0.5690802    0.0080080  0.00    0.0014880    0.0004180    0.0012205
h     3.4901216    2.2876477    0.0325308  0.00   -0.0004625    0.0018105    0.0008815
h     3.6166229    1.5048228   -1.5735720  0.00   -0.0000553    0.0007175   -0.0028003
c     6.0154648    1.5337491    0.0864171  0.00   -0.0001773   -0.0013207   -0.0004048
n     5.0853697   -0.6037956   -0.8549879  0.00    0.0077859    0.0004140   -0.0009415
h     4.6676236    0.2289529    1.0604896  0.00   -0.0001170   -0.0005075    0.0023361
h     5.1596132   -0.3018472   -1.8582397  0.00    0.0030776    0.0008614   -0.0010626
h     6.0210657   -1.0087036   -0.6026992  0.00    0.0511209    0.0578936   -0.0168559
h    -2.6484747    2.0275494    0.1122715  0.00   -0.0005645    0.0000398    0.0000249
h    -1.9405393   -0.3300716    0.2911951  0.00   -0.0009727   -0.0011408    0.0001110
h    -0.9741712    3.7858386   -0.2393049  0.00   -0.0000085    0.0010627   -0.0000634
h     1.3989249    3.2118143   -0.4147669  0.00    0.0009593    0.0011237   -0.0001571
h     2.8842105   -1.5170909   -0.1259179  0.00   -0.0001982   -0.0007529    0.0001012
o     5.9007372    2.6865768    0.8570411  0.00   -0.0002631    0.0031951    0.0025917
o     7.2269760    1.2782929   -0.5594969  0.00    0.0022838    0.0016080    0.0000833
h     7.2115281    0.3865619   -1.0358689  0.00   -0.0605469   -0.0644429    0.0147587
    27
 Energy =       0.2011664492
c    -1.6126266    1.6638817    0.1225620  0.00   -0.0010714   -0.0002941    0.0001525
c    -1.1890111    0.3743616    0.2549591  0.00   -0.0006638   -0.0010015    0.0001809
c     0.1313841    0.1195709    0.1345721  0.00   -0.0001489   -0.0004017    0.0000940
c    -0.7123701    2.6630786   -0.1306039  0.00    0.0003973    0.0012190   -0.0001753
c     0.6168445    2.3792388   -0.2517991  0.00    0.0006354    0.0009573   -0.0001759
c     1.0180674    1.0875288   -0.1099836  0.00    0.0006956    0.0003643   -0.0001007
n     0.7699284   -1.1449750    0.2194193  0.00   -0.0008048   -0.0007220    0.0001545
c     2.2513209    0.5560675   -0.1893662  0.00    0.0003778    0.0011236   -0.0001181
c     2.1379022   -0.7779024   -0.0129339  0.00    0.0005592   -0.0006320   -0.0000317
h     0.3540913   -2.0882080    0.4020664  0.00   -0.0007466   -0.0015318    0.0002383
c     3.5235763    1.3283023   -0.5102933  0.00    0.0001668    0.0009923   -0.0000984
c     4.8356625    0.6286098   -0.0740517  0.00    0.0005438   -0.0005076   -0.0003388
h     3.4623042    2.3133531    0.0038117  0.00    0.0000435   -0.0003040   -0.0002100
h     3.5516822    1.5336933   -1.6028986  0.00    0.0001427    0.0001145   -0.0002616
c     6.0043782    1.6258660   -0.0252400  0.00   -0.0001200   -0.0003459    0.0000951