    13
 Energy =       0.1094470879
c    -3.7133889    1.6950595    0.3173519  0.00   -0.0477994   -0.0168958    0.0052655
c    -2.4962693    2.6345192    0.2419999  0.00    0.0717770    0.3758783    0.0928539
c    -4.9565486    2.3924193   -0.2155699  0.00    0.0208057    0.0113533    0.0089738
h    -5.8072983    1.7014095   -0.2223689  0.00    0.0129312    0.0086055   -0.0030047
h    -4.8071186    2.7393792   -1.2437896  0.00   -0.0067577   -0.0049298    0.0164689
h    -5.2375685    3.2516891    0.4029209  0.00   -0.0015113   -0.0149823   -0.0122792
n    -3.4097890    0.4519539   -0.4549189  0.00    0.0526093   -0.0519439   -0.0083732
h    -3.8575589    1.4177196    1.3669296  0.00    0.0042164   -0.0128098   -0.0262433
h    -3.2072391   -0.2948399    0.2179739  0.00   -0.0190260    0.0284299   -0.0186319
h    -4.2689788    0.1396900   -0.9176007  0.00    0.0220404    0.0217967    0.0243137
o    -2.4571893    3.7760389    0.6681628  0.00   -0.0096234   -0.2805755   -0.0975411
o    -1.4389296    2.0221094   -0.3549299  0.00   -0.0703506   -0.0461057    0.0006872
h    -1.1721897    2.6250993   -1.0934297  0.00   -0.0293115   -0.0178210    0.0175105
    13
 Energy =       0.0941770125
c    -3.7182592    1.6908406    0.3351406  0.00   -0.0356412   -0.0124352    0.0055637
c    -2.4747167    2.5878163    0.2673680  0.00    0.0534678    0.2815958    0.0691595
c    -4.9289945    2.4225194   -0.2470707  0.00    0.0183225    0.0085418    0.0111783
h    -5.7862884    1.7346888   -0.3811221  0.00    0.0037507    0.0014751   -0.0036388
h    -4.6901397    2.8618296   -1.2355622  0.00   -0.0025283   -0.0004153    0.0048552
h    -5.2568184    3.2325218    0.4264301  0.00   -0.0014222   -0.0090623   -0.0059054
n    -3.4424937    0.4287920   -0.4070987  0.00    0.0417679   -0.0384237   -0.0067492
h    -3.9001261    1.4482392    1.3933737  0.00    0.0026266   -0.0099542   -0.0186502
h    -3.2658067   -0.3169932    0.2833957  0.00   -0.0142953    0.0206137   -0.0132798
h    -4.2939827    0.1255254   -0.9017077  0.00    0.0156484    0.0162990    0.0175880
o    -2.4255342    3.7693733    0.7070269  0.00   -0.0068652   -0.2096646   -0.0733998
o    -1.4122404    2.0005540   -0.3594496  0.00   -0.0542852   -0.0424549    0.0100610
h    -1.2346660    2.5665400   -1.1679928  0.00   -0.0205465   -0.0061152    0.0032175
    13
 Energy =       0.0875400599
c    -3.7117861    1.6934873    0.3373184  0.00   -0.0298104   -0.0103347    0.0048809
c    -2.4669366    2.5833940    0.2711969  0.00    0.0441471    0.2350787    0.0568837
c    -4.9215858    2.4262734   -0.2445227  0.00    0.0232429    0.0012883    0.0131001
h    -5.8250860    1.7650920   -0.2223689  0.00   -0.0063806   -0.0075637   -0.0018939
h    -4.7243246    2.7202065   -1.3080711  0.00    0.0016653    0.0021217   -0.0086552
h    -5.1467984    3.3478834    0.3472084  0.00   -0.0024420    0.0038897    0.0030336
n    -3.4520125    0.4313575   -0.4046363  0.00    0.0354919   -0.0312869   -0.0056501
h    -3.8929323    1.4604101    1.4003270  0.00    0.0020816   -0.0083237   -0.0154935
h    -3.2921178   -0.3236822    0.2842559  0.00   -0.0119325    0.0168625   -0.0108774
h    -4.3022393    0.1439993   -0.9181428  0.00    0.0123484    0.0139808    0.0142062
o    -2.4314300    3.7828099    0.7247420  0.00   -0.0060725   -0.1744758   -0.0612535
o    -1.3836023    2.0118431   -0.3399315  0.00   -0.0456285   -0.0432111    0.0190207
h    -1.2792149    2.5091725   -1.2146438  0.00   -0.0167105    0.0019743   -0.0073018
    13
 Energy =       0.0829855707
c    -3.6995016    1.7097344    0.3515870  0.00   -0.0210988   -0.0063674    0.0038792
c    -2.4462007    2.5822157    0.2755612  0.00    0.0309640    0.1659546    0.0383923
c    -4.9015850    2.4354099   -0.2642540  0.00    0.0163221    0.0007622    0.0092350
h    -5.8117074    1.7886641   -0.2189065  0.00   -0.0046639   -0.0056385   -0.0013025
h    -4.6980677    2.6910986   -1.3343264  0.00    0.0013234    0.0017577   -0.0067522
h    -5.1163196    3.3800080    0.2931225  0.00   -0.0019447    0.0034347    0.0025580
n    -3.4550292    0.4200725   -0.3425029  0.00    0.0277017   -0.0212611   -0.0056498
h    -3.8940079    1.5249346    1.4264571  0.00    0.0011812   -0.0058551   -0.0097088
h    -3.3437038   -0.3248204    0.3750768  0.00   -0.0082202    0.0098220   -0.0056219
h    -4.2863373    0.1396813   -0.8991448  0.00    0.0070593    0.0098441    0.0089126
o    -2.4192047    3.8144478    0.7312312  0.00   -0.0044831   -0.1220754   -0.0440747
o    -1.3501865    2.0327978   -0.3444018  0.00   -0.0272490   -0.0529833    0.0687506
h    -1.4082154    2.3580027   -1.3367681  0.00   -0.0168919    0.0226053   -0.0586178
    13
 Energy =       0.0802985267
c    -3.7214020    1.7251306    0.3596411  0.00   -0.0167273   -0.0035093    0.0038918
c    -2.4467776    2.5667513    0.3062961  0.00    0.0264686    0.1383563    0.0313149
c    -4.8750906    2.4442148   -0.3613751  0.00    0.0106289    0.0017087    0.0078918
h    -5.8016558    1.8217040   -0.3272573  0.00   -0.0044751   -0.0047762   -0.0007628
h    -4.6113953    2.6382399   -1.4335176  0.00    0.0018573    0.0022270   -0.0090706
h    -5.0971917    3.4227087    0.1343694  0.00   -0.0027405    0.0049561    0.0030582
n    -3.4716124    0.3927951   -0.2504265  0.00    0.0277315   -0.0181917   -0.0101576
h    -3.9806329    1.6079860    1.4354885  0.00   -0.0001602   -0.0051475   -0.0040101
h    -3.4288102   -0.3182606    0.5150279  0.00   -0.0063263    0.0038084    0.0003934
h    -4.2708006    0.1043665   -0.8531923  0.00    0.0038042    0.0078550    0.0057070
o    -2.4072675    3.8103497    0.7658674  0.00   -0.0035512   -0.1017838   -0.0366867
o    -1.3423515    2.0070242   -0.2951716  0.00   -0.0221932   -0.0444819    0.0577901
h    -1.3750786    2.3292368   -1.2830186  0.00   -0.0143167    0.0189789   -0.0493594
    13
 Energy =       0.0748285074
c    -3.7048056    1.6975120    0.3424493  0.00   -0.0053656    0.0015075    0.0039916
c    -2.4251241    2.5263712    0.2695997  0.00    0.0141968    0.0714876    0.0154584
c    -4.9018856    2.4676736   -0.2605520  0.00    0.0014047    0.0030813    0.0037627
h    -5.8356031    1.8635812   -0.1784060  0.00   -0.0040247   -0.0024931   -0.0005376
h    -4.7134110    2.6961328   -1.3405591  0.00    0.0015872    0.0013247   -0.0081639
h    -5.0641782    3.4310629    0.2855162  0.00   -0.0023941    0.0050360    0.0033051
n    -3.5208093    0.3973293   -0.3534141  0.00    0.0219412   -0.0084732   -0.0082659
h    -3.8940348    1.5296299    1.4312486  0.00   -0.0003613   -0.0021386    0.0020260
h    -3.5155516   -0.3769775    0.3562748  0.00   -0.0032978   -0.0038108    0.0042198
h    -4.3111632    0.1866448   -1.0099712  0.00   -0.0029016    0.0012089   -0.0022972
o    -2.3824737    3.7887806    0.7643220  0.00   -0.0017101   -0.0533698   -0.0179875
o    -1.2993487    1.9832849   -0.3190536  0.00   -0.0102600   -0.0242735    0.0375579
h    -1.2616779    2.3612211   -1.2747230  0.00   -0.0088146    0.0109130   -0.0330693
    13
 Energy =       0.0746578217
c    -3.7132455    1.6909295    0.3325554  0.00   -0.0051227    0.0015401    0.0040074
c    -2.4192175    2.5008298    0.2998395  0.00    0.0116158    0.0651141    0.0144722
c    -4.8941973    2.4948423   -0.2583405  0.00    0.0010933    0.0030589    0.0032329
h    -5.8366934    1.9022527   -0.1967879  0.00   -0.0038602   -0.0024684   -0.0004907
h    -4.6959002    2.7481829   -1.3305122  0.00    0.0013792    0.0013214   -0.0077302
h    -5.0449564    3.4466371    0.3104252  0.00   -0.0021462    0.0048851    0.0031386
n    -3.5436711    0.4075170   -0.3967907  0.00    0.0238966   -0.0038254   -0.0074988
h    -3.9144800    1.4959316    1.4149399  0.00   -0.0002915   -0.0019965    0.0023290
h    -3.6103137   -0.3915113    0.2861575  0.00   -0.0032202   -0.0074151    0.0072117
h    -4.3016010    0.2512119   -1.1097136  0.00   -0.0067084    0.0000391   -0.0060264
o    -2.3728011    3.7630357    0.8037344  0.00   -0.0012815   -0.0479858   -0.0161796
o    -1.2766616    1.9402835   -0.2422058  0.00   -0.0074214   -0.0225071    0.0342948
h    -1.2063278    2.3021045   -1.2005697  0.00   -0.0079329    0.0102395   -0.0307608
    13
 Energy =       0.0738028472
c    -3.7116659    1.6879449    0.3371372  0.00   -0.0055508    0.0017859    0.0046527
c    -2.4254422    2.5086358    0.2697726  0.00    0.0082882    0.0633463    0.0143967
c    -4.8993553    2.4712764   -0.2672480  0.00    0.0010944    0.0032476    0.0033122
h    -5.8407641    1.8801198   -0.1788122  0.00   -0.0039778   -0.0026335   -0.0004214
h    -4.7111702    2.6907760   -1.3490471  0.00    0.0013621    0.0014423   -0.0080491
h    -5.0465320    3.4397457    0.2740943  0.00   -0.0020515    0.0051331    0.0032694
n    -3.5404611    0.3888243   -0.3630602  0.00    0.0325559    0.0069833   -0.0087303
h    -3.9060136    1.5186595    1.4252991  0.00   -0.0003205   -0.0018294    0.0026838
h    -3.4881722   -0.3898012    0.3546928  0.00   -0.0023299   -0.0160762    0.0158016
h    -4.3641362    0.1614564   -0.9899919  0.00   -0.0167475   -0.0028244   -0.0138894
o    -2.3645839    3.7511211    0.8250385  0.00   -0.0020772   -0.0443675   -0.0143979
o    -1.3057866    1.9826306   -0.3562039  0.00   -0.0030247   -0.0303596    0.0421903
h    -1.2259833    2.4608576   -1.2689400  0.00   -0.0072208    0.0161519   -0.0408186
    13
 Energy =       0.0728418254
c    -3.7007887    1.6777899    0.3398190  0.00   -0.0050059    0.0017367    0.0047150
c    -2.4313437    2.5217827    0.2495619  0.00    0.0038220    0.0516780    0.0111333
c    -4.9084412    2.4357219   -0.2553547  0.00    0.0009012    0.0030140    0.0027278
h    -5.8392853    1.8321711   -0.1456724  0.00   -0.0036420   -0.0024047   -0.0003447
h    -4.7397505    2.6451358   -1.3413569  0.00    0.0011454    0.0013081   -0.0070084
h    -5.0608448    3.4074687    0.2768442  0.00   -0.0016834    0.0043953    0.0027836
n    -3.5196192    0.3748716   -0.3480328  0.00    0.0272940    0.0056842   -0.0073492
h    -3.8787023    1.5166803    1.4318909  0.00   -0.0002441   -0.0016078    0.0024141
h    -3.4563211   -0.3964321    0.3736535  0.00   -0.0019776   -0.0136703    0.0133768
h    -4.3395780    0.1342147   -0.9715116  0.00   -0.0142212   -0.0024078   -0.0118023
o    -2.3594851    3.7277428    0.8959207  0.00   -0.0032691   -0.0325342   -0.0081071
o    -1.3331264    2.0554890   -0.4647027  0.00    0.0026962   -0.0328203    0.0388676
h    -1.2627805    2.6196107   -1.3283276  0.00   -0.0058155    0.0176288   -0.0414063
    13
 Energy =       0.0711727904
c    -3.7426905    1.6818140    0.3221697  0.00   -0.0056115    0.0003172    0.0059224
c    -2.4305904    2.4695657    0.3024332  0.00    0.0022787    0.0458665    0.0110919
c    -4.8848901    2.5018860   -0.3255620  0.00   -0.0001601    0.0057193    0.0016965
h    -5.8535148    1.9521009   -0.2467726  0.00   -0.0055401   -0.0031187    0.0002131
h    -4.6628476    2.6924174   -1.4060797  0.00    0.0013759    0.0017457   -0.0076108
h    -5.0053483    3.4856371    0.1925139  0.00   -0.0018470    0.0046409    0.0024572
n    -3.5899603    0.3853050   -0.3814526  0.00    0.0354791    0.0166403   -0.0097498
h    -3.9851180    1.5113244    1.4018277  0.00   -0.0007284   -0.0021745    0.0041534
h    -3.3923028   -0.3753673    0.3376386  0.00    0.0014484   -0.0211466    0.0224389
h    -4.4854844    0.0999749   -0.8858588  0.00   -0.0270649   -0.0065439   -0.0188960
o    -2.3675040    3.7125676    0.8855692  0.00   -0.0049424   -0.0255279   -0.0052095
o    -1.2965700    1.9381586   -0.3141207  0.00    0.0095506   -0.0355275    0.0356567
h    -1.1332454    2.4968626   -1.1695745  0.00   -0.0042384    0.0191093   -0.0421641
    13
 Energy =       0.0694878926
c    -3.7759742    1.6747122    0.3009735  0.00   -0.0047539   -0.0022725    0.0036493
c    -2.4438554    2.4288339    0.3796470  0.00    0.0028108    0.0320954    0.0063750
c    -4.8578582    2.5365206   -0.3938437  0.00   -0.0010497    0.0056192    0.0005733
h    -5.8477123    2.0208522   -0.3595609  0.00   -0.0057276   -0.0030096    0.0003581
h    -4.5826225    2.7212433   -1.4625081  0.00    0.0012275    0.0017412   -0.0070793
h    -4.9668551    3.5213157    0.1221746  0.00   -0.0015678    0.0036239    0.0017779
n    -3.6208556    0.3950232   -0.4269737  0.00    0.0279642    0.0144411   -0.0088480
h    -4.0871669    1.4831320    1.3608547  0.00   -0.0012063   -0.0023710    0.0056444
h    -3.3614638   -0.3639571    0.2701429  0.00    0.0017761   -0.0180780    0.0191026
h    -4.5345873    0.0907071   -0.8775097  0.00   -0.0226125   -0.0053543   -0.0155123
o    -2.3715474    3.6373220    1.0443224  0.00   -0.0017388   -0.0146790   -0.0012740
o    -1.2957732    1.9072241   -0.2147065  0.00    0.0076298   -0.0277679    0.0302537
h    -1.0837946    2.4993177   -1.0302810  0.00   -0.0027517    0.0160115   -0.0350208
    13
 Energy =       0.0691847760
c    -3.7999953    1.6701829    0.2836097  0.00   -0.0044669   -0.0039370    0.0023371
c    -2.4565332    2.3920835    0.4520902  0.00    0.0033633    0.0243100    0.0031367
c    -4.8274716    2.5711685   -0.4426081  0.00   -0.0013590    0.0056653   -0.0000999
h    -5.8320904    2.0829158   -0.4538514  0.00   -0.0061595   -0.0031270    0.0003320
h    -4.5059117    2.7598400   -1.4974887  0.00    0.0012133    0.0018154   -0.0070570
h    -4.9291490    3.5518524    0.0815167  0.00   -0.0013471    0.0031847    0.0014915
n    -3.6396514    0.4087705   -0.4715010  0.00    0.0237149    0.0127116   -0.0087070
h    -4.1686580    1.4562493    1.3217336  0.00   -0.0015823   -0.0026497    0.0066635
h    -3.3411778   -0.3531747    0.2042655  0.00    0.0019746   -0.0163081    0.0171430
h    -4.5633341    0.0941671   -0.8887476  0.00   -0.0200352   -0.0046177   -0.0134336
o    -2.3811786    3.5543242    1.2030755  0.00    0.0001858   -0.0072147    0.0021368
o    -1.2984644    1.8859144   -0.1341213  0.00    0.0067930   -0.0233963    0.0254561
h    -1.0864511    2.4779530   -0.9452418  0.00   -0.0022950    0.0135635   -0.0293991
    13
 Energy =       0.0691503017
c    -3.8207559    1.6687887    0.2667515  0.00   -0.0041754   -0.0049571    0.0012368
c    -2.4707972    2.3539026    0.5231895  0.00    0.0037393    0.0178380    0.0005904
c    -4.7932117    2.6101976   -0.4815002  0.00   -0.0013828    0.0054054   -0.0006664
h    -5.8093511    2.1497163   -0.5391794  0.00   -0.0062575   -0.0031094    0.0002255
h    -4.4278431    2.8065947   -1.5201354  0.00    0.0011483    0.0018028   -0.0066875
h    -4.8876068    3.5839327    0.0556663  0.00   -0.0010569    0.0027323    0.0012235
n    -3.6563435    0.4280478   -0.5180021  0.00    0.0190279    0.0106910   -0.0083838
h    -4.2429164    1.4323706    1.2798901  0.00   -0.0018381   -0.0028251    0.0070665
h    -3.3189609   -0.3372098    0.1327130  0.00    0.0021391   -0.0141897    0.0148433
h    -4.5883313    0.1032604   -0.9018986  0.00   -0.0170235   -0.0037403   -0.0110639
o    -2.4002294    3.4688339    1.3488617  0.00    0.0016340   -0.0016726    0.0045016
o    -1.3011118    1.8611947   -0.0492311  0.00    0.0056167   -0.0203256    0.0216762
h    -1.1126076    2.4226169   -0.8843939  0.00   -0.0015711    0.0123503   -0.0245622
    13
 Energy =       0.0682008061
c    -3.8505658    1.6720821    0.2413493  0.00   -0.0037763   -0.0053401    0.0000379
c    -2.4970114    2.2948204    0.6149291  0.00    0.0040456    0.0090026   -0.0011547
c    -4.7409895    2.6727068   -0.5264889  0.00   -0.0008944    0.0044591   -0.0013469
h    -5.7688176    2.2550847   -0.6539508  0.00   -0.0059684   -0.0028304   -0.0001213
h    -4.3133896    2.8836415   -1.5368115  0.00    0.0009555    0.0016549   -0.0054848
h    -4.8247745    3.6326273    0.0346560  0.00   -0.0004005    0.0018268    0.0007242
n    -3.6881981    0.4631841   -0.5865820  0.00    0.0110901    0.0092877   -0.0083104
h    -4.3432585    1.4081185    1.2146225  0.00   -0.0020264   -0.0029838    0.0064107
h    -3.2687983   -0.2993096    0.0151818  0.00    0.0036948   -0.0115162    0.0118251
h    -4.6348357    0.1114680   -0.8949420  0.00   -0.0132358   -0.0022938   -0.0069226
o    -2.4427888    3.3605830    1.5076148  0.00    0.0029445    0.0029262    0.0049202
o    -1.3091484    1.8049761    0.0822416  0.00    0.0036695   -0.0151839    0.0163681
h    -1.1474904    2.2922640   -0.7990884  0.00   -0.0000981    0.0109908   -0.0169457
    13
 Energy =       0.0668298648
c    -3.8777934    1.6812009    0.2184111  0.00   -0.0016755    0.0001549    0.0016074
c    -2.5286396    2.2507958    0.6544952  0.00   -0.0018613    0.0008446    0.0011433
c    -4.7087548    2.7234251   -0.5446107  0.00    0.0004662    0.0003072    0.0002424
h    -5.7327882    2.3345140   -0.7384249  0.00   -0.0017532   -0.0009413   -0.0001080
h    -4.2297091    2.9604834   -1.5215153  0.00    0.0002814    0.0004267   -0.0016914
h    -4.7977076    3.6625921    0.0475830  0.00    0.0003107    0.0004841    0.0003494
n    -3.7308057    0.4981441   -0.6425598  0.00    0.0051151    0.0106076   -0.0058489
h    -4.4086452    1.4058952    1.1609633  0.00   -0.0000610   -0.0007113    0.0004779
h    -3.1981016   -0.2430326   -0.1106410  0.00    0.0059717   -0.0082224    0.0081260
h    -4.6845899    0.0951470   -0.8382066  0.00   -0.0106557   -0.0018540   -0.0026311
o    -2.4906168    3.3417771    1.5129120  0.00   -0.0012312    0.0007462    0.0003267
o    -1.3296893    1.7077939    0.2024769  0.00    0.0049563   -0.0044192    0.0013059
h    -1.1122254    2.1335109   -0.6881518  0.00    0.0001367    0.0025768   -0.0032996
    13
 Energy =       0.0665280870
c    -3.8841599    1.6843785    0.1988463  0.00   -0.0001796    0.0010551    0.0011829
c    -2.5387058    2.2443695    0.6577325  0.00   -0.0066547    0.0029809    0.0017151
c    -4.7249018    2.7533203   -0.5144720  0.00   -0.0003490   -0.0007695    0.0001893
h    -5.7364268    2.3570265   -0.7476898  0.00   -0.0004986   -0.0005413    0.0000210
h    -4.2346554    3.0561971   -1.4679127  0.00    0.0008889    0.0006354   -0.0019394
h    -4.8418958    3.6563541    0.1296224  0.00   -0.0001521    0.0018630    0.0012260
n    -3.7328188    0.5416940   -0.7173945  0.00   -0.0005884   -0.0005802   -0.0032222
h    -4.4101333    1.3642028    1.1301682  0.00   -0.0003482   -0.0002094    0.0009482
h    -3.1599070   -0.2019627   -0.2455848  0.00    0.0011850   -0.0021663    0.0015685
h    -4.6731237    0.1135254   -0.8885095  0.00   -0.0001176    0.0003495   -0.0000041
o    -2.5002606    3.3762997    1.4635169  0.00   -0.0011425    0.0021283    0.0015942
o    -1.3401945    1.6239140    0.3085463  0.00    0.0060773   -0.0074423    0.0032903
h    -1.0528830    1.9829279   -0.5941381  0.00    0.0018794    0.0026968   -0.0065698
    13
 Energy =       0.0664178510
c    -3.8726156    1.6792155    0.1911095  0.00    0.0007177    0.0000162    0.0003756
c    -2.5269940    2.2520511    0.6352714  0.00    0.0018333   -0.0008404   -0.0004535
c    -4.7597677    2.7534090   -0.4574875  0.00   -0.0013762    0.0006789   -0.0000504
h    -5.7654098    2.3412296   -0.6854331  0.00   -0.0000862    0.0001699    0.0001015
h    -4.2995442    3.1095836   -1.4062870  0.00    0.0005128    0.0003212   -0.0009898
h    -4.8866078    3.6242782    0.2251077  0.00   -0.0003504    0.0005832    0.0001770
n    -3.7200990    0.5773259   -0.7727800  0.00    0.0002847    0.0004487   -0.0015623
h    -4.3649445    1.3103415    1.1231629  0.00   -0.0006403   -0.0003382    0.0012185
h    -3.1127441   -0.1678173   -0.3499414  0.00    0.0012036   -0.0015144    0.0007072
h    -4.6537051    0.1284209   -0.9294171  0.00   -0.0005650   -0.0002685    0.0000737
o    -2.4846385    3.4003366    1.4146282  0.00    0.0002753   -0.0002097   -0.0000134
o    -1.3354670    1.6155006    0.3197064  0.00   -0.0016846    0.0007645    0.0000118
h    -1.0475295    1.9283717   -0.5949085  0.00   -0.0001246    0.0001886    0.0004041
    13
 Energy =       0.0663954997
c    -3.8622761    1.6820878    0.1935214  0.00    0.0005118   -0.0006863   -0.0000771
c    -2.5126393    2.2735389    0.6019212  0.00    0.0008277   -0.0010199   -0.0007039
c    -4.7835857    2.7434575   -0.4277327  0.00   -0.0009186    0.0005728   -0.0000109
h    -5.7879788    2.3155823   -0.6327844  0.00   -0.0004113   -0.0000088    0.0000045
h    -4.3528999    3.1123676   -1.3853296  0.00    0.0004070    0.0003192   -0.0008436
h    -4.9075969    3.6086378    0.2620855  0.00   -0.0002191    0.0002786    0.0001021
n    -3.7195655    0.5851153   -0.7768725  0.00    0.0002624    0.0003118   -0.0008300
h    -4.3230673    1.3035465    1.1374199  0.00   -0.0005036   -0.0003339    0.0009887
h    -3.1025824   -0.1578328   -0.3658296  0.00    0.0006125   -0.0007283    0.0003739
h    -4.6527743    0.1312204   -0.9204419  0.00   -0.0003883   -0.0001584    0.0000151
o    -2.4618627    3.4544618    1.3330410  0.00    0.0002138    0.0017360    0.0012013
o    -1.3248564    1.6157280    0.3120921  0.00   -0.0008399   -0.0008700    0.0013404
h    -1.0383814    1.8843358   -0.6183591  0.00    0.0004455    0.0005872   -0.0015605
    13
 Energy =       0.0663828243
c    -3.8623102    1.6824933    0.1855917  0.00   -0.0000123    0.0002410    0.0002013
c    -2.5146442    2.2698073    0.6045766  0.00   -0.0008345    0.0004899    0.0000907
c    -4.7862617    2.7509249   -0.4164863  0.00    0.0000483   -0.0000911    0.0000009
h    -5.7880776    2.3229519   -0.6318389  0.00    0.0000007   -0.0000456   -0.0000047
h    -4.3556162    3.1400158   -1.3651730  0.00    0.0000321    0.0000473   -0.0001240
h    -4.9145829    3.6021949    0.2895007  0.00    0.0000062    0.0001562    0.0001221
n    -3.7164291    0.6029297   -0.8034431  0.00    0.0000224   -0.0000795   -0.0002395
h    -4.3215549    1.2864722    1.1218107  0.00    0.0000010   -0.0000158    0.0000671
h    -3.1066322   -0.1495596   -0.4005811  0.00    0.0000219   -0.0000610    0.0000519
h    -4.6497899    0.1549171   -0.9629590  0.00   -0.0001433   -0.0001486   -0.0000549
o    -2.4649563    3.4629120    1.3137573  0.00   -0.0002031    0.0001396    0.0001087
o    -1.3282538    1.5919497    0.3542240  0.00    0.0008533   -0.0008401    0.0004857
h    -1.0209574    1.8342378   -0.5762481  0.00    0.0002073    0.0002076   -0.0007052
    13
 Energy =       0.0663816275
c    -3.8603429    1.6815108    0.1846527  0.00    0.0000234    0.0000098    0.0000261
c    -2.5119871    2.2694547    0.6007184  0.00    0.0000052   -0.0000072   -0.0000059
c    -4.7903853    2.7511497   -0.4060913  0.00   -0.0000407    0.0000069   -0.0000034
h    -5.7918057    2.3217417   -0.6203216  0.00   -0.0000038    0.0000020    0.0000015
h    -4.3647897    3.1483915   -1.3535847  0.00    0.0000155    0.0000163   -0.0000397
h    -4.9184943    3.5968974    0.3062881  0.00   -0.0000112    0.0000284    0.0000189
n    -3.7161211    0.6087832   -0.8118325  0.00   -0.0000034   -0.0000145   -0.0000557
h    -4.3139887    1.2782304    1.1204728  0.00   -0.0000140   -0.0000105    0.0000381
h    -3.1046721   -0.1458597   -0.4156191  0.00    0.0000232   -0.0000325    0.0000142
h    -4.6494536    0.1610800   -0.9716752  0.00   -0.0000001   -0.0000043    0.0000001
o    -2.4601528    3.4644892    1.3063404  0.00    0.0000012    0.0000101    0.0000091
o    -1.3271652    1.5895450    0.3524787  0.00   -0.0000024   -0.0000124    0.0000162
h    -1.0207080    1.8268330   -0.5790953  0.00    0.0000072    0.0000079   -0.0000195
    13
 Energy =       0.0663816166
c    -3.8602602    1.6815919    0.1845434  0.00    0.0000001   -0.0000001    0.0000000
c    -2.5119405    2.2697261    0.6004587  0.00   -0.0000005   -0.0000001   -0.0000002
c    -4.7906234    2.7510857   -0.4058336  0.00   -0.0000001    0.0000000   -0.0000000
h    -5.7919604    2.3214844   -0.6200557  0.00   -0.0000000   -0.0000000    0.0000000
h    -4.3652372    3.1486542   -1.3532352  0.00    0.0000000    0.0000000   -0.0000001
h    -4.9188368    3.5966127    0.3067375  0.00   -0.0000000    0.0000000    0.0000000
n    -3.7160048    0.6090790   -0.8121177  0.00    0.0000000   -0.0000000   -0.0000000
h    -4.3136441    1.2780660    1.1203389  0.00   -0.0000000   -0.0000000    0.0000000
h    -3.1045895   -0.1456162   -0.4160186  0.00    0.0000000   -0.0000000    0.0000000
h    -4.6493238    0.1613888   -0.9720792  0.00   -0.0000000   -0.0000000   -0.0000000
o    -2.4600865    3.4653977    1.3049910  0.00   -0.0000002    0.0000009    0.0000005
o    -1.3271893    1.5892859    0.3533602  0.00    0.0000004   -0.0000010    0.0000007
h    -1.0203701    1.8254907   -0.5783583  0.00    0.0000003    0.0000003   -0.0000010
    13
 Energy =       0.0663816166
c    -3.8602595    1.6815926    0.1845425  0.00    0.0000000   -0.0000000    0.0000000
c    -2.5119399    2.2697283    0.6004565  0.00   -0.0000000   -0.0000000   -0.0000000
c    -4.7906256    2.7510854   -0.4058315  0.00   -0.0000000    0.0000000   -0.0000000
h    -5.7919619    2.3214825   -0.6200534  0.00   -0.0000000   -0.0000000   -0.0000000
h    -4.3652412    3.1486568   -1.3532326  0.00    0.0000000    0.0000000   -0.0000000
h    -4.9188401    3.5966107    0.3067414  0.00   -0.0000000    0.0000000   -0.0000000
n    -3.7160037    0.6090812   -0.8121202  0.00    0.0000000   -0.0000000   -0.0000000
h    -4.3136410    1.2780646    1.1203381  0.00   -0.0000000   -0.0000000    0.0000000
h    -3.1045885   -0.1456145   -0.4160220  0.00    0.0000000   -0.0000000    0.0000000
h    -4.6493225    0.1613912   -0.9720827  0.00   -0.0000000   -0.0000000    0.0000000
o    -2.4600855    3.4654049    1.3049792  0.00   -0.0000000    0.0000000    0.0000000
o    -1.3271896    1.5892842    0.3533678  0.00    0.0000000   -0.0000000    0.0000000
h    -1.0203676    1.8254793   -0.5783515  0.00    0.0000000    0.0000000   -0.0000000
