    27
 Energy =       0.3357190851
c    -1.4235396    2.6054793   -0.0667700  0.00   -0.0462285    0.0384435    0.0023428
c    -1.3072796    1.2134697   -0.1072300  0.00   -0.0852953   -0.0325602    0.0017511
c    -0.0178900    0.6711998   -0.1697000  0.00   -0.0894669   -0.1883222   -0.0000202
c    -0.2940599    3.4190890   -0.0891300  0.00   -0.0221931    0.0692221    0.0022395
c     0.9872197    2.8590292   -0.1560400  0.00    0.0149218    0.0655138   -0.0023777
c     1.1340797    1.4562096   -0.1970299  0.00    0.0527135    0.0508573    0.0026439
n     0.3879399   -0.6395298   -0.2140799  0.00    0.1447510    0.1108226   -0.0057519
c     2.2666594    0.5727398   -0.2659299  0.00    0.1508899   -0.0827873    0.0062943
c     1.7555995   -0.7123598   -0.2706899  0.00   -0.1002742   -0.0971626    0.0040209
h    -0.2400399   -1.4313496   -0.2047299  0.00    0.0365334    0.0476813    0.0001548
c     3.7030089    1.0223397   -0.3320099  0.00   -0.0104043    0.0524262   -0.0071476
c     4.2197688    1.4064496   -1.7267995  0.00    0.0576483   -0.0471342    0.0507223
h     4.3261788    0.2093419    0.0639454  0.00   -0.0089844    0.0104661   -0.0003440
h     3.8370289    1.8640295    0.3610799  0.00   -0.0047440   -0.0104503   -0.0100373
c     3.6319390    2.7753292   -2.1168494  0.00   -0.0137356    0.3260149    0.1253362
n     3.8331589    0.4251339   -2.8019292  0.00   -0.0356385    0.0373645   -0.1233994
h     5.3112285    1.5100896   -1.7329195  0.00   -0.0184642   -0.0108298   -0.0181570
h     3.2153791    0.9204687   -3.4531490  0.00   -0.0229007    0.4738732    0.0821511
h     4.6719087    0.2293189   -3.3596190  0.00   -0.0240333    0.0131193    0.0201755
h    -2.4108593    3.0588691   -0.0157800  0.00   -0.0009177    0.0002682    0.0003082
h    -2.1896094    0.5822398   -0.0890100  0.00   -0.0036141    0.0036610    0.0002927
h    -0.4052699    4.5000487   -0.0535400  0.00    0.0005659    0.0000177    0.0009974
h     1.8590495    3.5066790   -0.1715100  0.00    0.0118073    0.0029305   -0.0079159
h     2.2327294   -1.6813195   -0.3062999  0.00   -0.0412500   -0.0122648    0.0037176
o     3.7357489    3.8032989   -1.4684596  0.00   -0.0446652   -0.2524526   -0.1405394
o     2.9666192    2.7051892   -3.3013391  0.00    0.0982760   -0.5351213   -0.0125090
h     3.4515890    3.3259391   -3.9047289  0.00    0.0047028   -0.0335969    0.0250511
    27
 Energy =       0.3107031498
c    -1.4680078    2.5654493   -0.1549444  0.00   -0.0408012    0.0341029    0.0021011
c    -1.3410311    1.1780655   -0.1820061  0.00   -0.0754081   -0.0289378    0.0015497
c    -0.0536603    0.6460198   -0.2434668  0.00   -0.0794283   -0.1640595   -0.0006480
c    -0.3466791    3.3846099   -0.1825365  0.00   -0.0195890    0.0612370    0.0020556
c     0.9339089    2.8337391   -0.2410430  0.00    0.0131763    0.0579180   -0.0020217
c     1.0859777    1.4376456   -0.2722030  0.00    0.0458215    0.0453861    0.0024362
n     0.3574662   -0.6715938   -0.2286614  0.00    0.1281944    0.0959245   -0.0044818
c     2.2216827    0.5734173   -0.3063022  0.00    0.1307712   -0.0730960    0.0053477
c     1.7331721   -0.7149841   -0.2847782  0.00   -0.0891716   -0.0839734    0.0031120
h    -0.2599370   -1.4767098   -0.1946944  0.00    0.0319721    0.0415006    0.0003643
c     3.6612831    1.0286845   -0.2862595  0.00   -0.0077954    0.0454276   -0.0046020
c     4.2559889    1.4390436   -1.6449773  0.00    0.0506683   -0.0398010    0.0448204
h     4.2679522    0.2105979    0.1300364  0.00   -0.0076634    0.0091041    0.0000215
h     3.7537635    1.8591627    0.4314170  0.00   -0.0039945   -0.0086001   -0.0077360
c     3.6883513    2.8070901   -2.0502142  0.00   -0.0120636    0.2881384    0.1107980
n     3.9385041    0.4669331   -2.7472126  0.00   -0.0356525    0.0315233   -0.1098007
h     5.3485034    1.5472967   -1.5741664  0.00   -0.0135803   -0.0090921   -0.0155706
h     3.3135058    0.9557239   -3.4012830  0.00   -0.0204699    0.4226949    0.0732106
h     4.8017216    0.3348435   -3.2954975  0.00   -0.0180503    0.0111901    0.0155212
h    -2.4585137    3.0119888   -0.1057606  0.00   -0.0008368    0.0002585    0.0002752
h    -2.2173068    0.5389736   -0.1474392  0.00   -0.0033298    0.0031063    0.0002845
h    -0.4651393    4.4651722   -0.1551078  0.00    0.0005038    0.0000766    0.0008858
h     1.7999431    3.4872404   -0.2561600  0.00    0.0095805    0.0024635   -0.0065646
h     2.2442462   -1.6691814   -0.2567064  0.00   -0.0352230   -0.0132094    0.0033615
o     3.8004900    3.8466717   -1.3848945  0.00   -0.0385302   -0.2229721   -0.1244715
o     3.0489032    2.7563409   -3.2555404  0.00    0.0840081   -0.4791220   -0.0097450
h     3.5931972    3.3351817   -3.8598452  0.00    0.0068917   -0.0271892    0.0194968
    27
 Energy =       0.2560972991
c    -1.4554344    2.4699496   -0.0969430  0.00   -0.0240912    0.0208638    0.0011174
c    -1.2970469    1.0978736   -0.1190020  0.00   -0.0455974   -0.0172349    0.0005503
c    -0.0165753    0.5975148   -0.1964285  0.00   -0.0483489   -0.0986123   -0.0027214
c    -0.3584276    3.3054506   -0.1357752  0.00   -0.0113633    0.0369849    0.0011310
c     0.9185100    2.7827205   -0.2071452  0.00    0.0086456    0.0345968   -0.0013350
c     1.0846460    1.4086154   -0.2500128  0.00    0.0263860    0.0287758    0.0014761
n     0.4051517   -0.7350041   -0.1599379  0.00    0.0706602    0.0580641    0.0020156
c     2.2240966    0.6059463   -0.3176728  0.00    0.0800363   -0.0432463    0.0043304
c     1.8003381   -0.6904266   -0.2996153  0.00   -0.0512257   -0.0461079   -0.0009267
h    -0.1829389   -1.5759463   -0.0788449  0.00    0.0177920    0.0219121    0.0013158
c     3.6624142    1.0842462   -0.3351908  0.00   -0.0049150    0.0272828   -0.0028819
c     4.2056954    1.5306405   -1.7076077  0.00    0.0301317   -0.0234975    0.0265437
h     4.3021705    0.2621254    0.0363573  0.00   -0.0037571    0.0044299    0.0003152
h     3.7729083    1.9041218    0.3990663  0.00   -0.0024565   -0.0050627   -0.0043034
c     3.6307199    2.8875589   -2.0959686  0.00   -0.0003056    0.1741839    0.0620511
n     3.8802295    0.5483925   -2.7820538  0.00   -0.0220556    0.0205759   -0.0656014
h     5.3027569    1.6587619   -1.6481509  0.00   -0.0079030   -0.0053479   -0.0094553
h     3.2298511    1.0264028   -3.4418974  0.00   -0.0165006    0.2911216    0.0458742
h     4.7393119    0.3793538   -3.3386457  0.00   -0.0101543    0.0064347    0.0086715
h    -2.4547343    2.8952484   -0.0367790  0.00   -0.0008012    0.0003295    0.0001661
h    -2.1555268    0.4359067   -0.0660663  0.00   -0.0025049    0.0015998    0.0001987
h    -0.4972854    4.3838718   -0.1059430  0.00    0.0003358    0.0002647    0.0005314
h     1.7694039    3.4507571   -0.2176696  0.00    0.0056078    0.0013776   -0.0036720
h     2.4029993   -1.5953176   -0.3256396  0.00   -0.0172197   -0.0120296    0.0014575
o     3.7346082    3.9473331   -1.3527179  0.00   -0.0242382   -0.1339911   -0.0732520
o     2.9425874    2.8836738   -3.2857964  0.00   -0.0059231   -0.3514925    0.0380915
h     3.6478569    3.2276518   -3.9841665  0.00    0.0597658    0.0078249   -0.0316884
    27
 Energy =       0.2519627789
c    -1.4588958    2.4908533   -0.1387415  0.00   -0.0237088    0.0202915    0.0010867
c    -1.3115756    1.1183939   -0.1853397  0.00   -0.0445605   -0.0172218    0.0005501
c    -0.0345706    0.6091393   -0.2461900  0.00   -0.0465518   -0.0943546   -0.0025863
c    -0.3543603    3.3178443   -0.1424709  0.00   -0.0107822    0.0363594    0.0010869
c     0.9194202    2.7858886   -0.1975174  0.00    0.0087388    0.0339559   -0.0013216
c     1.0736815    1.4116045   -0.2586572  0.00    0.0259877    0.0284752    0.0014280
n     0.3709342   -0.7300250   -0.2614409  0.00    0.0666547    0.0552423    0.0019368
c     2.2068382    0.6018373   -0.3132926  0.00    0.0783756   -0.0415566    0.0041802
c     1.7739257   -0.6915896   -0.3326838  0.00   -0.0477012   -0.0442295   -0.0009537
h    -0.2292971   -1.5683767   -0.2375980  0.00    0.0156522    0.0190913    0.0013101
c     3.6481378    1.0692359   -0.2925879  0.00   -0.0044477    0.0267805   -0.0026197
c     4.2196858    1.5173730   -1.6525230  0.00    0.0293107   -0.0227541    0.0257047
h     4.2739006    0.2401905    0.0882671  0.00   -0.0035194    0.0042287    0.0004086
h     3.7483951    1.8854373    0.4475935  0.00   -0.0023607   -0.0048954   -0.0040991
c     3.6543771    2.8755815   -2.0486546  0.00   -0.0002807    0.1692566    0.0604099
n     3.9115029    0.5370377   -2.7333516  0.00   -0.0216363    0.0199547   -0.0639089
h     5.3159727    1.6423564   -1.5706737  0.00   -0.0074449   -0.0051703   -0.0091720
h     3.2660193    1.0139418   -3.3994347  0.00   -0.0160998    0.2833725    0.0446024
h     4.7782717    0.3749722   -3.2806861  0.00   -0.0097500    0.0062308    0.0083448
h    -2.4559428    2.9233341   -0.0922387  0.00   -0.0009442    0.0002806    0.0001661
h    -2.1769879    0.4623860   -0.1702722  0.00   -0.0030435    0.0010398    0.0002018
h    -0.4849466    4.3969245   -0.0981339  0.00    0.0003946    0.0004188    0.0005222
h     1.7778531    3.4464473   -0.1839876  0.00    0.0058226    0.0015892   -0.0035985
h     2.3727006   -1.5992398   -0.3559100  0.00   -0.0167948   -0.0117739    0.0014414
o     3.7696350    3.9412005   -1.3112139  0.00   -0.0236394   -0.1302162   -0.0712277
o     2.9784750    2.8755104   -3.2460116  0.00   -0.0059088   -0.3420241    0.0370236
h     3.6851363    3.2291634   -3.9364962  0.00    0.0582377    0.0076286   -0.0309170
    27
 Energy =       0.2449361288
c    -1.4655927    2.4995600   -0.1832039  0.00   -0.0223870    0.0189174    0.0010181
c    -1.3243477    1.1285376   -0.2548549  0.00   -0.0417617   -0.0165023    0.0005529
c    -0.0506458    0.6143468   -0.3005724  0.00   -0.0430532   -0.0868239   -0.0020924
c    -0.3572200    3.3203092   -0.1517877  0.00   -0.0097931    0.0342793    0.0009960
c     0.9137633    2.7827863   -0.1911751  0.00    0.0084545    0.0319947   -0.0012695
c     1.0599263    1.4102708   -0.2721902  0.00    0.0245252    0.0270069    0.0013153
n     0.3441733   -0.7286667   -0.3647844  0.00    0.0603552    0.0506071    0.0014379
c     2.1878901    0.5984328   -0.3139055  0.00    0.0734946   -0.0383400    0.0038562
c     1.7523220   -0.6921663   -0.3708607  0.00   -0.0427136   -0.0408069   -0.0006774
h    -0.2628106   -1.5648531   -0.3963511  0.00    0.0130924    0.0158145    0.0010694
c     3.6304688    1.0576874   -0.2498734  0.00   -0.0037477    0.0252142   -0.0021702
c     4.2339108    1.5114449   -1.5939694  0.00    0.0273501   -0.0210404    0.0238900
h     4.2428596    0.2221135    0.1398668  0.00   -0.0031564    0.0038788    0.0004914
h     3.7168057    1.8689107    0.4983210  0.00   -0.0021655   -0.0045069   -0.0036793
c     3.6795928    2.8708149   -1.9979076  0.00   -0.0002749    0.1579375    0.0564510
n     3.9493415    0.5332850   -2.6819657  0.00   -0.0205228    0.0185139   -0.0598451
h     5.3286449    1.6347043   -1.4840232  0.00   -0.0065797   -0.0047752   -0.0085077
h     3.3062761    1.0067158   -3.3544880  0.00   -0.0151415    0.2652673    0.0416691
h     4.8250772    0.3834114   -3.2198321  0.00   -0.0088810    0.0057734    0.0076438
h    -2.4613159    2.9363333   -0.1493253  0.00   -0.0010124    0.0002155    0.0001562
h    -2.1933165    0.4765152   -0.2763712  0.00   -0.0033846    0.0005018    0.0001734
h    -0.4829641    4.3993315   -0.0920117  0.00    0.0004409    0.0005429    0.0004942
h     1.7769169    3.4378758   -0.1524437  0.00    0.0057718    0.0017246   -0.0033795
h     2.3527042   -1.5987943   -0.3904555  0.00   -0.0156995   -0.0110310    0.0013900
o     3.7997415    3.9415855   -1.2585419  0.00   -0.0220882   -0.1215311   -0.0664765
o     3.0162444    2.8783554   -3.2033107  0.00   -0.0056961   -0.3199468    0.0345619
h     3.7198398    3.2485746   -3.8842297  0.00    0.0545742    0.0071148   -0.0290692
    27
 Energy =       0.2337979552
c    -1.4763085    2.4912736   -0.2320088  0.00   -0.0197194    0.0163637    0.0008896
c    -1.3346757    1.1240744   -0.3310746  0.00   -0.0363907   -0.0147662    0.0005706
c    -0.0639130    0.6103114   -0.3626065  0.00   -0.0371648   -0.0745614   -0.0012440
c    -0.3687168    3.3087653   -0.1623976  0.00   -0.0081558    0.0301030    0.0008267
c     0.9000410    2.7705273   -0.1862002  0.00    0.0076298    0.0281190   -0.0011721
c     1.0429999    1.4025392   -0.2915729  0.00    0.0215272    0.0238116    0.0010872
n     0.3263592   -0.7344769   -0.4714718  0.00    0.0508981    0.0432184    0.0005701
c     2.1672817    0.5956650   -0.3214135  0.00    0.0639109   -0.0327854    0.0032627
c     1.7378100   -0.6924960   -0.4185893  0.00   -0.0358395   -0.0351824   -0.0001536
h    -0.2813347   -1.5701289   -0.5551042  0.00    0.0100544    0.0119825    0.0006349
c     3.6088344    1.0503700   -0.2074659  0.00   -0.0027445    0.0220516   -0.0014732
c     4.2483921    1.5162121   -1.5308636  0.00    0.0237052   -0.0178365    0.0206898
h     4.2089983    0.2083734    0.1896378  0.00   -0.0026244    0.0033157    0.0005432
h     3.6766001    1.8542059    0.5520024  0.00   -0.0018288   -0.0037791   -0.0029404
c     3.7063101    2.8765438   -1.9419544  0.00   -0.0001258    0.1369809    0.0487808
n     3.9969575    0.5407448   -2.6270562  0.00   -0.0184158    0.0158215   -0.0522811
h     5.3401648    1.6403235   -1.3849575  0.00   -0.0051175   -0.0040537   -0.0072709
h     3.3522277    1.0066734   -3.3063512  0.00   -0.0134997    0.2328083    0.0363265
h     4.8833040    0.4110695   -3.1553127  0.00   -0.0072651    0.0049468    0.0063645
h    -2.4721525    2.9284587   -0.2100607  0.00   -0.0009919    0.0001343    0.0001353
h    -2.2031938    0.4730876   -0.3892639  0.00   -0.0034637   -0.0000337    0.0001179
h    -0.4940756    4.3867813   -0.0841832  0.00    0.0004747    0.0006676    0.0004394
h     1.7643093    3.4227045   -0.1179247  0.00    0.0053687    0.0017888   -0.0029289
h     2.3476676   -1.5926504   -0.4363766  0.00   -0.0136206   -0.0096374    0.0012827
o     3.8187982    3.9510160   -1.1876918  0.00   -0.0192528   -0.1054417   -0.0574193
o     3.0564746    2.8981527   -3.1563131  0.00   -0.0053961   -0.2802104    0.0302613
h     3.7491260    3.2993014   -3.8236725  0.00    0.0480477    0.0061741   -0.0258997
    27
 Energy =       0.2207504249
c    -1.4940837    2.4598240   -0.2876460  0.00   -0.0162505    0.0130506    0.0007142
c    -1.3430922    1.0989955   -0.4182990  0.00   -0.0293961   -0.0123955    0.0005901
c    -0.0733737    0.5930387   -0.4355120  0.00   -0.0299627   -0.0596493   -0.0003620
c    -0.3933602    3.2787277   -0.1734582  0.00   -0.0060268    0.0246362    0.0006175
c     0.8750559    2.7467012   -0.1809088  0.00    0.0064512    0.0230586   -0.0010361
c     1.0230446    1.3861960   -0.3176579  0.00    0.0175546    0.0194171    0.0007697
n     0.3212186   -0.7508435   -0.5828567  0.00    0.0397608    0.0341934   -0.0002847
c     2.1472648    0.5924732   -0.3372680  0.00    0.0512003   -0.0257030    0.0025282
c     1.7342953   -0.6941037   -0.4793878  0.00   -0.0282369   -0.0283677    0.0003439
h    -0.2800441   -1.5887062   -0.7138573  0.00    0.0069944    0.0081222    0.0001627
c     3.5840726    1.0485272   -0.1658495  0.00   -0.0015840    0.0177554   -0.0005734
c     4.2644279    1.5361092   -1.4616943  0.00    0.0189584   -0.0134069    0.0167432
h     4.1743476    0.2008619    0.2365368  0.00   -0.0020075    0.0026378    0.0005515
h     3.6262641    1.8413047    0.6089467  0.00   -0.0014061   -0.0027549   -0.0019103
c     3.7334421    2.8973456   -1.8774404  0.00    0.0005362    0.1091032    0.0378585
n     4.0592474    0.5656287   -2.5691216  0.00   -0.0159254    0.0120345   -0.0425015
h     5.3505687    1.6651998   -1.2709231  0.00   -0.0031741   -0.0030735   -0.0056106
h     3.4067393    1.0183893   -3.2539681  0.00   -0.0115887    0.1917778    0.0294249
h     4.9574615    0.4701769   -3.0884495  0.00   -0.0048136    0.0038708    0.0045186
h    -2.4923090    2.8918435   -0.2775636  0.00   -0.0009270    0.0000602    0.0001068
h    -2.2061089    0.4448796   -0.5148850  0.00   -0.0033601   -0.0005608    0.0000396
h    -0.5249260    4.3542462   -0.0717271  0.00    0.0005105    0.0008729    0.0003788
h     1.7350907    3.3997359   -0.0755655  0.00    0.0047860    0.0018804   -0.0022860
h     2.3616351   -1.5820381   -0.4989630  0.00   -0.0108600   -0.0079095    0.0011196
o     3.8131636    3.9699923   -1.0910787  0.00   -0.0158271   -0.0838852   -0.0446997
o     3.1023951    2.9397540   -3.1033507  0.00   -0.0059168   -0.2301530    0.0254533
h     3.7758489    3.3931628   -3.7482990  0.00    0.0405109    0.0053881   -0.0226568
    27
 Energy =       0.2118751091
c    -1.5220308    2.3994999   -0.3448559  0.00   -0.0139897    0.0106723    0.0005665
c    -1.3495266    1.0468179   -0.5109628  0.00   -0.0244232   -0.0109198    0.0005285
c    -0.0756864    0.5586601   -0.5139554  0.00   -0.0249384   -0.0490629    0.0001107
c    -0.4359436    3.2277078   -0.1809334  0.00   -0.0042785    0.0209370    0.0005371
c     0.8368274    2.7119830   -0.1721666  0.00    0.0056461    0.0196375   -0.0008606
c     1.0037440    1.3607961   -0.3463409  0.00    0.0147815    0.0161314    0.0005506
n     0.3375344   -0.7785403   -0.6968744  0.00    0.0318061    0.0274937   -0.0007796
c     2.1357937    0.5878656   -0.3588351  0.00    0.0418544   -0.0203741    0.0020971
c     1.7492518   -0.6989402   -0.5490757  0.00   -0.0229606   -0.0237731    0.0005459
h    -0.2484642   -1.6218129   -0.8726105  0.00    0.0047129    0.0051523   -0.0002391
c     3.5624306    1.0557440   -0.1283403  0.00   -0.0007325    0.0143995    0.0002327
c     4.2823890    1.5771561   -1.3909386  0.00    0.0154491   -0.0094837    0.0140842
h     4.1488642    0.2055657    0.2760466  0.00   -0.0015755    0.0021718    0.0005228
h     3.5709731    1.8332285    0.6647594  0.00   -0.0011073   -0.0017545   -0.0008751
c     3.7527256    2.9386089   -1.8045203  0.00    0.0016308    0.0865137    0.0278062
n     4.1334879    0.6180734   -2.5156986  0.00   -0.0150706    0.0082012   -0.0350837
h     5.3595003    1.7169870   -1.1533586  0.00   -0.0015146   -0.0022151   -0.0042833
h     3.4618824    1.0519273   -3.1974664  0.00   -0.0104445    0.1608738    0.0241940
h     5.0401504    0.5794092   -3.0326403  0.00   -0.0015760    0.0030618    0.0023480
h    -2.5259814    2.8182769   -0.3461704  0.00   -0.0009706    0.0000451    0.0000815
h    -2.2007965    0.3839219   -0.6476329  0.00   -0.0034385   -0.0011139   -0.0000718
h    -0.5834773    4.2984924   -0.0508686  0.00    0.0005617    0.0013093    0.0003812
h     1.6848300    3.3718624   -0.0233400  0.00    0.0046573    0.0022539   -0.0017391
h     2.3979612   -1.5713641   -0.5733701  0.00   -0.0087685   -0.0067954    0.0009661
o     3.7625014    3.9966026   -0.9733319  0.00   -0.0136211   -0.0656747   -0.0329830
o     3.1505487    3.0014622   -3.0458362  0.00   -0.0069870   -0.1930164    0.0218605
h     3.8087969    3.5074311   -3.6609292  0.00    0.0352970    0.0053292   -0.0204984
    27
 Energy =       0.2100807015
c    -1.5465352    2.3191441   -0.3648134  0.00   -0.0135182    0.0100824    0.0005252
c    -1.3442774    0.9748092   -0.5609670  0.00   -0.0229089   -0.0107666    0.0004148
c    -0.0613053    0.5125825   -0.5594668  0.00   -0.0233307   -0.0454465    0.0002189
c    -0.4799432    3.1642620   -0.1653549  0.00   -0.0036603    0.0200786    0.0005922
c     0.8017684    2.6735350   -0.1507935  0.00    0.0053875    0.0188835   -0.0007062
c     0.9985443    1.3317857   -0.3584933  0.00    0.0139222    0.0149602    0.0004850
n     0.3816005   -0.8123203   -0.7738494  0.00    0.0293802    0.0247813   -0.0009510
c     2.1461838    0.5847823   -0.3763845  0.00    0.0390018   -0.0184122    0.0021113
c     1.7902798   -0.7045789   -0.6033948  0.00   -0.0211835   -0.0226032    0.0005014
h    -0.1837540   -1.6638216   -0.9809468  0.00    0.0037490    0.0037639   -0.0004728
c     3.5614974    1.0760350   -0.1158275  0.00   -0.0006369    0.0131003    0.0004336
c     4.2930470    1.6381339   -1.3562417  0.00    0.0142705   -0.0078554    0.0130055
h     4.1585076    0.2287704    0.2798468  0.00   -0.0014128    0.0018989    0.0004894
h     3.5434642    1.8369978    0.6939251  0.00   -0.0010593   -0.0012099   -0.0003605
c     3.7427112    2.9961710   -1.7548853  0.00    0.0023714    0.0763221    0.0224010
n     4.1832968    0.6967049   -2.4995350  0.00   -0.0162703    0.0044956   -0.0289637
h     5.3630300    1.7940387   -1.0960735  0.00   -0.0009969   -0.0018706   -0.0038531
h     3.4633712    1.1038705   -3.1516197  0.00   -0.0122176    0.1511213    0.0210964
h     5.0790790    0.7381623   -3.0421414  0.00    0.0035469    0.0030833   -0.0007840
h    -2.5587982    2.7178646   -0.3696448  0.00   -0.0011454    0.0001423    0.0000761
h    -2.1800521    0.2981749   -0.7255682  0.00   -0.0036170   -0.0014943   -0.0001625
h    -0.6505152    4.2287136   -0.0098562  0.00    0.0005381    0.0018585    0.0004488
h     1.6321561    3.3459518    0.0318227  0.00    0.0049772    0.0027503   -0.0015463
h     2.4602954   -1.5605565   -0.6394996  0.00   -0.0079337   -0.0067050    0.0008768
o     3.6735525    4.0287469   -0.8845136  0.00   -0.0134115   -0.0567163   -0.0270102
o     3.1520264    3.0672776   -3.0020209  0.00   -0.0065989   -0.1793402    0.0201615
h     3.8190548    3.5621852   -3.6139498  0.00    0.0327572    0.0050978   -0.0190277
    27
 Energy =       0.2098388903
c    -1.5926918    2.2513411   -0.4204255  0.00   -0.0133790    0.0094979    0.0004556
c    -1.3596501    0.9159477   -0.6412093  0.00   -0.0219201   -0.0107228    0.0002896
c    -0.0680161    0.4793948   -0.6255894  0.00   -0.0222024   -0.0429272    0.0002374
c    -0.5473074    3.1124556   -0.1812523  0.00   -0.0031241    0.0195614    0.0006863
c     0.7426825    2.6463094   -0.1504866  0.00    0.0054095    0.0183439   -0.0005834
c     0.9706442    1.3145935   -0.3854192  0.00    0.0133938    0.0141261    0.0004337
n     0.4057029   -0.8326395   -0.8612916  0.00    0.0270649    0.0228396   -0.0011360
c     2.1330203    0.5924129   -0.3931463  0.00    0.0364857   -0.0169564    0.0019737
c     1.8086679   -0.6987647   -0.6538177  0.00   -0.0195830   -0.0217099    0.0004874
h    -0.1373602   -1.6911269   -1.1015762  0.00    0.0028208    0.0024313   -0.0007595
c     3.5324649    1.1042140   -0.0797875  0.00   -0.0000929    0.0123094    0.0009439
c     4.3034326    1.6845947   -1.2897421  0.00    0.0132794   -0.0065377    0.0132044
h     4.1273090    0.2630872    0.3326803  0.00   -0.0010555    0.0017630    0.0005362
h     3.4750322    1.8590131    0.7348938  0.00   -0.0010561   -0.0006764    0.0003224
c     3.7590086    3.0433825   -1.6991167  0.00    0.0045815    0.0666854    0.0186806
n     4.2465809    0.7470630   -2.4409465  0.00   -0.0163157    0.0021666   -0.0247223
h     5.3616169    1.8490462   -0.9863529  0.00    0.0000175   -0.0015464   -0.0032749
h     3.5733109    1.1634142   -3.1386435  0.00   -0.0136537    0.1429082    0.0171392
h     5.1757516    0.7713874   -2.9294163  0.00    0.0063980    0.0029452   -0.0024522
h    -2.6126987    2.6301408   -0.4364455  0.00   -0.0013909    0.0001989    0.0000595
h    -2.1785498    0.2263002   -0.8365048  0.00   -0.0039147   -0.0019090   -0.0002807
h    -0.7418363    4.1699228   -0.0048075  0.00    0.0005424    0.0023178    0.0005225
h     1.5536456    3.3299507    0.0695558  0.00    0.0056315    0.0033148   -0.0014224
h     2.4980600   -1.5394527   -0.6861349  0.00   -0.0072561   -0.0065584    0.0008214
o     3.5724559    4.0436569   -0.7951233  0.00   -0.0134970   -0.0471334   -0.0169348
o     3.2592016    3.1354710   -2.9883056  0.00   -0.0104584   -0.1714416    0.0149507
h     3.9778079    3.6063064   -3.5618358  0.00    0.0332745    0.0067097   -0.0201784
    27
 Energy =       0.2060089529
c    -1.5541840    2.3551070   -0.4326201  0.00   -0.0141742    0.0099570    0.0004801
c    -1.3633351    1.0065887   -0.6187129  0.00   -0.0223189   -0.0116272    0.0001316
c    -0.0854525    0.5312581   -0.5994631  0.00   -0.0223607   -0.0424390    0.0003023
c    -0.4805525    3.1920203   -0.2272137  0.00   -0.0029631    0.0205452    0.0008622
c     0.7963174    2.6882346   -0.1947390  0.00    0.0055569    0.0193764   -0.0004316
c     0.9797719    1.3412203   -0.3882522  0.00    0.0134760    0.0138761    0.0003768
n     0.3445403   -0.8031659   -0.7953416  0.00    0.0272004    0.0213859   -0.0013726
c     2.1179559    0.5811276   -0.3777029  0.00    0.0369294   -0.0163644    0.0021680
c     1.7529268   -0.7077105   -0.6002576  0.00   -0.0192190   -0.0225477    0.0003762
h    -0.2278914   -1.6516347   -1.0049319  0.00    0.0020257    0.0011089   -0.0010695
c     3.5316305    1.0566610   -0.0791547  0.00    0.0000741    0.0122138    0.0009952
c     4.3022211    1.6032853   -1.3022572  0.00    0.0131310   -0.0062963    0.0130649
h     4.1085088    0.2041050    0.3361003  0.00   -0.0008834    0.0015702    0.0005545
h     3.5006314    1.8226576    0.7271922  0.00   -0.0010978   -0.0003345    0.0006031
c     3.7822776    2.9669876   -1.7206284  0.00    0.0054687    0.0575585    0.0115662
n     4.2161375    0.6538185   -2.4422317  0.00   -0.0165438    0.0015981   -0.0248296
h     5.3669301    1.7498676   -1.0112355  0.00    0.0002699   -0.0014441   -0.0032530
h     3.5461022    1.0761117   -3.1393939  0.00   -0.0135148    0.1422199    0.0169180
h     5.1411221    0.6566542   -2.9396671  0.00    0.0067520    0.0029514   -0.0026799
h    -2.5629079    2.7641419   -0.4513424  0.00   -0.0018815    0.0004801    0.0000629
h    -2.2044664    0.3359808   -0.7881678  0.00   -0.0044323   -0.0025036   -0.0004121
h    -0.6418923    4.2607988   -0.0820370  0.00    0.0004580    0.0034606    0.0006815
h     1.6344476    3.3553461   -0.0125016  0.00    0.0068633    0.0043712   -0.0016060
h     2.4158756   -1.5712913   -0.6110933  0.00   -0.0067955   -0.0073304    0.0007793
o     3.7312090    4.0203417   -0.8483908  0.00   -0.0136849   -0.0365389   -0.0071268
o     3.2260712    3.0464739   -2.9883654  0.00   -0.0225513   -0.1825556    0.0222585
h     3.8642910    3.6424367   -3.5578377  0.00    0.0442156    0.0173086   -0.0294001
    27
 Energy =       0.1955002509
c    -1.5099128    2.4415606   -0.4367810  0.00   -0.0119453    0.0081345    0.0003882
c    -1.3558577    1.0891722   -0.6150408  0.00   -0.0183502   -0.0097010    0.0000367
c    -0.0945740    0.5790129   -0.5906240  0.00   -0.0178805   -0.0338415    0.0002078
c    -0.4141418    3.2487999   -0.2364496  0.00   -0.0025554    0.0170607    0.0007972
c     0.8476373    2.7103020   -0.2016431  0.00    0.0047547    0.0160154   -0.0002566
c     0.9893265    1.3584543   -0.3831415  0.00    0.0109824    0.0110150    0.0002534
n     0.2931215   -0.7717790   -0.7714790  0.00    0.0218179    0.0164944   -0.0011462
c     2.1016140    0.5693425   -0.3677607  0.00    0.0298783   -0.0131233    0.0016899
c     1.7065729   -0.7090318   -0.5861150  0.00   -0.0148880   -0.0184985    0.0002291
h    -0.3050097   -1.6062848   -0.9683650  0.00    0.0011597    0.0002275   -0.0010116
c     3.5273870    1.0053997   -0.0805646  0.00    0.0002803    0.0099285    0.0007287
c     4.2886545    1.5331825   -1.3135076  0.00    0.0104837   -0.0049284    0.0106742
h     4.0890472    0.1370725    0.3245848  0.00   -0.0004833    0.0010570    0.0004719
h     3.5260973    1.7726380    0.7257974  0.00   -0.0008833    0.0000751    0.0007454
c     3.7896253    2.9032850   -1.7285611  0.00    0.0016709    0.0335402    0.0017415
n     4.1801092    0.5765920   -2.4439331  0.00   -0.0137440    0.0009602   -0.0198007
h     5.3584175    1.6659103   -1.0323431  0.00    0.0003717   -0.0011008   -0.0025817
h     3.5206872    1.0033984   -3.1494838  0.00   -0.0111255    0.1165938    0.0133662
h     5.1049113    0.5499366   -2.9401026  0.00    0.0060050    0.0024236   -0.0024958
h    -2.5070532    2.8781818   -0.4590043  0.00   -0.0019509    0.0005695    0.0000427
h    -2.2142834    0.4406247   -0.7806747  0.00   -0.0038625   -0.0022945   -0.0003971
h    -0.5463039    4.3226761   -0.1007062  0.00    0.0002722    0.0032789    0.0006143
h     1.7093090    3.3552981   -0.0338702  0.00    0.0071024    0.0042504   -0.0017386
h     2.3538202   -1.5844970   -0.6031317  0.00   -0.0052756   -0.0060746    0.0006127
o     3.8899621    3.9967445   -0.8913655  0.00   -0.0093837   -0.0169633    0.0042996
o     3.1832790    3.0002346   -2.9717632  0.00   -0.0275437   -0.1610729    0.0258144
h     3.7258435    3.7111961   -3.5142177  0.00    0.0450924    0.0259742   -0.0332856
    27
 Energy =       0.1835393174
c    -1.4731452    2.4985724   -0.4587929  0.00   -0.0081981    0.0050791    0.0002137
c    -1.3448893    1.1492134   -0.6539010  0.00   -0.0121313   -0.0065785    0.0000712
c    -0.0993242    0.6125771   -0.6190537  0.00   -0.0114662   -0.0217968    0.0002712
c    -0.3646228    3.2769609   -0.2322441  0.00   -0.0015725    0.0114275    0.0005255
c     0.8824040    2.7111072   -0.1887903  0.00    0.0034307    0.0106801   -0.0001977
c     0.9935053    1.3627426   -0.3868213  0.00    0.0073679    0.0071200    0.0000673
n     0.2557941   -0.7474191   -0.8086382  0.00    0.0139153    0.0102593   -0.0008544
c     2.0838149    0.5553504   -0.3722126  0.00    0.0193083   -0.0079605    0.0010069
c     1.6717520   -0.7089991   -0.6173221  0.00   -0.0093439   -0.0122652    0.0001721
h    -0.3593884   -1.5671732   -1.0170104  0.00    0.0004309   -0.0002633   -0.0007409
c     3.5161401    0.9546093   -0.0747391  0.00    0.0003963    0.0066050    0.0003089
c     4.2825259    1.4838539   -1.3008596  0.00    0.0066275   -0.0035224    0.0067573
h     4.0605993    0.0677320    0.3158335  0.00   -0.0000927    0.0003589    0.0004374
h     3.5326074    1.7108204    0.7418923  0.00   -0.0004883    0.0002665    0.0006332
c     3.8102143    2.8672915   -1.6993000  0.00   -0.0012749    0.0141767   -0.0008150