    27
 Energy =       0.4187717488
c    -1.4235396    2.6054793   -0.0667700  0.00   -0.0463054    0.0383852    0.0027473
c    -1.3072796    1.2134697   -0.1072300  0.00   -0.0852489   -0.0325957    0.0020414
c    -0.0178900    0.6711998   -0.1697000  0.00   -0.0890325   -0.1882208   -0.0014337
c    -0.2940599    3.4190890   -0.0891300  0.00   -0.0233092    0.0690580    0.0028346
c     0.9872197    2.8590292   -0.1560400  0.00    0.0394517    0.0659381    0.0072343
c     1.1340797    1.4562096   -0.1970299  0.00    0.0572584    0.0540218    0.0030744
n     0.3879399   -0.6395298   -0.2140799  0.00    0.1433127    0.1100497   -0.0022889
c     2.2666594    0.5727398   -0.2659299  0.00    0.1502355   -0.0949383   -0.0307191
c     1.7555995   -0.7123598   -0.2706899  0.00   -0.1008232   -0.0974462    0.0041340
h    -0.2400399   -1.4313496   -0.2047299  0.00    0.0367148    0.0478810   -0.0008044
c     3.7030089    1.0223397   -0.3320099  0.00    0.0002745    0.0406864   -0.0091485
c     4.0547688    2.2615794    0.5049969  0.00   -0.0616952   -0.0284856   -0.0216313
h     3.9407589    1.2278196   -1.3843196  0.00    0.0038956   -0.0002788    0.0175115
h     4.3455988    0.1801669   -0.0411573  0.00   -0.0100419    0.0069018   -0.0100313
c     5.4270085    2.7951492    0.0535521  0.00    0.1624392    0.0791284   -0.2937261
n     4.1412688    1.9836494    1.9826994  0.00    0.0868862    0.0643979    0.0843374
h     3.3277791    3.0673291    0.3491609  0.00   -0.4870043    0.1255776   -0.1509198
h     5.1137885    2.1471494    2.2630194  0.00    0.2710818    0.1955039   -0.3495610
h     3.6182690    2.7208792    2.4683293  0.00    0.0178003   -0.0201099   -0.0221708
h    -2.4108593    3.0588691   -0.0157800  0.00   -0.0007707    0.0002119    0.0000335
h    -2.1896094    0.5822398   -0.0890100  0.00   -0.0035858    0.0037753    0.0000304
h    -0.4052699    4.5000487   -0.0535400  0.00    0.0006067    0.0001861    0.0003524
h     1.8590495    3.5066790   -0.1715100  0.00    0.4766339   -0.1414922    0.1698260
h     2.2327294   -1.6813195   -0.3062999  0.00   -0.0407119   -0.0113741    0.0020165
o     5.7255984    3.1121091   -1.0858697  0.00   -0.0745838   -0.0700172    0.2735765
o     6.2915882    2.8764792    1.1006697  0.00   -0.3804001   -0.2170294    0.3168911
h     7.0586480    2.3013393    0.8448318  0.00   -0.0430784    0.0002851    0.0057936
    27
 Energy =       0.4134580285
c    -1.4231828    2.6302861   -0.0171685  0.00   -0.0459014    0.0381064    0.0027246
c    -1.3122980    1.2380060   -0.0692614  0.00   -0.0845048   -0.0324108    0.0020280
c    -0.0252922    0.6920241   -0.1349140  0.00   -0.0884623   -0.1852898   -0.0013280
c    -0.2905178    3.4402938   -0.0347174  0.00   -0.0231244    0.0684958    0.0028089
c     0.9883064    2.8757914   -0.1091829  0.00    0.0391145    0.0654029    0.0071549
c     1.1268637    1.4741845   -0.1618414  0.00    0.0563493    0.0537546    0.0029007
n     0.3768959   -0.6191194   -0.2229761  0.00    0.1423550    0.1080712   -0.0023623
c     2.2554235    0.5931192   -0.2608469  0.00    0.1472803   -0.0933577   -0.0297734
c     1.7453811   -0.6916960   -0.2880449  0.00   -0.1003016   -0.0957758    0.0042323
h    -0.2524907   -1.4103915   -0.2290184  0.00    0.0362898    0.0472811   -0.0008070
c     3.6811390    1.0582515   -0.3884044  0.00   -0.0017776    0.0409702   -0.0068371
c     4.0633638    2.2530679    0.5023020  0.00   -0.0609343   -0.0272072   -0.0228312
h     3.8428672    1.3434852   -1.4421780  0.00    0.0042401    0.0008181    0.0116504
h     4.3556856    0.2042707   -0.1999104  0.00   -0.0062967    0.0027189   -0.0091183
c     5.4370186    2.7828812    0.0490887  0.00    0.1582049    0.0784853   -0.2935539
n     4.1735264    1.9011649    1.9628995  0.00    0.0888364    0.0597230    0.0846498
h     3.3383573    3.0769724    0.4005583  0.00   -0.4837447    0.1258975   -0.1499944
h     5.1465116    2.0663330    2.2405952  0.00    0.2686948    0.1938435   -0.3463221
h     3.6290135    2.5873064    2.5022439  0.00    0.0152343   -0.0167992   -0.0191444
h    -2.4088431    3.0869477    0.0367776  0.00   -0.0007734    0.0002194    0.0000334
h    -2.1970722    0.6098386   -0.0624866  0.00   -0.0036044    0.0036785    0.0000290
h    -0.3975354    4.5213858    0.0093444  0.00    0.0005956    0.0002308    0.0003482
h     1.8678316    3.5147377   -0.1219454  0.00    0.4724985   -0.1402383    0.1683077
h     2.2220802   -1.6588633   -0.3765216  0.00   -0.0397193   -0.0125889    0.0019113
o     5.7349812    3.0889569   -1.0956139  0.00   -0.0733500   -0.0693310    0.2712456
o     6.3273542    2.7973620    1.0806679  0.00   -0.3761407   -0.2138263    0.3171120
h     7.0774446    2.2198873    0.7769885  0.00   -0.0410579   -0.0008719    0.0049354
    27
 Energy =       0.3793709406
c    -1.4150071    2.6617660    0.0257721  0.00   -0.0401933    0.0334063    0.0023570
c    -1.3095146    1.2737690   -0.0378908  0.00   -0.0740564   -0.0285142    0.0017557
c    -0.0311910    0.7244877   -0.1057594  0.00   -0.0774929   -0.1612399   -0.0006525
c    -0.2809680    3.4649194    0.0136966  0.00   -0.0203167    0.0600466    0.0023956
c     0.9906927    2.8960419   -0.0666573  0.00    0.0344428    0.0574285    0.0062287
c     1.1159666    1.5005176   -0.1296044  0.00    0.0489946    0.0473514    0.0024358
n     0.3558544   -0.5941255   -0.2359741  0.00    0.1249071    0.0936443   -0.0025317
c     2.2343251    0.6294129   -0.2530458  0.00    0.1281082   -0.0811480   -0.0253610
c     1.7322939   -0.6525435   -0.3039446  0.00   -0.0883375   -0.0830916    0.0040500
h    -0.2761946   -1.3886223   -0.2598646  0.00    0.0316826    0.0412208   -0.0008460
c     3.6538334    1.0946900   -0.4336593  0.00   -0.0025202    0.0353726   -0.0053383
c     4.0780966    2.2417786    0.5022093  0.00   -0.0528796   -0.0226353   -0.0221353
h     3.7573852    1.4398351   -1.4813268  0.00    0.0035079    0.0014387    0.0068915
h     4.3394562    0.2298557   -0.3248480  0.00   -0.0033370   -0.0000206   -0.0078630
c     5.4499777    2.7661042    0.0479219  0.00    0.1359443    0.0694408   -0.2590600
n     4.2059760    1.8071505    1.9353960  0.00    0.0817461    0.0475499    0.0744012
h     3.3613787    3.0845410    0.4518727  0.00   -0.4290467    0.1129526   -0.1333363
h     5.1810189    1.9757561    2.2193579  0.00    0.2381993    0.1715909   -0.3062970
h     3.6307669    2.4285533    2.5296262  0.00    0.0098634   -0.0111305   -0.0124850
h    -2.3987776    3.1221457    0.0818447  0.00   -0.0006894    0.0001961    0.0000283
h    -2.1961056    0.6480807   -0.0430960  0.00   -0.0032091    0.0031539    0.0000076
h    -0.3828001    4.5462270    0.0654922  0.00    0.0005125    0.0002479    0.0003019
h     1.8769651    3.5278012   -0.0759476  0.00    0.4181182   -0.1240106    0.1489038
h     2.2278603   -1.6058746   -0.4397847  0.00   -0.0342081   -0.0122035    0.0015044
o     5.7383004    3.0639632   -1.1233865  0.00   -0.0640729   -0.0609824    0.2374764
o     6.3756888    2.7206838    1.0539303  0.00   -0.3349327   -0.1840398    0.2852392
h     7.0675351    2.0695695    0.7341036  0.00   -0.0307343   -0.0060247    0.0019291
    27
 Energy =       0.3547714210
c    -1.4075343    2.6797540    0.0381487  0.00   -0.0352308    0.0293110    0.0020542
c    -1.3039892    1.2960019   -0.0357255  0.00   -0.0649476   -0.0250738    0.0015540
c    -0.0320600    0.7459336   -0.1032722  0.00   -0.0678322   -0.1409913   -0.0001741
c    -0.2738347    3.4785417    0.0338775  0.00   -0.0178210    0.0526778    0.0020580
c     0.9927072    2.9081496   -0.0472827  0.00    0.0303166    0.0504344    0.0054344
c     1.1105901    1.5178936   -0.1181267  0.00    0.0429103    0.0416542    0.0021145
n     0.3437381   -0.5780524   -0.2613664  0.00    0.1094706    0.0816794   -0.0026657
c     2.2224276    0.6552762   -0.2484771  0.00    0.1123656   -0.0709658   -0.0221503
c     1.7275606   -0.6241742   -0.3157531  0.00   -0.0774967   -0.0725815    0.0038413
h    -0.2901265   -1.3753101   -0.3046806  0.00    0.0276252    0.0359185   -0.0008733
c     3.6424702    1.1140352   -0.4447535  0.00   -0.0023462    0.0307678   -0.0048214
c     4.0895521    2.2379435    0.5084288  0.00   -0.0462229   -0.0193904   -0.0199360
h     3.7299294    1.4787653   -1.4883309  0.00    0.0030121    0.0013198    0.0057227
h     4.3253228    0.2430501   -0.3614300  0.00   -0.0027080   -0.0003027   -0.0068817
c     5.4576409    2.7625398    0.0523027  0.00    0.1190101    0.0610042   -0.2278067
n     4.2244181    1.7622559    1.9243230  0.00    0.0726125    0.0407970    0.0652873
h     3.3790813    3.0888753    0.4811761  0.00   -0.3799482    0.1003345   -0.1182793
h     5.2011480    1.9324627    2.2164329  0.00    0.2119361    0.1517339   -0.2713993
h     3.6348009    2.3511367    2.5411695  0.00    0.0078706   -0.0090670   -0.0099469
h    -2.3905671    3.1416534    0.0939465  0.00   -0.0006080    0.0001699    0.0000248
h    -2.1910089    0.6710836   -0.0521624  0.00   -0.0028591    0.0027145   -0.0000029
h    -0.3731529    4.5598083    0.0920168  0.00    0.0004502    0.0002423    0.0002633
h     1.8808115    3.5376437   -0.0509052  0.00    0.3700764   -0.1097036    0.1318141
h     2.2409311   -1.5656899   -0.4688091  0.00   -0.0298778   -0.0109704    0.0012965
o     5.7387757    3.0530331   -1.1411072  0.00   -0.0560605   -0.0540494    0.2082179
o     6.4039913    2.6930571    1.0402404  0.00   -0.3098533   -0.1438320    0.2606056
h     6.9991896    1.9108164    0.7665533  0.00   -0.0138441   -0.0238312   -0.0053510
    27
 Energy =       0.3148201676
c    -1.4033833    2.7041747    0.0272931  0.00   -0.0281652    0.0233959    0.0016610
c    -1.3088874    1.3267920   -0.0677459  0.00   -0.0519014   -0.0203910    0.0013564
c    -0.0484072    0.7692724   -0.1241473  0.00   -0.0531554   -0.1107470    0.0015739
c    -0.2660623    3.4905576    0.0470118  0.00   -0.0141437    0.0422037    0.0015629
c     0.9911771    2.9116647   -0.0242479  0.00    0.0246238    0.0405025    0.0042573
c     1.0929218    1.5283577   -0.1056165  0.00    0.0344246    0.0337835    0.0016480
n     0.3036650   -0.5611949   -0.3376441  0.00    0.0851771    0.0639363   -0.0042147
c     2.1922429    0.6696073   -0.2243624  0.00    0.0901693   -0.0561140   -0.0178413
c     1.6992698   -0.6026780   -0.3240376  0.00   -0.0595227   -0.0570829    0.0044159
h    -0.3396450   -1.3547573   -0.4384267  0.00    0.0202861    0.0266234   -0.0014464
c     3.6233726    1.1010811   -0.4092198  0.00   -0.0019306    0.0244950   -0.0039827
c     4.0968814    2.2121713    0.5461867  0.00   -0.0368639   -0.0153043   -0.0159726
h     3.7232188    1.4595619   -1.4549413  0.00    0.0024364    0.0011471    0.0044976
h     4.2891651    0.2167021   -0.3164138  0.00   -0.0020345   -0.0004665   -0.0054271
c     5.4660060    2.7127304    0.0828656  0.00    0.0953581    0.0484201   -0.1813812
n     4.2276052    1.7150788    1.9494398  0.00    0.0585174    0.0326383    0.0518812
h     3.4033733    3.0778318    0.5261122  0.00   -0.3110034    0.0823767   -0.0970066
h     5.2081370    1.8859100    2.2513970  0.00    0.1757830    0.1243402   -0.2227508
h     3.6285883    2.2879338    2.5755462  0.00    0.0060894   -0.0071390   -0.0076572
h    -2.3835169    3.1731855    0.0739527  0.00   -0.0005849    0.0001086    0.0000253
h    -2.1996123    0.7080587   -0.1156978  0.00   -0.0026989    0.0018052   -0.0000509
h    -0.3567832    4.5721240    0.1145927  0.00    0.0003795    0.0002834    0.0002082
h     1.8832899    3.5345345   -0.0159804  0.00    0.3027990   -0.0896113    0.1076864
h     2.2349724   -1.5320388   -0.4785096  0.00   -0.0237745   -0.0089449    0.0011652
o     5.7329413    3.0150906   -1.1389649  0.00   -0.0452261   -0.0433495    0.1657207
o     6.4343402    2.6471770    1.0543986  0.00   -0.2791370   -0.0933393    0.2275709
h     7.1579427    2.0075549    0.6735930  0.00    0.0140984   -0.0435703   -0.0174991
    27
 Energy =       0.3126563957
c    -1.4067937    2.7016676   -0.0067605  0.00   -0.0276804    0.0228552    0.0016472
c    -1.3112189    1.3267898   -0.1267464  0.00   -0.0508090   -0.0203123    0.0012803
c    -0.0507536    0.7693738   -0.1676787  0.00   -0.0512537   -0.1064204    0.0021536
c    -0.2697047    3.4864677    0.0468043  0.00   -0.0135329    0.0414918    0.0015410
c     0.9878668    2.9078085   -0.0090576  0.00    0.0243345    0.0397500    0.0041549
c     1.0905369    1.5264731   -0.1078143  0.00    0.0339086    0.0334734    0.0016501
n     0.3029080   -0.5527140   -0.4355977  0.00    0.0806553    0.0613398   -0.0047288
c     2.1910971    0.6687737   -0.2122550  0.00    0.0886411   -0.0542283   -0.0172594
c     1.6984215   -0.6002289   -0.3486515  0.00   -0.0555078   -0.0550669    0.0048069
h    -0.3395544   -1.3400741   -0.5971798  0.00    0.0178732    0.0236936   -0.0019366
c     3.6289249    1.0945137   -0.3641051  0.00   -0.0016504    0.0241248   -0.0037352
c     4.0948489    2.2124481    0.5888990  0.00   -0.0360126   -0.0149306   -0.0155054
h     3.7521062    1.4398656   -1.4122604  0.00    0.0024155    0.0012360    0.0040604
h     4.2883504    0.2076892   -0.2491394  0.00   -0.0017499   -0.0006052   -0.0052653
c     5.4621548    2.7149824    0.1227111  0.00    0.0930466    0.0472644   -0.1770041
n     4.2271801    1.7199526    1.9935343  0.00    0.0571010    0.0318018    0.0505989
h     3.4012577    3.0774265    0.5662650  0.00   -0.3035811    0.0804311   -0.0946856
h     5.2102133    1.8867264    2.2931380  0.00    0.1716546    0.1213922   -0.2174316
h     3.6338650    2.2995391    2.6192191  0.00    0.0059104   -0.0069332   -0.0074333
h    -2.3875273    3.1706840    0.0270545  0.00   -0.0006956    0.0000622    0.0000213
h    -2.2013699    0.7101766   -0.2123597  0.00   -0.0032178    0.0013012   -0.0001184
h    -0.3608923    4.5671127    0.1286259  0.00    0.0004399    0.0003939    0.0002086
h     1.8780954    3.5305916    0.0222333  0.00    0.2958039   -0.0873167    0.1050854
h     2.2393073   -1.5273371   -0.4987183  0.00   -0.0232352   -0.0087969    0.0011266
o     5.7258631    3.0129531   -1.1036380  0.00   -0.0441464   -0.0423404    0.1617031
o     6.4352432    2.6474478    1.0889934  0.00   -0.2725567   -0.0910563    0.2221829
h     7.1623875    2.0173746    0.7009179  0.00    0.0138445   -0.0426042   -0.0171173
    27
 Energy =       0.3096266898
c    -1.4027315    2.7084083    0.0304055  0.00   -0.0277388    0.0227434    0.0016594
c    -1.3104958    1.3311218   -0.0650801  0.00   -0.0506934   -0.0206021    0.0012248
c    -0.0513731    0.7723809   -0.1212725  0.00   -0.0503849   -0.1042301    0.0024688
c    -0.2640536    3.4934501    0.0500397  0.00   -0.0131972    0.0415644    0.0015510
c     0.9920637    2.9132679   -0.0215373  0.00    0.0244829    0.0397543    0.0041442
c     1.0910025    1.5303632   -0.1024295  0.00    0.0340036    0.0337612    0.0016661
n     0.2949704   -0.5620934   -0.3369430  0.00    0.0777991    0.0600093   -0.0049185
c     2.1889358    0.6722345   -0.2215675  0.00    0.0887104   -0.0534551   -0.0169962
c     1.6954113   -0.6000494   -0.3224001  0.00   -0.0526843   -0.0541209    0.0049636
h    -0.3520254   -1.3578934   -0.4384267  0.00    0.0158578    0.0212763   -0.0022214
c     3.6210192    1.1018305   -0.4104975  0.00   -0.0013766    0.0242198   -0.0035496
c     4.0997136    2.2093725    0.5463768  0.00   -0.0358448   -0.0148188   -0.0153261
h     3.7177885    1.4627903   -1.4565700  0.00    0.0024138    0.0013632    0.0035999
h     4.2866695    0.2161271   -0.3214604  0.00   -0.0014277   -0.0008047   -0.0052096
c     5.4687996    2.7068177    0.0812244  0.00    0.0925666    0.0469990   -0.1760290
n     4.2307869    1.7076903    1.9473653  0.00    0.0568162    0.0315404    0.0502961
h     3.4086247    3.0771505    0.5289772  0.00   -0.3019569    0.0800156   -0.0941845
h     5.2119337    1.8778557    2.2502942  0.00    0.1707459    0.1207427   -0.2162620
h     3.6310660    2.2778157    2.5757964  0.00    0.0058181   -0.0068413   -0.0073169
h    -2.3825219    3.1784727    0.0769747  0.00   -0.0008150    0.0000204    0.0000204
h    -2.2028434    0.7125699   -0.1138063  0.00   -0.0037632    0.0008490   -0.0001570
h    -0.3530210    4.5753747    0.1173341  0.00    0.0005089    0.0005164    0.0002111
h     1.8853602    3.5354120   -0.0145466  0.00    0.2944810   -0.0866477    0.1044894
h     2.2338610   -1.5274729   -0.4796212  0.00   -0.0231045   -0.0087999    0.0010961
o     5.7333832    3.0096623   -1.1442273  0.00   -0.0439099   -0.0421199    0.1608171
o     6.4405404    2.6406651    1.0497484  0.00   -0.2710837   -0.0905535    0.2209925
h     7.1699484    2.0131593    0.6622830  0.00    0.0137765   -0.0423812   -0.0170296
    27
 Energy =       0.3025869396
c    -1.3974538    2.7181635    0.0658966  0.00   -0.0269516    0.0219559    0.0016171
c    -1.3086685    1.3395968   -0.0053404  0.00   -0.0490489   -0.0202655    0.0011174
c    -0.0524007    0.7787293   -0.0759308  0.00   -0.0479992   -0.0988669    0.0024308
c    -0.2576547    3.5017255    0.0526015  0.00   -0.0124863    0.0403736    0.0015170
c     0.9956468    2.9189547   -0.0338698  0.00    0.0238751    0.0385690    0.0040258
c     1.0895785    1.5355412   -0.0967492  0.00    0.0330513    0.0330058    0.0016376
n     0.2870857   -0.5667446   -0.2383681  0.00    0.0728011    0.0568368   -0.0045817
c     2.1829482    0.6770086   -0.2292029  0.00    0.0861089   -0.0510972   -0.0162364
c     1.6895386   -0.5971628   -0.2949423  0.00   -0.0484341   -0.0515508    0.0046651
h    -0.3623670   -1.3686897   -0.2796736  0.00    0.0134064    0.0182459   -0.0022183
c     3.6097853    1.1064704   -0.4544852  0.00   -0.0010662    0.0235408   -0.0033283
c     4.1049664    2.2024826    0.5054756  0.00   -0.0345806   -0.0142454   -0.0146947
h     3.6818307    1.4810947   -1.4981574  0.00    0.0023159    0.0014173    0.0030942
h     4.2783657    0.2203286   -0.3896859  0.00   -0.0011002   -0.0009426   -0.0050154
c     5.4757305    2.6924974    0.0401618  0.00    0.0893350    0.0453053   -0.1697781
n     4.2341986    1.6898204    1.9015685  0.00    0.0548530    0.0303187    0.0484765
h     3.4185227    3.0747212    0.4939176  0.00   -0.2915384    0.0772614   -0.0909564
h     5.2137376    1.8632052    2.2091891  0.00    0.1648637    0.1165645   -0.2087775
h     3.6271521    2.2491018    2.5332465  0.00    0.0055300   -0.0065337   -0.0069543
h    -2.3757299    3.1901467    0.1245647  0.00   -0.0009007   -0.0000190    0.0000208
h    -2.2024227    0.7203581   -0.0179522  0.00   -0.0041661    0.0003910   -0.0001672
h    -0.3438792    4.5847615    0.1054308  0.00    0.0005582    0.0006221    0.0002056
h     1.8919232    3.5394252   -0.0506237  0.00    0.2845652   -0.0834330    0.1008492
h     2.2269003   -1.5242242   -0.4589210  0.00   -0.0222876   -0.0085307    0.0010105
o     5.7395711    3.0010107   -1.1876875  0.00   -0.0423680   -0.0406164    0.1551200
o     6.4485933    2.6299850    1.0091074  0.00   -0.2618127   -0.0872411    0.2134445
h     7.1873142    2.0181763    0.6168632  0.00    0.0134770   -0.0410660   -0.0165239
    27
 Energy =       0.2873613584
c    -1.3896092    2.7353918    0.1043664  0.00   -0.0244838    0.0197527    0.0014626
c    -1.3059816    1.3572481    0.0572988  0.00   -0.0443297   -0.0186416    0.0008931
c    -0.0557458    0.7921738   -0.0281716  0.00   -0.0426439   -0.0874498    0.0018289
c    -0.2485457    3.5139842    0.0573399  0.00   -0.0110058    0.0366346    0.0014048
c     0.9990789    2.9260941   -0.0445391  0.00    0.0217789    0.0349732    0.0037021
c     1.0842675    1.5439874   -0.0886255  0.00    0.0299902    0.0301302    0.0015392
n     0.2741734   -0.5640155   -0.1385842  0.00    0.0634957    0.0501598   -0.0034402
c     2.1691643    0.6852813   -0.2338353  0.00    0.0780242   -0.0455339   -0.0144033
c     1.6767974   -0.5886279   -0.2643447  0.00   -0.0414634   -0.0458297    0.0037006
h    -0.3767501   -1.3693430   -0.1209205  0.00    0.0102809    0.0142653   -0.0018413
c     3.5917747    1.1076155   -0.4980922  0.00   -0.0006990    0.0212980   -0.0030140
c     4.1126667    2.1872720    0.4651257  0.00   -0.0310914   -0.0127018   -0.0131449
h     3.6388467    1.4958498   -1.5387563  0.00    0.0020263    0.0013506    0.0023872
h     4.2583527    0.2177928   -0.4588131  0.00   -0.0006726   -0.0010441   -0.0045207
c     5.4850626    2.6644209   -0.0029132  0.00    0.0805488    0.0406863   -0.1527578
n     4.2390907    1.6574358    1.8527996  0.00    0.0495463    0.0271199    0.0435615
h     3.4359341    3.0679672    0.4623368  0.00   -0.2641482    0.0700351   -0.0825014
h     5.2173259    1.8341319    2.1684983  0.00    0.1495447    0.1056073   -0.1890734
h     3.6218631    2.2009958    2.4896851  0.00    0.0048020   -0.0057617   -0.0060348
h    -2.3651650    3.2113408    0.1755048  0.00   -0.0009400   -0.0000534    0.0000211
h    -2.2009502    0.7394775    0.0809133  0.00   -0.0042923   -0.0000770   -0.0001475
h    -0.3300395    4.5980850    0.0953466  0.00    0.0005705    0.0006974    0.0001871
h     1.8989560    3.5427162   -0.0860426  0.00    0.2580746   -0.0752728    0.0913273
h     2.2162410   -1.5136562   -0.4349322  0.00   -0.0200676   -0.0077055    0.0008160
o     5.7445500    2.9812069   -1.2396933  0.00   -0.0382172   -0.0364985    0.1396117
o     6.4643498    2.6091303    0.9623508  0.00   -0.2383778   -0.0777835    0.1941366
h     7.2271046    2.0425273    0.5531312  0.00    0.0137495   -0.0383573   -0.0157003
    27
 Energy =       0.2566183389
c    -1.3755367    2.7712850    0.1587423  0.00   -0.0185151    0.0144382    0.0010539
c    -1.3026163    1.3965907    0.1361180  0.00   -0.0331303   -0.0142454    0.0003825
c    -0.0657216    0.8218976    0.0310201  0.00   -0.0310823   -0.0637138    0.0003767
c    -0.2318462    3.5369102    0.0720427  0.00   -0.0079191    0.0274938    0.0011258
c     1.0033792    2.9375916   -0.0497929  0.00    0.0166785    0.0262731    0.0029725
c     1.0703816    1.5604033   -0.0731086  0.00    0.0224653    0.0227337    0.0013405
n     0.2444735   -0.5475470   -0.0343065  0.00    0.0451779    0.0363060   -0.0011105
c     2.1380178    0.7019103   -0.2331932  0.00    0.0581641   -0.0331557   -0.0101899
c     1.6475072   -0.5677343   -0.2262272  0.00   -0.0290306   -0.0336161    0.0017484
h    -0.4094637   -1.3525952    0.0378326  0.00    0.0060788    0.0087668   -0.0010009
c     3.5582117    1.1028571   -0.5467787  0.00   -0.0003567    0.0156093   -0.0026667
c     4.1280354    2.1515145    0.4220382  0.00   -0.0227965   -0.0089062   -0.0096847
h     3.5759057    1.5094666   -1.5822786  0.00    0.0012830    0.0010473    0.0011348
h     4.2128017    0.2020849   -0.5420042  0.00    0.0001267   -0.0012694   -0.0033826
c     5.5019851    2.6031261   -0.0552265  0.00    0.0600986    0.0295781   -0.1125860
n     4.2496287    1.5874674    1.7920978  0.00    0.0374362    0.0195883    0.0319729
h     3.4740379    3.0505205    0.4372021  0.00   -0.2047383    0.0546144   -0.0643917
h     5.2261934    1.7687820    2.1250120  0.00    0.1171484    0.0819825   -0.1460570
h     3.6138912    2.1011396    2.4389757  0.00    0.0029066   -0.0038962   -0.0036398
h    -2.3453563    3.2562599    0.2459412  0.00   -0.0009359   -0.0000683    0.0000218
h    -2.1998104    0.7848705    0.1988341  0.00   -0.0038353   -0.0005541   -0.0000942
h    -0.3030414    4.6222465    0.0940790  0.00    0.0004982    0.0007194    0.0001439
h     1.9087176    3.5452374   -0.1209161  0.00    0.2002142   -0.0576829    0.0707006
h     2.1959632   -1.4871330   -0.4031589  0.00   -0.0148408   -0.0056899    0.0004003
o     5.7480062    2.9362415   -1.3144392  0.00   -0.0287212   -0.0267308    0.1030090
o     6.4999270    2.5634059    0.8964025  0.00   -0.1949109   -0.0535838    0.1566818
h     7.3191416    2.1196848    0.4415258  0.00    0.0225366   -0.0360384   -0.0182617
    27
 Energy =       0.2227583665
c    -1.3570500    2.8193171    0.2400536  0.00   -0.0109583    0.0076307    0.0004733
c    -1.2981762    1.4499294    0.2313257  0.00   -0.0190508   -0.0080966   -0.0001781
c    -0.0792989    0.8623925    0.0957958  0.00   -0.0172289   -0.0356302   -0.0004700
c    -0.2108116    3.5670352    0.1113575  0.00   -0.0043457    0.0157291    0.0006595
c     1.0070982    2.9526225   -0.0399590  0.00    0.0103515    0.0149074    0.0019315
c     1.0514513    1.5829635   -0.0507477  0.00    0.0128710    0.0129385    0.0010605
n     0.2050559   -0.5195117    0.0423950  0.00    0.0242296    0.0200528    0.0003603
c     2.0970651    0.7258581   -0.2339637  0.00    0.0326337   -0.0180569   -0.0049644
c     1.6090492   -0.5369671   -0.1969742  0.00   -0.0156012   -0.0188697    0.0003084
h    -0.4531685   -1.3219410    0.1445370  0.00    0.0028643    0.0043820   -0.0003862
c     3.5144988    1.1000822   -0.6010489  0.00   -0.0006587    0.0081070   -0.0025525
c     4.1521422    2.0986636    0.3796998  0.00   -0.0119843   -0.0039655   -0.0057127
h     3.4997795    1.5371138   -1.6254083  0.00    0.0002549    0.0006914   -0.0004489
h     4.1484330    0.1839723   -0.6461686  0.00    0.0012199   -0.0018938   -0.0019963
c     5.5253368    2.5214107   -0.1151182  0.00    0.0341881    0.0148635   -0.0613487
n     4.2703807    1.4799613    1.7215477  0.00    0.0227756    0.0093835    0.0171423
h     3.5339773    3.0235191    0.4287648  0.00   -0.1330510    0.0367718   -0.0429013
h     5.2403811    1.6720898    2.0836067  0.00    0.0788744    0.0536332   -0.0936258
h     3.6037562    1.9423865    2.3813965  0.00   -0.0002841   -0.0012040    0.0002505
h    -2.3184664    3.3162381    0.3510984  0.00   -0.0009670   -0.0000033    0.0000358
h    -2.1977260    0.8475546    0.3293956  0.00   -0.0027462   -0.0006704   -0.0000475
h    -0.2681852    4.6532841    0.1240197  0.00    0.0003099    0.0005623    0.0000886
h     1.9167354    3.5478555   -0.1412059  0.00    0.1298307   -0.0368784    0.0460405
h     2.1699643   -1.4487675   -0.3808920  0.00   -0.0081984   -0.0031238    0.0000091
o     5.7456887    2.8829521   -1.4018002  0.00   -0.0168897   -0.0139631    0.0564256
o     6.5534538    2.5034516    0.8105430  0.00   -0.1433414   -0.0278922    0.1124624
h     7.4214486    2.2330177    0.3041834  0.00    0.0349023   -0.0294052   -0.0226161
    27
 Energy =       0.2145958268
c    -1.3594357    2.7904119    0.2967772  0.00   -0.0092999    0.0066878    0.0003781
c    -1.2896120    1.4228895    0.2624100  0.00   -0.0161387   -0.0068060   -0.0001386
c    -0.0695898    0.8476147    0.1001704  0.00   -0.0144606   -0.0296225   -0.0002886
c    -0.2213715    3.5483590    0.1684729  0.00   -0.0038163    0.0134057    0.0005291
c     0.9977157    2.9460600   -0.0082287  0.00    0.0088563    0.0126083    0.0015879
c     1.0514090    1.5789359   -0.0476456  0.00    0.0106961    0.0107318    0.0009252
n     0.2235365   -0.5326992    0.0140193  0.00    0.0202761    0.0163652    0.0002704
c     2.1002417    0.7372950   -0.2612876  0.00    0.0275706   -0.0152573   -0.0038908
c     1.6266060   -0.5298379   -0.2409953  0.00   -0.0128669   -0.0159316    0.0002657
h    -0.4262182   -1.3439893    0.1063386  0.00    0.0022940    0.0034832   -0.0003184
c     3.5111460    1.1302027   -0.6394012  0.00   -0.0007752    0.0065221   -0.0021202
c     4.1592245    2.0940256    0.3689206  0.00   -0.0092435   -0.0023635   -0.0053552
h     3.4803240    1.6043318   -1.6475665  0.00    0.0001973    0.0009292   -0.0012210
h     4.1482466    0.2185946   -0.7257082  0.00    0.0014508   -0.0023154   -0.0017822
c     5.5253838    2.5432379   -0.1192539  0.00    0.0274369    0.0111375   -0.0498260
n     4.2884702    1.4258953    1.6847126  0.00    0.0203956   -0.0009747    0.0054318
h     3.5440820    3.0185259    0.4554987  0.00   -0.1129934    0.0321250   -0.0368086
h     5.2243251    1.7035972    2.0942682  0.00    0.0751313    0.0486111   -0.0774840
h     3.5419433    1.7836333    2.3374271  0.00   -0.0104387    0.0033619    0.0087554
h    -2.3231480    3.2779716    0.4288873  0.00   -0.0010329    0.0001782    0.0000581
h    -2.1827706    0.8115964    0.3602383  0.00   -0.0023551   -0.0005909   -0.0000361
h    -0.2865078    4.6339003    0.2033969  0.00    0.0001835    0.0007587    0.0000878
h     1.9006628    3.5500796   -0.1035899  0.00    0.1100790   -0.0312718    0.0392591
h     2.1989006   -1.4303376   -0.4472899  0.00   -0.0066386   -0.0029143   -0.0000700
o     5.7331403    2.9577747   -1.3992329  0.00   -0.0134021   -0.0106034    0.0456222
o     6.5545047    2.5520502    0.8070636  0.00   -0.1222864   -0.0228073    0.0960743
h     7.4316041    2.3363646    0.2980315  0.00    0.0311808   -0.0254470   -0.0199057
    27
 Energy =       0.1991877346
c    -1.3549732    2.7987471    0.4112693  0.00   -0.0064309    0.0037696    0.0002114
c    -1.2834857    1.4339684    0.3724304  0.00   -0.0106942   -0.0037741   -0.0001433
c    -0.0723811    0.8619200    0.1618337  0.00   -0.0086676   -0.0180763   -0.0003045
c    -0.2246020    3.5567381    0.2402455  0.00   -0.0024328    0.0085407    0.0003024
c     0.9851664    2.9561767    0.0167530  0.00    0.0065196    0.0073179    0.0009219
c     1.0368175    1.5938319   -0.0269162  0.00    0.0070046    0.0065885    0.0006517
n     0.2178211   -0.5208531    0.0637481  0.00    0.0111762    0.0099628    0.0006448
c     2.0768253    0.7627565   -0.2784012  0.00    0.0173659   -0.0091387   -0.0019437
c     1.6151561   -0.5052451   -0.2397393  0.00   -0.0068454   -0.0096111   -0.0001746
h    -0.4252985   -1.3363957    0.1761736  0.00    0.0011029    0.0018336   -0.0001279
c     3.4764975    1.1600692   -0.6979529  0.00   -0.0010101    0.0036467   -0.0016473
c     4.1728330    2.0770306    0.3233863  0.00   -0.0059903   -0.0002373   -0.0036594
h     3.4131419    1.6719335   -1.6867477  0.00   -0.0002005    0.0009615   -0.0020796
h     4.1023966    0.2470324   -0.8408884  0.00    0.0019875   -0.0026201   -0.0012912
c     5.5378495    2.5096041   -0.1857866  0.00    0.0161559    0.0040712   -0.0288692