    27
 Energy =       0.2848762457
c    -1.4235396    2.6054793   -0.0667700  0.00   -0.0462610    0.0382865    0.0024596
c    -1.3072796    1.2134697   -0.1072300  0.00   -0.0852036   -0.0326079    0.0017574
c    -0.0178900    0.6711998   -0.1697000  0.00   -0.0892977   -0.1878895    0.0000399
c    -0.2940599    3.4190890   -0.0891300  0.00   -0.0231287    0.0689835    0.0026302
c     0.9872197    2.8590292   -0.1560400  0.00    0.0102962    0.0640523    0.0005881
c     1.1340797    1.4562096   -0.1970299  0.00    0.0527572    0.0513817    0.0028051
n     0.3879399   -0.6395298   -0.2140799  0.00    0.1451627    0.1097094   -0.0066481
c     2.2666594    0.5727398   -0.2659299  0.00    0.1557797   -0.0858065   -0.0019877
c     1.7555995   -0.7123598   -0.2706899  0.00   -0.0989790   -0.0965689    0.0029714
h    -0.2400399   -1.4313496   -0.2047299  0.00    0.0362947    0.0477633    0.0006319
c     3.7030089    1.0223397   -0.3320099  0.00   -0.0233003    0.0132863   -0.0342457
c     4.2197688    1.4064496   -1.7267995  0.00   -0.0718142    0.1050678    0.0493681
h     4.3261788    0.2093419    0.0639454  0.00   -0.0061890    0.0140452   -0.0047151
h     3.8370289    1.8640295    0.3610799  0.00   -0.0042707   -0.0127270   -0.0048977
c     3.7734089    0.3331939   -2.7369592  0.00    0.1339282   -0.3885136   -0.0430950
n     5.7205784    1.5052196   -1.8052095  0.00    0.0861751   -0.0343439   -0.0427445
h     3.7949889    2.3605393   -2.0604594  0.00    0.0152384   -0.0167585   -0.0013332
h     6.0814483    1.3602996   -0.8566008  0.00   -0.0324307   -0.0051023   -0.0266969
h     6.0587583    0.6873448   -2.3244293  0.00   -0.0476768    0.0206293    0.0155048
h    -2.4108593    3.0588691   -0.0157800  0.00   -0.0009074    0.0002991    0.0002377
h    -2.1896094    0.5822398   -0.0890100  0.00   -0.0036499    0.0037302    0.0003328
h    -0.4052699    4.5000487   -0.0535400  0.00    0.0008315    0.0003674    0.0005375
h     1.8590495    3.5066790   -0.1715100  0.00   -0.0008812    0.0031439    0.0010006
h     2.2327294   -1.6813195   -0.3062999  0.00   -0.0424239   -0.0115259    0.0048264
o     4.1225288   -0.8355638   -2.7317292  0.00   -0.0868189    0.2849778    0.0060544
o     2.9198892    0.8519998   -3.6604990  0.00    0.0206865    0.0316760    0.0390015
h     3.3595390    0.6900008   -4.5351887  0.00    0.0060825    0.0144444    0.0356164
    27
 Energy =       0.2340230741
c    -1.3648479    2.6228186   -0.0872872  0.00   -0.0271669    0.0223861    0.0014426
c    -1.2591813    1.2443718   -0.1186361  0.00   -0.0506624   -0.0194588    0.0010194
c     0.0045297    0.6954128   -0.1694049  0.00   -0.0516662   -0.1116834   -0.0002684
c    -0.2346564    3.4176682   -0.1082294  0.00   -0.0142241    0.0407489    0.0016146
c     1.0264967    2.8465183   -0.1625827  0.00    0.0060517    0.0383473    0.0002760
c     1.1395041    1.4628305   -0.1918917  0.00    0.0303703    0.0311763    0.0015020
n     0.3677508   -0.6467968   -0.2067272  0.00    0.0847195    0.0638559   -0.0040327
c     2.2453339    0.6072622   -0.2452789  0.00    0.0932413   -0.0505030   -0.0016450
c     1.7618910   -0.6714880   -0.2570564  0.00   -0.0603998   -0.0547471    0.0016529
h    -0.2650548   -1.4525958   -0.1941963  0.00    0.0217152    0.0285184    0.0004433
c     3.6942743    1.0272901   -0.3116016  0.00   -0.0142374    0.0071715   -0.0203220
c     4.1994173    1.3610205   -1.7295106  0.00   -0.0418607    0.0621265    0.0293232
h     4.3037358    0.2052309    0.1038610  0.00   -0.0039373    0.0081209   -0.0025069
h     3.8502049    1.8949382    0.3537430  0.00   -0.0027138   -0.0066782   -0.0025692
c     3.6961251    0.3197271   -2.7325332  0.00    0.0893790   -0.2315696   -0.0251985
n     5.6918809    1.4439131   -1.8008302  0.00    0.0507852   -0.0193346   -0.0249580
h     3.7832796    2.3279211   -2.0599612  0.00    0.0093547   -0.0100585   -0.0009583
h     6.0884222    1.2960652   -0.8567499  0.00   -0.0186766   -0.0038090   -0.0150886
h     6.0411235    0.6406783   -2.3555462  0.00   -0.0292125    0.0108076    0.0082452
h    -2.3483530    3.0854962   -0.0484720  0.00   -0.0007378    0.0002830   -0.0000196
h    -2.1439440    0.6166185   -0.1051432  0.00   -0.0022308    0.0022420    0.0000862
h    -0.3346154    4.5002398   -0.0848632  0.00    0.0003494    0.0004265    0.0001387
h     1.9100111    3.4777772   -0.1811078  0.00   -0.0004209    0.0019732    0.0004145
h     2.3108334   -1.6044381   -0.3133246  0.00   -0.0236193   -0.0082174    0.0029209
o     4.0515288   -0.9170064   -2.7194837  0.00   -0.0535386    0.1704416    0.0026384
o     2.7632689    0.7854617   -3.6243914  0.00   -0.0227376    0.0183949    0.0619856
h     3.2728954    0.8487539   -4.5151230  0.00    0.0320762    0.0090391   -0.0161361
    27
 Energy =       0.2301500378
c    -1.3668551    2.5746644   -0.0684710  0.00   -0.0265455    0.0217967    0.0014034
c    -1.2564528    1.1964220   -0.0719061  0.00   -0.0492607   -0.0193671    0.0009638
c     0.0076478    0.6514717   -0.1340249  0.00   -0.0495214   -0.1062040   -0.0005607
c    -0.2402125    3.3730175   -0.1226447  0.00   -0.0135017    0.0398471    0.0015699
c     1.0213629    2.8055608   -0.1870724  0.00    0.0060814    0.0374821    0.0002627
c     1.1378560    1.4227724   -0.1935164  0.00    0.0297478    0.0306939    0.0013990
n     0.3769614   -0.6920947   -0.1104662  0.00    0.0803633    0.0600732   -0.0035123
c     2.2454163    0.5729842   -0.2497933  0.00    0.0910422   -0.0483544   -0.0013620
c     1.7700867   -0.7079644   -0.2259411  0.00   -0.0563509   -0.0522579    0.0010109
h    -0.2505617   -1.5020339   -0.0406817  0.00    0.0194221    0.0255450    0.0006793
c     3.6907174    1.0004931   -0.3286509  0.00   -0.0167507    0.0066733   -0.0190992
c     4.1579838    1.4185603   -1.7378935  0.00   -0.0411063    0.0596275    0.0282164
h     4.3188181    0.1578874    0.0202726  0.00   -0.0026509    0.0057788   -0.0015672
h     3.8569362    1.8306815    0.3839029  0.00   -0.0027026   -0.0051524   -0.0011609
c     3.6946158    0.3915072   -2.7742436  0.00    0.0903357   -0.2268078   -0.0207493
n     5.6452555    1.5701964   -1.8212478  0.00    0.0508550   -0.0167522   -0.0245092
h     3.6912154    2.3791633   -2.0230413  0.00    0.0083760   -0.0073429   -0.0009422
h     6.0605304    1.4268034   -0.8838869  0.00   -0.0173489   -0.0037236   -0.0145183
h     6.0293556    0.7994314   -2.4009887  0.00   -0.0270989    0.0087249    0.0068912
h    -2.3513543    3.0344527   -0.0205017  0.00   -0.0007967    0.0002346   -0.0000167
h    -2.1382189    0.5652625   -0.0212223  0.00   -0.0027192    0.0016881    0.0001172
h    -0.3436598    4.4556782   -0.1178479  0.00    0.0004138    0.0006109    0.0001304
h     1.9027299    3.4391600   -0.2314484  0.00   -0.0000607    0.0021009    0.0003277
h     2.3254068   -1.6376660   -0.2729549  0.00   -0.0230632   -0.0081600    0.0027944
o     4.0436627   -0.8502231   -2.7534698  0.00   -0.0519286    0.1653983    0.0025903
o     2.8356190    0.8777864   -3.7318611  0.00   -0.0290755    0.0191791    0.0592040
h     3.3869920    0.8817145   -4.6027273  0.00    0.0338453    0.0086678   -0.0195622
    27
 Energy =       0.2175067664
c    -1.3225450    2.5482246    0.0076727  0.00   -0.0215560    0.0173345    0.0011045
c    -1.2127294    1.1738345    0.0271040  0.00   -0.0396723   -0.0158189    0.0005679
c     0.0439749    0.6282725   -0.0500411  0.00   -0.0397478   -0.0850455   -0.0012949
c    -0.1980497    3.3421658   -0.0826114  0.00   -0.0105781    0.0321893    0.0013203
c     1.0570680    2.7725385   -0.1644158  0.00    0.0052241    0.0302338    0.0002751
c     1.1662981    1.3953375   -0.1501973  0.00    0.0238385    0.0249416    0.0011371
n     0.4072111   -0.7219046    0.0018486  0.00    0.0624413    0.0483170   -0.0014800
c     2.2660845    0.5550884   -0.2286426  0.00    0.0722876   -0.0383884   -0.0005167
c     1.8020504   -0.7247740   -0.1793078  0.00   -0.0438737   -0.0413174   -0.0001607
h    -0.2172468   -1.5350286    0.1180714  0.00    0.0144613    0.0191388    0.0010029
c     3.7089080    0.9811540   -0.3719941  0.00   -0.0150510    0.0056279   -0.0135613
c     4.0873391    1.4551873   -1.7935134  0.00   -0.0354934    0.0467876    0.0209242
h     4.3615304    0.1243535   -0.0969082  0.00    0.0000271    0.0024947   -0.0005708
h     3.9162353    1.7858489    0.3623210  0.00   -0.0022398   -0.0034399    0.0004724
c     3.6136571    0.4467143   -2.8392702  0.00    0.0741965   -0.1815354   -0.0173795
n     5.5621773    1.6702836   -1.9327798  0.00    0.0420245   -0.0116469   -0.0222547
h     3.5664171    2.4064444   -2.0266784  0.00    0.0050952   -0.0035783   -0.0012731
h     6.0339927    1.5462208   -1.0151668  0.00   -0.0116419   -0.0034300   -0.0092577
h     5.9637253    0.9329378   -2.5491947  0.00   -0.0202379    0.0055364    0.0043860
h    -2.3055025    3.0097705    0.0680834  0.00   -0.0007572    0.0001469   -0.0000121
h    -2.0927247    0.5430655    0.1098102  0.00   -0.0025986    0.0010158    0.0001251
h    -0.2996397    4.4250290   -0.0945857  0.00    0.0004185    0.0006513    0.0001017
h     1.9392987    3.4024853   -0.2402047  0.00    0.0004568    0.0019248    0.0001327
h     2.3738782   -1.6436410   -0.2564766  0.00   -0.0179263   -0.0068756    0.0020165
o     3.9347730   -0.8234104   -2.8045442  0.00   -0.0416321    0.1318327    0.0026668
o     2.7898532    0.9417543   -3.8264372  0.00   -0.0351040    0.0183071    0.0627677
h     3.3058200    0.7977367   -4.7142698  0.00    0.0376387    0.0045959   -0.0312393
    27
 Energy =       0.2131718905
c    -1.2796601    2.5590207    0.0735080  0.00   -0.0192967    0.0152445    0.0009777
c    -1.1718714    1.1865415    0.1070613  0.00   -0.0352682   -0.0141229    0.0004363
c     0.0799536    0.6383629    0.0174826  0.00   -0.0354070   -0.0754846   -0.0013368
c    -0.1558636    3.3484803   -0.0436414  0.00   -0.0092529    0.0286451    0.0011791
c     1.0946160    2.7753572   -0.1403399  0.00    0.0047874    0.0268705    0.0002679
c     1.1987506    1.4007371   -0.1119243  0.00    0.0210468    0.0221796    0.0010480
n     0.4381161   -0.7151980    0.0775943  0.00    0.0546061    0.0430143   -0.0009417
c     2.2921445    0.5621471   -0.2096308  0.00    0.0631689   -0.0341607   -0.0000513
c     1.8309433   -0.7160606   -0.1433255  0.00   -0.0385502   -0.0364167   -0.0003879
h    -0.1851813   -1.5275811    0.2197586  0.00    0.0124390    0.0165460    0.0010252
c     3.7312506    0.9828169   -0.4124957  0.00   -0.0127764    0.0048090   -0.0112508
c     4.0498621    1.4458217   -1.8535650  0.00   -0.0324969    0.0418602    0.0183109
h     4.3932090    0.1261455   -0.1581649  0.00    0.0003183    0.0020930   -0.0003798
h     3.9704566    1.7937297    0.3063309  0.00   -0.0018034   -0.0027018    0.0009456
c     3.5276116    0.4370832   -2.8753676  0.00    0.0659645   -0.1608719   -0.0156386
n     5.5179834    1.6611957   -2.0511786  0.00    0.0382588   -0.0095648   -0.0211177
h     3.5198855    2.3971099   -2.0684683  0.00    0.0042821   -0.0030529   -0.0011975
h     6.0310241    1.5506742   -1.1520839  0.00   -0.0092394   -0.0031421   -0.0067469
h     5.8983167    0.9218671   -2.6809548  0.00   -0.0175036    0.0046084    0.0034836
h    -2.2606807    3.0232158    0.1440705  0.00   -0.0007478    0.0001126   -0.0000065
h    -2.0512377    0.5578540    0.2105915  0.00   -0.0024849    0.0007624    0.0001271
h    -0.2551615    4.4313894   -0.0667781  0.00    0.0004163    0.0006524    0.0000865
h     1.9771831    3.4017065   -0.2401094  0.00    0.0006506    0.0018803    0.0000940
h     2.4053836   -1.6315399   -0.2462504  0.00   -0.0155428   -0.0062818    0.0016811
o     3.8331081   -0.8463327   -2.8361978  0.00   -0.0371730    0.1163726    0.0022157
o     2.6746455    0.9262236   -3.8427508  0.00   -0.0331174    0.0163311    0.0572425
h     3.1470669    0.7449213   -4.7454990  0.00    0.0347220    0.0038182   -0.0300656
    27
 Energy =       0.2117070809
c    -1.2389908    2.5741844    0.1341247  0.00   -0.0183783    0.0141887    0.0009400
c    -1.1318793    1.2030588    0.1875892  0.00   -0.0332426   -0.0134698    0.0003925
c     0.1164685    0.6524601    0.0845301  0.00   -0.0333365   -0.0708545   -0.0014008
c    -0.1168540    3.3599281   -0.0157681  0.00   -0.0084561    0.0270891    0.0010921
c     1.1300317    2.7837734   -0.1280993  0.00    0.0047021    0.0253853    0.0002495
c     1.2318756    1.4107425   -0.0802249  0.00    0.0198006    0.0209387    0.0009996
n     0.4733045   -0.7016752    0.1649152  0.00    0.0502492    0.0404415   -0.0005335
c     2.3201603    0.5713110   -0.1945797  0.00    0.0586084   -0.0320793    0.0002840
c     1.8603831   -0.7051395   -0.1020758  0.00   -0.0355904   -0.0340781   -0.0006087
h    -0.1469687   -1.5113113    0.3419438  0.00    0.0110278    0.0147599    0.0011749
c     3.7530818    0.9859803   -0.4565390  0.00   -0.0114033    0.0043614   -0.0098653
c     4.0158929    1.4310301   -1.9155970  0.00   -0.0314693    0.0397251    0.0172781
h     4.4227392    0.1306516   -0.2173181  0.00    0.0004925    0.0019043   -0.0002505
h     4.0215660    1.8057268    0.2426185  0.00   -0.0014743   -0.0021529    0.0013860
c     3.4432224    0.4180205   -2.9063188  0.00    0.0621319   -0.1513777   -0.0146187
n     5.4770425    1.6362482   -2.1726690  0.00    0.0371089   -0.0080258   -0.0209993
h     3.4834574    2.3841213   -2.1174306  0.00    0.0038893   -0.0027923   -0.0011140
h     6.0271157    1.5395742   -1.2927060  0.00   -0.0077058   -0.0029692   -0.0050612
h     5.8297993    0.8866599   -2.8081457  0.00   -0.0159842    0.0038599    0.0027307
h    -2.2181320    3.0406000    0.2156414  0.00   -0.0007951    0.0000755    0.0000036
h    -2.0096281    0.5767376    0.3183915  0.00   -0.0026371    0.0004715    0.0001631
h    -0.2151807    4.4425714   -0.0540746  0.00    0.0004627    0.0007438    0.0000693
h     2.0114739    3.4070271   -0.2561688  0.00    0.0009443    0.0020173    0.0000440
h     2.4322564   -1.6204771   -0.2227379  0.00   -0.0143652   -0.0059616    0.0015059
o     3.7387164   -0.8722425   -2.8648883  0.00   -0.0350407    0.1089152    0.0019095
o     2.5525867    0.9003842   -3.8448828  0.00   -0.0326854    0.0154742    0.0536690
h     2.9883138    0.7057433   -4.7618587  0.00    0.0331466    0.0034097   -0.0294399
    27
 Energy =       0.1997619235
c    -1.1889469    2.5970113    0.2124336  0.00   -0.0112401    0.0091391    0.0004669
c    -1.1054505    1.2279950    0.2273617  0.00   -0.0200066   -0.0085595    0.0003159
c     0.1241677    0.6591206    0.1009603  0.00   -0.0193698   -0.0371440    0.0005201
c    -0.0565781    3.3624112    0.0716598  0.00   -0.0054136    0.0166990    0.0004274
c     1.1729142    2.7662960   -0.0626845  0.00    0.0029601    0.0158500   -0.0001263
c     1.2429862    1.3978404   -0.0490080  0.00    0.0117551    0.0128103    0.0006522
n     0.4391305   -0.7179390    0.0863948  0.00    0.0313005    0.0188030   -0.0017488
c     2.3074320    0.5563018   -0.1961823  0.00    0.0359956   -0.0186709    0.0002884
c     1.8415311   -0.7147207   -0.1447571  0.00   -0.0205739   -0.0195207    0.0005744
h    -0.2007088   -1.5307121    0.2041814  0.00    0.0048389    0.0064203    0.0009281
c     3.7436999    0.9512017   -0.4645336  0.00   -0.0075746    0.0026008   -0.0058816
c     3.9836066    1.4368415   -1.9157575  0.00   -0.0200389    0.0230759    0.0119795
h     4.4037049    0.0765115   -0.2648829  0.00    0.0008707    0.0003502   -0.0000723
h     4.0389300    1.7481425    0.2519598  0.00   -0.0005841   -0.0007682    0.0012327
c     3.4159869    0.4600770   -2.9433585  0.00    0.0444006   -0.0897275   -0.0102323
n     5.4345451    1.6865555   -2.1628385  0.00    0.0205594   -0.0009540   -0.0110605
h     3.4305798    2.3875345   -2.0822136  0.00    0.0020504   -0.0008094   -0.0006624
h     6.0011393    1.5508521   -1.2951839  0.00   -0.0041051   -0.0021231   -0.0017617
h     5.8093056    0.9967675   -2.8598208  0.00   -0.0077738   -0.0018505   -0.0028335
h    -2.1586942    3.0793544    0.3124550  0.00   -0.0006939    0.0003072    0.0001359
h    -1.9929886    0.6121914    0.3377808  0.00   -0.0016786   -0.0000541    0.0003049
h    -0.1344678    4.4477182    0.0599503  0.00    0.0002162    0.0010613    0.0000182
h     2.0658929    3.3740820   -0.1825040  0.00    0.0007643    0.0014199   -0.0000763
h     2.4236274   -1.6201104   -0.3007762  0.00   -0.0084341   -0.0042829    0.0009793
o     3.6299125   -0.8752814   -2.8597931  0.00   -0.0210750    0.0592480    0.0044512
o     2.6147725    0.9726563   -3.9539791  0.00   -0.0474486    0.0340999    0.0680206
h     2.9658243    0.5469901   -4.8491926  0.00    0.0402988   -0.0174204   -0.0568402
    27
 Energy =       0.1978966707
c    -1.1903695    2.6500091    0.1794784  0.00   -0.0093132    0.0074147    0.0004038
c    -1.1278346    1.2813699    0.1871061  0.00   -0.0163322   -0.0070902    0.0003072
c     0.0916356    0.6948981    0.0665822  0.00   -0.0156182   -0.0300188    0.0005351
c    -0.0458270    3.3975725    0.0513238  0.00   -0.0043964    0.0137127    0.0003304
c     1.1739586    2.7832424   -0.0753439  0.00    0.0025392    0.0129772   -0.0001430
c     1.2208158    1.4160089   -0.0678127  0.00    0.0095594    0.0103698    0.0005134
n     0.3816421   -0.6887658    0.0433409  0.00    0.0248763    0.0150472   -0.0015015
c     2.2725260    0.5630168   -0.2023058  0.00    0.0289259   -0.0151112    0.0002748
c     1.7911448   -0.7009805   -0.1593611  0.00   -0.0160806   -0.0158986    0.0003434
h    -0.2726724   -1.4937760    0.1436041  0.00    0.0035904    0.0048510    0.0007753
c     3.7209347    0.9361443   -0.4380982  0.00   -0.0059905    0.0023829   -0.0041748
c     4.0034121    1.3993465   -1.8901351  0.00   -0.0164899    0.0176933    0.0102550
h     4.3646073    0.0557060   -0.2100699  0.00    0.0010706   -0.0000979    0.0000644
h     4.0086140    1.7391501    0.2747779  0.00   -0.0005106   -0.0006044    0.0010875
c     3.4661215    0.4136821   -2.9269301  0.00    0.0390076   -0.0637534   -0.0084004
n     5.4590498    1.6557698   -2.0919454  0.00    0.0174224   -0.0002518   -0.0092338
h     3.4512039    2.3462425   -2.0839857  0.00    0.0013498   -0.0003635   -0.0005422
h     6.0045125    1.5072580   -1.2118889  0.00   -0.0029742   -0.0017270   -0.0008720
h     5.8570777    0.9827132   -2.7923056  0.00   -0.0061743   -0.0019646   -0.0027123
h    -2.1533538    3.1467459    0.2745007  0.00   -0.0007014    0.0003002    0.0001257
h    -2.0253470    0.6782594    0.2861784  0.00   -0.0015197   -0.0001740    0.0002682
h    -0.1065799    4.4840188    0.0447654  0.00    0.0001741    0.0010316    0.0000110
h     2.0779317    3.3769147   -0.1835992  0.00    0.0008172    0.0012872   -0.0000941
h     2.3702251   -1.6107673   -0.3032535  0.00   -0.0066591   -0.0034908    0.0006721
o     3.5627220   -0.9420101   -2.7441037  0.00   -0.0150740    0.0334386    0.0102133
o     2.7711263    0.9271450   -4.0196329  0.00   -0.0465007    0.0357653    0.0513012
h     3.1245774    0.4367747   -4.8732147  0.00    0.0350023   -0.0157255   -0.0498078
    27
 Energy =       0.1979427101
c    -1.1849806    2.6431108    0.1752784  0.00   -0.0092638    0.0073448    0.0004070
c    -1.1328749    1.2740856    0.1637497  0.00   -0.0160955   -0.0071601    0.0003073
c     0.0827745    0.6801324    0.0435375  0.00   -0.0153809   -0.0294615    0.0005401
c    -0.0338221    3.3836827    0.0666030  0.00   -0.0042002    0.0136306    0.0003105
c     1.1822445    2.7619073   -0.0589817  0.00    0.0025473    0.0129630   -0.0001473
c     1.2184898    1.3943692   -0.0715590  0.00    0.0094548    0.0102058    0.0004895
n     0.3612057   -0.7055340   -0.0006276  0.00    0.0244075    0.0145594   -0.0014820
c     2.2644359    0.5351085   -0.2097787  0.00    0.0283286   -0.0148288    0.0003127
c     1.7727795   -0.7256676   -0.1889181  0.00   -0.0158302   -0.0157793    0.0003548
h    -0.3008716   -1.5066897    0.0803500  0.00    0.0033052    0.0044817    0.0007880
c     3.7192661    0.8979919   -0.4228826  0.00   -0.0059946    0.0019091   -0.0035619
c     4.0206020    1.4137759   -1.8548628  0.00   -0.0157117    0.0177578    0.0102798
h     4.3487072   -0.0004219   -0.2244075  0.00    0.0012995   -0.0007198    0.0003519
h     4.0133203    1.6694627    0.3230361  0.00   -0.0001634    0.0001117    0.0017461
c     3.4566918    0.4914137   -2.9371101  0.00    0.0386782   -0.0618704   -0.0075345
n     5.4848324    1.6349685   -2.0398911  0.00    0.0158965    0.0022883   -0.0099805
h     3.4983656    2.3858202   -2.0102732  0.00    0.0008342    0.0010152   -0.0008707
h     6.0246451    1.4195359   -1.1675197  0.00   -0.0009356   -0.0023804    0.0021726
h     5.8628536    0.9881064   -2.7768999  0.00   -0.0056100   -0.0032477   -0.0041381
h    -2.1449074    3.1458165    0.2699084  0.00   -0.0007132    0.0003067    0.0001258
h    -2.0357540    0.6763590    0.2467447  0.00   -0.0016107   -0.0002940    0.0002742
h    -0.0862282    4.4706716    0.0752615  0.00    0.0002007    0.0011739    0.0000081
h     2.0915862    3.3503171   -0.1503142  0.00    0.0009543    0.0013893   -0.0001196
h     2.3465186   -1.6377622   -0.3394077  0.00   -0.0065381   -0.0034812    0.0006446
o     3.4963953   -0.8762598   -2.8108290  0.00   -0.0146327    0.0286751    0.0103638
o     2.7951784    1.0758605   -4.0182253  0.00   -0.0478200    0.0371864    0.0476144
h     3.1304006    0.5955278   -4.8843098  0.00    0.0345939   -0.0157756   -0.0492567
    27
 Energy =       0.1957811292
c    -1.2156171    2.6119827    0.1490493  0.00   -0.0091240    0.0071108    0.0004110
c    -1.1521292    1.2436529    0.1209624  0.00   -0.0156747   -0.0070814    0.0003146
c     0.0695729    0.6612371    0.0072217  0.00   -0.0149366   -0.0284577    0.0005511
c    -0.0694530    3.3632772    0.0626157  0.00   -0.0039367    0.0133514    0.0002908
c     1.1528914    2.7531043   -0.0557245  0.00    0.0026084    0.0126740   -0.0001567
c     1.2002356    1.3863948   -0.0842169  0.00    0.0092360    0.0099432    0.0004646
n     0.3603265   -0.7219234   -0.0549940  0.00    0.0233155    0.0139653   -0.0014382
c     2.2552723    0.5388405   -0.2177077  0.00    0.0273548   -0.0141433    0.0003006
c     1.7755889   -0.7264311   -0.2206788  0.00   -0.0151865   -0.0153907    0.0002947
h    -0.2959134   -1.5303774    0.0030436  0.00    0.0028781    0.0039442    0.0007890
c     3.7093422    0.9196152   -0.4023909  0.00   -0.0057014    0.0019570   -0.0033809
c     4.0273029    1.4375415   -1.8291903  0.00   -0.0160035    0.0176273    0.0104050
h     4.3477720    0.0301006   -0.1917641  0.00    0.0014085   -0.0007932    0.0003403
h     3.9793389    1.6960869    0.3478382  0.00   -0.0000996    0.0003079    0.0019092
c     3.5157806    0.4888019   -2.9160582  0.00    0.0366741   -0.0552861   -0.0074109
n     5.4886869    1.7009683   -1.9824077  0.00    0.0159311    0.0034133   -0.0093800
h     3.4791285    2.3928469   -2.0025697  0.00    0.0003983    0.0014709   -0.0007848
h     6.0146356    1.5119730   -1.0949779  0.00   -0.0001885   -0.0024073    0.0027321
h     5.9036236    1.0568106   -2.7026914  0.00   -0.0047516   -0.0039303   -0.0048740
h    -2.1807674    3.1056443    0.2385952  0.00   -0.0007653    0.0003094    0.0001288
h    -2.0510917    0.6374922    0.1852312  0.00   -0.0017369   -0.0004255    0.0002793
h    -0.1308781    4.4497077    0.0837593  0.00    0.0002267    0.0012628    0.0000067
h     2.0585744    3.3500069   -0.1290908  0.00    0.0011020    0.0014670   -0.0001315
h     2.3615841   -1.6308497   -0.3712264  0.00   -0.0062511   -0.0034526    0.0006049
o     3.6551484   -0.8773725   -2.8041994  0.00   -0.0135198    0.0213225    0.0101632
o     2.8303831    1.0390241   -4.0005113  0.00   -0.0466135    0.0365787    0.0452871
h     3.1625157    0.5475337   -4.8602449  0.00    0.0333563   -0.0153375   -0.0477160
    27
 Energy =       0.1932071992
c    -1.2430333    2.5816737    0.1233661  0.00   -0.0084966    0.0065081    0.0003916
c    -1.1712987    1.2146828    0.0739540  0.00   -0.0143911   -0.0066865    0.0003114
c     0.0544133    0.6412622   -0.0344305  0.00   -0.0137102   -0.0259293    0.0005720
c    -0.1004449    3.3405349    0.0628572  0.00   -0.0034050    0.0123782    0.0002457
c     1.1261511    2.7392801   -0.0491204  0.00    0.0025139    0.0117712   -0.0001629
c     1.1809512    1.3741926   -0.0984884  0.00    0.0085346    0.0091532    0.0004076
n     0.3536812   -0.7398572   -0.1196513  0.00    0.0209714    0.0125674   -0.0013634
c     2.2424440    0.5370153   -0.2287046  0.00    0.0248928   -0.0126633    0.0003044
c     1.7728663   -0.7310205   -0.2600038  0.00   -0.0137526   -0.0142060    0.0002489
h    -0.2984516   -1.5539184   -0.0885639  0.00    0.0022331    0.0031044    0.0007329
c     3.6965417    0.9318983   -0.3802924  0.00   -0.0051434    0.0018507   -0.0029398
c     4.0347660    1.4620249   -1.7971537  0.00   -0.0157220    0.0165935    0.0099648
h     4.3404131    0.0478632   -0.1631110  0.00    0.0013633   -0.0007574    0.0003030
h     3.9438645    1.7066464    0.3797926  0.00   -0.0000312    0.0004794    0.0019602
c     3.5780285    0.4983378   -2.8960400  0.00    0.0321117   -0.0458401   -0.0068661
n     5.4913942    1.7688535   -1.9122624  0.00    0.0155816    0.0043438   -0.0080728
h     3.4627836    2.4013036   -1.9832184  0.00    0.0000332    0.0017183   -0.0006186
h     6.0010914    1.5926264   -1.0126364  0.00    0.0002678   -0.0022038    0.0028064
h     5.9441451    1.1399060   -2.6239797  0.00   -0.0035767   -0.0043624   -0.0053523
h    -2.2120601    3.0684149    0.2086882  0.00   -0.0007493    0.0002829    0.0001222
h    -2.0675038    0.6023536    0.1164830  0.00   -0.0017880   -0.0005686    0.0002668
h    -0.1682436    4.4262073    0.1003158  0.00    0.0002556    0.0013174    0.0000053
h     2.0294617    3.3422823   -0.1011438  0.00    0.0012105    0.0015038   -0.0001323
h     2.3704329   -1.6277705   -0.4120131  0.00   -0.0056389   -0.0032302    0.0005339
o     3.8139016   -0.8605971   -2.8073647  0.00   -0.0113031    0.0133033    0.0091088
o     2.8783443    1.0206714   -3.9844721  0.00   -0.0426750    0.0337813    0.0411243
h     3.1972149    0.5108214   -4.8351350  0.00    0.0304135   -0.0142093   -0.0439021
    27
 Energy =       0.1903591389
c    -1.2662386    2.5552299    0.0988771  0.00   -0.0072854    0.0054847    0.0003421
c    -1.1891489    1.1904153    0.0245993  0.00   -0.0121136   -0.0058838    0.0002943
c     0.0385352    0.6234437   -0.0796033  0.00   -0.0115738   -0.0216917    0.0005979
c    -0.1259846    3.3183029    0.0666663  0.00   -0.0026165    0.0105827    0.0001737
c     1.1028309    2.7232225   -0.0401378  0.00    0.0022251    0.0101228   -0.0001659
c     1.1616135    1.3607510   -0.1140180  0.00    0.0072600    0.0077341    0.0003128
n     0.3427526   -0.7560226   -0.1905473  0.00    0.0172618    0.0102938   -0.0012474
c     2.2269103    0.5326524   -0.2422932  0.00    0.0207478   -0.0103186    0.0002953
c     1.7658844   -0.7362675   -0.3045817  0.00   -0.0114467   -0.0120821    0.0002374
h    -0.3066825   -1.5738319   -0.1882845  0.00    0.0014432    0.0020527    0.0006053
c     3.6814428    0.9376202   -0.3584704  0.00   -0.0042849    0.0015996   -0.0022438
c     4.0417694    1.4841409   -1.7628402  0.00   -0.0146282    0.0143923    0.0088990
h     4.3280818    0.0567826   -0.1370705  0.00    0.0011905   -0.0006506    0.0002543
h     3.9074659    1.7072074    0.4135518  0.00    0.0000382    0.0006037    0.0018626
c     3.6434240    0.5112054   -2.8764392  0.00    0.0250672   -0.0342285   -0.0057818
n     5.4904279    1.8375711   -1.8346607  0.00    0.0143901    0.0051754   -0.0059904
h     3.4459873    2.4063818   -1.9606068  0.00   -0.0003145    0.0018177   -0.0003942
h     5.9829466    1.6653525   -0.9248225  0.00    0.0005472   -0.0018143    0.0025976
h     5.9828449    1.2341097   -2.5428929  0.00   -0.0020090   -0.0046019   -0.0056465
h    -2.2378440    3.0371911    0.1809808  0.00   -0.0006580    0.0002318    0.0001051
h    -2.0835821    0.5743010    0.0436258  0.00   -0.0017116   -0.0006856    0.0002318
h    -0.1976876    4.4029041    0.1233456  0.00    0.0002734    0.0013094    0.0000055
h     2.0049315    3.3297160   -0.0687543  0.00    0.0012359    0.0014554   -0.0001198
h     2.3743993   -1.6253892   -0.4592182  0.00   -0.0046626   -0.0027807    0.0004368
o     3.9726547   -0.8341563   -2.8108136  0.00   -0.0080768    0.0053999    0.0072223
o     2.9351906    1.0058446   -3.9708314  0.00   -0.0360090    0.0289254    0.0349224
h     3.2289293    0.4670104   -4.8070889  0.00    0.0257103   -0.0124436   -0.0378063
    27
 Energy =       0.1873872728
c    -1.2850757    2.5336659    0.0761693  0.00   -0.0054710    0.0040312    0.0002607
c    -1.2054738    1.1722464   -0.0294956  0.00   -0.0087924   -0.0046856    0.0002562
c     0.0222232    0.6092840   -0.1307787  0.00   -0.0084785   -0.0156830    0.0006206
c    -0.1458631    3.2973302    0.0773241  0.00   -0.0015516    0.0079486    0.0000743
c     1.0832071    2.7057736   -0.0259196  0.00    0.0017313    0.0077177   -0.0001617
c     1.1425204    1.3472930   -0.1307806  0.00    0.0053955    0.0056383    0.0001747
n     0.3278874   -0.7685867   -0.2723751  0.00    0.0121661    0.0070743   -0.0010785
c     2.2090100    0.5271892   -0.2595162  0.00    0.0148708   -0.0070103    0.0002686
c     1.7550151   -0.7403479   -0.3586693  0.00   -0.0082684   -0.0090096    0.0002628
h    -0.3202031   -1.5880982   -0.3024600  0.00    0.0005221    0.0008043    0.0003997
c     3.6643279    0.9381847   -0.3373095  0.00   -0.0030758    0.0012314   -0.0013231
c     4.0491986    1.5030634   -1.7270460  0.00   -0.0124492    0.0108227    0.0070742
h     4.3111406    0.0586778   -0.1122307  0.00    0.0009052   -0.0004777    0.0001975
h     3.8696235    1.7003082    0.4477058  0.00    0.0000981    0.0006494    0.0015768
c     3.7139768    0.5246394   -2.8558461  0.00    0.0160436   -0.0214760   -0.0042541