23
UFF-Energy = 0.100075
C    -5.8343788    1.9597060   -0.4633176 
C    -5.7325067    0.6068263   -0.4582971 
C    -4.6039825    0.0089712   -0.0295598 
C    -4.7951514    2.7551037   -0.0266332 
C    -3.6571026    2.1098785    0.4116949 
C    -3.5713960    0.7559596    0.4064454 
H    -2.7687803    2.6470460    0.7239255 
H    -2.6675831    0.2605607    0.7458427 
H    -6.5629335   -0.0099916   -0.7847796 
H    -6.7901967    2.3700056   -0.7687590 
O    -4.5068968   -1.3793384   -0.0315718 
H    -4.1472328   -1.7081449   -0.9202793 
C    -4.8911433    4.1402388   -0.0263440 
C    -4.1210993    4.9170619    0.8134001 
C    -4.2208401    6.2684485    0.8093695 
C    -5.0811508    6.8850420   -0.0265783 
C    -5.8484274    6.1556432   -0.8622723 
C    -5.7610872    4.8034245   -0.8660127 
H    -6.3660508    4.2841427   -1.5998391 
H    -6.5317046    6.6572932   -1.5426229 
H    -3.4512861    4.4861507    1.5481312 
H    -3.6137005    6.8595316    1.4901350 
H    -5.1563488    7.9691940   -0.0265236 
