    24
 Energy =       0.2064191973
c     1.6703672    2.6182922    0.2614132  0.00    0.0451926    0.0678599    0.0348322
c     0.3248649    2.9356558    0.1418766  0.00   -0.0082662    0.1018533    0.0388405
c    -0.5827484    1.9945952   -0.3219261  0.00   -0.0874245    0.0437942   -0.0027311
c     2.1038063    1.3347474   -0.0833024  0.00    0.0668457   -0.0107409    0.0072589
c     1.2047783    0.3610782   -0.5608861  0.00    0.0117852   -0.1010521   -0.0391797
c    -0.1441045    0.7159142   -0.6796715  0.00   -0.0274322   -0.0725883   -0.0869659
o    -0.1504797    4.1703171    0.4675790  0.00   -0.0614231   -0.0488734    0.0183231
h    -0.7850651    4.0755150    1.1967033  0.00    0.0569049   -0.0069543   -0.0484456
h    -0.8895274    0.0262790   -1.0546636  0.00    0.0193769   -0.0002311   -0.0559299
h     3.1621727    1.0964802    0.0165124  0.00    0.0026642   -0.0003458   -0.0002896
h     2.3926004    3.3457758    0.6178375  0.00    0.0096603   -0.0073874   -0.0004052
h    -1.6336796    2.2563998   -0.4108671  0.00   -0.0028268   -0.0008204    0.0026854
c     1.7669373   -1.0073413   -0.8964724  0.00   -0.0331478    0.0283062   -0.0033919
c     0.8861134   -2.0194266   -1.6556448  0.00    0.0474689   -0.0486738    0.0834376
h     2.1212937   -1.4658931    0.0371405  0.00   -0.0011144    0.0106179   -0.0089364
h     2.6645729   -0.8285312   -1.5058794  0.00   -0.0114762    0.0072589    0.0120822
c     0.2877588   -1.3395944   -2.9073099  0.00   -0.1339136    0.3272547   -0.0801233
o    -0.0664180   -0.1744118   -2.9918994  0.00    0.0806851   -0.2435903    0.1347735
o     0.1608327   -2.2305444   -3.9280651  0.00    0.2021776   -0.2173846    0.1973622
h    -0.8152750   -2.3380565   -4.0597500  0.00    0.0315582   -0.0012529    0.0277788
n     1.5974427   -3.2508470   -2.1301054  0.00   -0.0580359   -0.0678837   -0.1116186
h     0.0358579   -2.3311629   -1.0380560  0.00    0.0157596   -0.0085213   -0.0170763
h     1.2905400   -4.0382287   -1.5473940  0.00    0.0021516    0.0274859   -0.0197864
h     1.2573657   -3.4835548   -3.0659095  0.00   -0.1671699    0.2218692   -0.0824947
    24
 Energy =       0.1642694099
c     1.6328171    2.5908417    0.2507431  0.00    0.0322097    0.0482544    0.0251365
c     0.2988447    2.9027552    0.1115443  0.00   -0.0040754    0.0637073    0.0287262
c    -0.6027619    1.9439267   -0.2985582  0.00   -0.0630157    0.0299256   -0.0014029
c     2.0712279    1.3117923   -0.0498834  0.00    0.0485475   -0.0087233    0.0048264
c     1.1851503    0.3369900   -0.5081823  0.00    0.0084642   -0.0730712   -0.0288943
c    -0.1603627    0.6670497   -0.6200452  0.00   -0.0202675   -0.0534247   -0.0627420
o    -0.1479853    4.1901004    0.3088259  0.00   -0.0363015   -0.0240969    0.0007069
h    -0.7606709    4.2258764    1.0880121  0.00    0.0312220   -0.0039095   -0.0225691
h    -0.8827499   -0.0431954   -1.0117731  0.00    0.0149863   -0.0025783   -0.0432717
h     3.1314716    1.0846916    0.0507107  0.00    0.0019966   -0.0003165   -0.0002161
h     2.3481749    3.3460737    0.5632475  0.00    0.0075990   -0.0040980    0.0000426
h    -1.6497209    2.2078894   -0.4173968  0.00   -0.0024217   -0.0001083    0.0021073
c     1.7518994   -1.0275397   -0.8426677  0.00   -0.0250385    0.0220302   -0.0028131
c     0.8921791   -1.9915260   -1.6817577  0.00    0.0329213   -0.0348220    0.0586045
h     2.0262159   -1.5236721    0.1062933  0.00   -0.0001030    0.0063237   -0.0030361
h     2.6974947   -0.8622581   -1.3926861  0.00   -0.0057641    0.0058788    0.0075871
c     0.3371906   -1.3086115   -2.9437778  0.00   -0.0975681    0.2374021   -0.0592055
o    -0.0223362   -0.0928599   -3.0179313  0.00    0.0580217   -0.1738569    0.0998983
o     0.1690467   -2.1996136   -3.9732552  0.00    0.1650440   -0.1666491    0.1473438
h    -0.8181487   -2.3769501   -4.0153762  0.00    0.0116674   -0.0024904    0.0209543
n     1.6450666   -3.1959855   -2.1250675  0.00   -0.0409175   -0.0462611   -0.0829444
h     0.0126241   -2.3217615   -1.1042085  0.00    0.0097512   -0.0061008   -0.0118095
h     1.3980599   -3.9893091   -1.5096713  0.00    0.0015387    0.0168103   -0.0121377
h     1.3072804   -3.4512472   -3.0658787  0.00   -0.1284969    0.1701745   -0.0648914
    24
 Energy =       0.1527284250
c     1.5959822    2.5803720    0.2938478  0.00    0.0285215    0.0429129    0.0221783
c     0.2589481    2.8725412    0.1697178  0.00   -0.0024759    0.0540157    0.0246644
c    -0.6236483    1.9138294   -0.2728089  0.00   -0.0559450    0.0261845   -0.0014788
c     2.0541993    1.3193555   -0.0387086  0.00    0.0433034   -0.0081479    0.0042752
c     1.1849738    0.3441274   -0.5172146  0.00    0.0069335   -0.0645777   -0.0255031
c    -0.1630712    0.6547064   -0.6248715  0.00   -0.0180457   -0.0482406   -0.0559331
o    -0.2153531    4.1397736    0.4460398  0.00   -0.0312431   -0.0168713   -0.0014693
h    -0.8089565    4.1121329    1.2467653  0.00    0.0253188   -0.0036510   -0.0166474
h    -0.8740984   -0.0574029   -1.0341801  0.00    0.0132956   -0.0026577   -0.0386489
h     3.1180677    1.1067394    0.0552618  0.00    0.0019195   -0.0003705   -0.0001854
h     2.2956440    3.3383260    0.6347840  0.00    0.0069379   -0.0031174    0.0002333
h    -1.6753639    2.1636501   -0.3800463  0.00   -0.0023263    0.0000867    0.0018813
c     1.7778884   -0.9984668   -0.8971303  0.00   -0.0229040    0.0188738   -0.0029224
c     0.9112845   -1.9657537   -1.7225443  0.00    0.0289726   -0.0306989    0.0519801
h     2.0990904   -1.5078389    0.0321629  0.00    0.0003224    0.0048545   -0.0016809
h     2.6993665   -0.7977816   -1.4802093  0.00   -0.0039812    0.0053519    0.0058421
c     0.3539739   -1.2924973   -2.9863509  0.00   -0.0867248    0.2105612   -0.0525083
o    -0.0062935   -0.0620620   -3.0601281  0.00    0.0514434   -0.1538741    0.0889789
o     0.1878237   -2.1796476   -4.0232818  0.00    0.1510541   -0.1484236    0.1311395
h    -0.7925262   -2.4103420   -4.0299488  0.00    0.0068737   -0.0028090    0.0187642
n     1.6725075   -3.1662777   -2.1529134  0.00   -0.0362435   -0.0408096   -0.0736291
h     0.0357796   -2.2941622   -1.1355711  0.00    0.0085912   -0.0053942   -0.0104436
h     1.4362149   -3.9568669   -1.5273191  0.00    0.0013600    0.0147632   -0.0106505
h     1.3375739   -3.4329971   -3.0940924  0.00   -0.1149580    0.1520391   -0.0582366
    24
 Energy =       0.1421726079
c     1.5060947    2.5709338    0.3504701  0.00    0.0247598    0.0375110    0.0191368
c     0.1650767    2.8285043    0.2250278  0.00   -0.0012798    0.0453337    0.0207735
c    -0.6844018    1.8607358   -0.2544255  0.00   -0.0487157    0.0223923   -0.0014616
c     2.0002783    1.3339377   -0.0054875  0.00    0.0378867   -0.0072854    0.0037231
c     1.1638903    0.3495255   -0.5124630  0.00    0.0057277   -0.0557013   -0.0216534
c    -0.1892281    0.6246712   -0.6304585  0.00   -0.0161246   -0.0422702   -0.0480040
o    -0.3498295    4.0695386    0.5588418  0.00   -0.0261205   -0.0107961   -0.0030927
h    -0.9176619    3.9873269    1.3801445  0.00    0.0199691   -0.0035842   -0.0114026
h    -0.8745136   -0.0965877   -1.0711793  0.00    0.0109074   -0.0031393   -0.0339147
h     3.0688809    1.1482070    0.0942507  0.00    0.0020836   -0.0004002   -0.0001145
h     2.1788352    3.3392896    0.7222480  0.00    0.0064408   -0.0019532    0.0005239
h    -1.7414229    2.0858766   -0.3649535  0.00   -0.0023484    0.0002176    0.0015920
c     1.8033798   -0.9633324   -0.9247151  0.00   -0.0196772    0.0153465   -0.0024096
c     0.9691075   -1.9349781   -1.7760401  0.00    0.0244867   -0.0257172    0.0445151
h     2.1378247   -1.4877674   -0.0076414  0.00    0.0002821    0.0039002   -0.0012782
h     2.7205565   -0.7197715   -1.5020620  0.00   -0.0026533    0.0047844    0.0044655
c     0.4198957   -1.2642343   -3.0406899  0.00   -0.0747646    0.1813190   -0.0455751
o     0.0491685   -0.0205097   -3.1068536  0.00    0.0443058   -0.1322233    0.0767827
o     0.2564571   -2.1456964   -4.0870413  0.00    0.1375545   -0.1283217    0.1134496
h    -0.7088920   -2.4457854   -4.0498700  0.00    0.0002242   -0.0038359    0.0167307
n     1.7721294   -3.1059036   -2.2018073  0.00   -0.0297024   -0.0334725   -0.0650496
h     0.0915762   -2.2933571   -1.2058743  0.00    0.0067479   -0.0047307   -0.0087458
h     1.5949681   -3.8975283   -1.5528307  0.00    0.0009740    0.0100709   -0.0072308
h     1.4278375   -3.3996376   -3.1353303  0.00   -0.1009639    0.1325558   -0.0517601
    24
 Energy =       0.1361731990
c     1.5851983    2.5619057    0.3342374  0.00    0.0228920    0.0344755    0.0176339
c     0.2479497    2.8427859    0.2358199  0.00   -0.0012314    0.0413595    0.0188721
c    -0.6255357    1.8918847   -0.2284312  0.00   -0.0448985    0.0203972   -0.0014431
c     2.0522550    1.3194304   -0.0354232  0.00    0.0350267   -0.0065818    0.0035685
c     1.1898286    0.3522082   -0.5277290  0.00    0.0053915   -0.0508744   -0.0195929
c    -0.1587199    0.6507360   -0.6143204  0.00   -0.0149441   -0.0384918   -0.0435886
o    -0.2362293    4.0930863    0.5842054  0.00   -0.0237432   -0.0092936   -0.0032343
h    -0.7831086    4.0237079    1.4227012  0.00    0.0178173   -0.0031503   -0.0097117
h    -0.8675731   -0.0589987   -1.0329814  0.00    0.0094734   -0.0031895   -0.0308553
h     3.1195449    1.1151060    0.0415698  0.00    0.0023608   -0.0004251   -0.0000531
h     2.2766981    3.3188183    0.6955080  0.00    0.0060914   -0.0015615    0.0005897
h    -1.6811626    2.1340645   -0.3165669  0.00   -0.0025618    0.0002532    0.0013923
c     1.7911364   -0.9738520   -0.9603116  0.00   -0.0177095    0.0142308   -0.0015519
c     0.9045115   -1.9362118   -1.7735121  0.00    0.0215610   -0.0227724    0.0397776
h     2.1516271   -1.5006443   -0.0536717  0.00    0.0004552    0.0035890   -0.0007338
h     2.6899915   -0.7492159   -1.5747913  0.00   -0.0015730    0.0044184    0.0035033
c     0.3466272   -1.2719013   -3.0387779  0.00   -0.0682925    0.1649840   -0.0417500
o    -0.0123901   -0.0169123   -3.1090814  0.00    0.0404099   -0.1204609    0.0695340
o     0.1720460   -2.1471287   -4.0890095  0.00    0.1281245   -0.1167155    0.1033645
h    -0.7807786   -2.4844227   -4.0189303  0.00   -0.0019184   -0.0040941    0.0155683
n     1.6685304   -3.1396777   -2.1854924  0.00   -0.0253333   -0.0299267   -0.0607404
h     0.0299777   -2.2544969   -1.1729747  0.00    0.0050666   -0.0045131   -0.0073718
h     1.4362149   -3.9293424   -1.5479742  0.00    0.0004675    0.0070873   -0.0050776
h     1.3433681   -3.4174722   -3.1328029  0.00   -0.0929322    0.1212557   -0.0480996
    24
 Energy =       0.1262735145
c     1.6610979    2.5429929    0.3281886  0.00    0.0189883    0.0283244    0.0145275
c     0.3290312    2.8441501    0.2675565  0.00   -0.0011238    0.0334839    0.0149959
c    -0.5664928    1.9140030   -0.1851206  0.00   -0.0370506    0.0166512   -0.0013764
c     2.1015814    1.3020425   -0.0676947  0.00    0.0290775   -0.0054307    0.0031399
c     1.2145509    0.3561069   -0.5474841  0.00    0.0046466   -0.0414884   -0.0157015
c    -0.1282151    0.6742984   -0.5921343  0.00   -0.0123223   -0.0313777   -0.0355778
o    -0.1246899    4.0975816    0.6504098  0.00   -0.0185571   -0.0066416   -0.0047104
h    -0.6243555    4.0315909    1.5226638  0.00    0.0131466   -0.0024241   -0.0052794
h    -0.8601242   -0.0218550   -0.9897319  0.00    0.0074354   -0.0029278   -0.0251911
h     3.1675755    1.0815941   -0.0212339  0.00    0.0025446   -0.0004760    0.0000059
h     2.3696191    3.2871160    0.6826825  0.00    0.0051381   -0.0010700    0.0005900
h    -1.6208603    2.1714442   -0.2427003  0.00   -0.0026920    0.0003404    0.0010717
c     1.7781081   -0.9765247   -1.0166258  0.00   -0.0140878    0.0117540   -0.0007644
c     0.8370166   -1.9240953   -1.7905670  0.00    0.0167195   -0.0179978    0.0314387
h     2.1726289   -1.5138284   -0.1289675  0.00    0.0007886    0.0028033    0.0001453
h     2.6514533   -0.7632568   -1.6730131  0.00   -0.0002931    0.0035680    0.0020712
c     0.2681251   -1.2669343   -3.0545290  0.00   -0.0563888    0.1337411   -0.0338820
o    -0.0831983    0.0060385   -3.1236391  0.00    0.0326420   -0.0977259    0.0566335
o     0.0747642   -2.1309082   -4.1129856  0.00    0.1191528   -0.0915566    0.0823474
h    -0.8393356   -2.5632845   -3.9688076  0.00   -0.0136791   -0.0083775    0.0155507
n     1.5646751   -3.1553566   -2.1857313  0.00   -0.0195094   -0.0245130   -0.0505803
h    -0.0304978   -2.2034233   -1.1577148  0.00    0.0030713   -0.0038226   -0.0053112
h     1.2942761   -3.9362781   -1.5494530  0.00    0.0001204    0.0047234   -0.0034066
h     1.2532739   -3.4297566   -3.1421077  0.00   -0.0777679    0.1004402   -0.0407367
    24
 Energy =       0.1132122152
c     1.6576524    2.5085147    0.3724395  0.00    0.0131704    0.0201372    0.0100376
c     0.3296429    2.8078481    0.3247963  0.00   -0.0005618    0.0230184    0.0100695
c    -0.5614216    1.8917642   -0.1496384  0.00   -0.0259684    0.0116626   -0.0010411
c     2.0988163    1.2831114   -0.0521863  0.00    0.0204381   -0.0040147    0.0022008
c     1.2152597    0.3507935   -0.5486197  0.00    0.0031192   -0.0292069   -0.0107562
c    -0.1246120    0.6671949   -0.5846435  0.00   -0.0086175   -0.0226546   -0.0254364
o    -0.1230042    4.0491081    0.7527683  0.00   -0.0108411   -0.0029193   -0.0082398
h    -0.5523643    3.9664959    1.6667638  0.00    0.0067978   -0.0022797    0.0017585
h    -0.8562534   -0.0183249   -0.9999156  0.00    0.0054742   -0.0024179   -0.0188981
h     3.1647119    1.0636579   -0.0129557  0.00    0.0018099   -0.0003673    0.0000029
h     2.3623322    3.2467647    0.7449144  0.00    0.0036382   -0.0005428    0.0004968
h    -1.6153411    2.1502050   -0.1992672  0.00   -0.0019131    0.0003087    0.0007614
c     1.7800083   -0.9720597   -1.0488671  0.00   -0.0098261    0.0079182   -0.0007076
c     0.8318224   -1.9088504   -1.8263695  0.00    0.0114259   -0.0123937    0.0217526
h     2.1835430   -1.5254419   -0.1744005  0.00    0.0006263    0.0017875    0.0002431
h     2.6461256   -0.7484434   -1.7119525  0.00   -0.0001461    0.0024786    0.0013328
c     0.2755724   -1.2561631   -3.0940752  0.00   -0.0406605    0.0912128   -0.0227561
o    -0.0285857    0.0499692   -3.1762660  0.00    0.0235503   -0.0656384    0.0409926
o     0.0554776   -2.1093207   -4.1586422  0.00    0.1118626   -0.0591530    0.0572942
h    -0.9321494   -2.4045314   -4.1046918  0.00   -0.0334303   -0.0148105    0.0140488
n     1.5583352   -3.1461161   -2.1943261  0.00   -0.0132264   -0.0165934   -0.0352862
h    -0.0417047   -2.1746886   -1.1938899  0.00    0.0020454   -0.0026449   -0.0036553
h     1.2593485   -3.9246045   -1.5654693  0.00   -0.0001839    0.0028475   -0.0018894
h     1.2767954   -3.4234256   -3.1642461  0.00   -0.0585831    0.0742656   -0.0323254
    24
 Energy =       0.1043997729
c     1.5947348    2.4729869    0.4513085  0.00    0.0094274    0.0148594    0.0070954
c     0.2674844    2.7578890    0.3879825  0.00    0.0000371    0.0161606    0.0071052
c    -0.6013512    1.8489298   -0.1315058  0.00   -0.0186643    0.0078872   -0.0008304
c     2.0574278    1.2687066    0.0017228  0.00    0.0147831   -0.0027208    0.0016207
c     1.1963268    0.3430471   -0.5356287  0.00    0.0019416   -0.0209430   -0.0072844
c    -0.1444023    0.6449604   -0.5920057  0.00   -0.0066364   -0.0166285   -0.0178203
o    -0.2067004    3.9802498    0.8501734  0.00   -0.0063082   -0.0001390   -0.0084487
h    -0.5818391    3.8773561    1.7882728  0.00    0.0035019   -0.0022728    0.0043132
h    -0.8595843   -0.0345663   -1.0463370  0.00    0.0033419   -0.0024744   -0.0145946
h     3.1246635    1.0605069    0.0561850  0.00    0.0014896   -0.0001995    0.0000534
h     2.2816970    3.2095527    0.8590250  0.00    0.0029962    0.0002237    0.0006421
h    -1.6562763    2.0986086   -0.1954540  0.00   -0.0015073    0.0001992    0.0004949
c     1.7885355   -0.9608616   -1.0577276  0.00   -0.0067174    0.0052745   -0.0001494
c     0.8670796   -1.8889386   -1.8768974  0.00    0.0079699   -0.0089986    0.0149290
h     2.1788337   -1.5321386   -0.1881808  0.00    0.0004594    0.0011582    0.0004164
h     2.6662466   -0.7134623   -1.6980794  0.00    0.0003657    0.0018804    0.0005406
c     0.3435619   -1.2265623   -3.1511346  0.00   -0.0293476    0.0608772   -0.0154101
o     0.1023093    0.1078202   -3.2430020  0.00    0.0171041   -0.0424540    0.0289759
o     0.0969870   -2.0652946   -4.2234448  0.00    0.0964151   -0.0405051    0.0412129
h    -0.9209413   -2.2457783   -4.2446669  0.00   -0.0385453   -0.0145006    0.0106271
n     1.6154584   -3.1162355   -2.2263996  0.00   -0.0090571   -0.0115241   -0.0244159
h    -0.0240019   -2.1655855   -1.2717261  0.00    0.0009104   -0.0018960   -0.0022315
h     1.3105676   -3.8992480   -1.6049270  0.00   -0.0001922    0.0019299   -0.0012579
h     1.3631902   -3.3984853   -3.2062929  0.00   -0.0437675    0.0548061   -0.0255836
    24
 Energy =       0.0999613443
c     1.5310349    2.4443423    0.5176097  0.00    0.0079249    0.0120915    0.0057281
c     0.2052336    2.7209505    0.4229285  0.00    0.0002643    0.0129830    0.0057048
c    -0.6410866    1.8182134   -0.1399015  0.00   -0.0152532    0.0057860   -0.0008497
c     2.0145292    1.2539668    0.0590045  0.00    0.0121822   -0.0018110    0.0014784
c     1.1763006    0.3340348   -0.5190157  0.00    0.0014933   -0.0168628   -0.0055373
c    -0.1637026    0.6283704   -0.6109354  0.00   -0.0060949   -0.0133827   -0.0138337
o    -0.2901969    3.9304477    0.8981636  0.00   -0.0048334    0.0004571   -0.0065497
h    -0.6584410    3.8144357    1.8371957  0.00    0.0026645   -0.0018379    0.0035575
h    -0.8607074   -0.0453994   -1.1019901  0.00    0.0020010   -0.0024831   -0.0122816
h     3.0813485    1.0520216    0.1406651  0.00    0.0016049   -0.0000798    0.0001415
h     2.2002651    3.1782451    0.9588561  0.00    0.0028545    0.0006605    0.0007817
h    -1.6953333    2.0629377   -0.2299013  0.00   -0.0015727    0.0001049    0.0002913
c     1.7933437   -0.9580149   -1.0439554  0.00   -0.0051139    0.0042674    0.0004867
c     0.9034290   -1.8752298   -1.9099976  0.00    0.0061786   -0.0077394    0.0114234
h     2.1567609   -1.5431527   -0.1713927  0.00    0.0004869    0.0008289    0.0007969
h     2.6911088   -0.6964072   -1.6513818  0.00    0.0009599    0.0016640   -0.0000336
c     0.4200722   -1.1966871   -3.1907053  0.00   -0.0233151    0.0436861   -0.0118029
o     0.2610624    0.1585916   -3.2949988  0.00    0.0135153   -0.0284898    0.0220684
o     0.1468318   -2.0223846   -4.2676504  0.00    0.0829533   -0.0320279    0.0329091
h    -0.8780326   -2.1246177   -4.3319284  0.00   -0.0364624   -0.0127104    0.0083709
n     1.6702186   -3.0937583   -2.2466749  0.00   -0.0065349   -0.0084946   -0.0187044
h    -0.0073504   -2.1635252   -1.3385577  0.00    0.0000270   -0.0016338   -0.0013240
h     1.3483812   -3.8858255   -1.6443998  0.00   -0.0004166    0.0011257   -0.0005796
h     1.4549378   -3.3680980   -3.2397767  0.00   -0.0355135    0.0438979   -0.0222420
    24
 Energy =       0.0982026170
c     1.4856535    2.4246916    0.5598311  0.00    0.0072872    0.0104710    0.0050088
c     0.1632945    2.7016861    0.4316254  0.00    0.0002409    0.0113321    0.0049564
c    -0.6661424    1.8058027   -0.1647431  0.00   -0.0135213    0.0046737   -0.0008914
c     1.9820900    1.2400318    0.1035771  0.00    0.0108670   -0.0013198    0.0014345
c     1.1608797    0.3263279   -0.5058675  0.00    0.0014302   -0.0146554   -0.0045728
c    -0.1756809    0.6222770   -0.6351843  0.00   -0.0060265   -0.0115028   -0.0117628
o    -0.3456254    3.9057587    0.9069584  0.00   -0.0040826    0.0005256   -0.0056643
h    -0.7258564    3.7837085    1.8402776  0.00    0.0022082   -0.0015672    0.0032024
h    -0.8584992   -0.0453912   -1.1539453  0.00    0.0013260   -0.0023655   -0.0109841
h     3.0464171    1.0373601    0.2135491  0.00    0.0018041   -0.0000429    0.0002101
h     2.1418015    3.1545957    1.0267731  0.00    0.0027851    0.0008084    0.0008334
h    -1.7175754    2.0517964   -0.2820203  0.00   -0.0017469    0.0000739    0.0001559
c     1.7927884   -0.9623719   -1.0224545  0.00   -0.0042598    0.0038163    0.0008187
c     0.9277902   -1.8687735   -1.9248521  0.00    0.0051902   -0.0071810    0.0095988
h     2.1279339   -1.5565866   -0.1442897  0.00    0.0005556    0.0005924    0.0011092
h     2.7093949   -0.6971176   -1.6003562  0.00    0.0013183    0.0015534   -0.0003394
c     0.4793031   -1.1756519   -3.2095154  0.00   -0.0200018    0.0318327   -0.0095794
o     0.4198156    0.1933405   -3.3318688  0.00    0.0115781   -0.0177313    0.0181469
o     0.1711359   -1.9922092   -4.2846721  0.00    0.0724825   -0.0283715    0.0282240
h    -0.8538145   -2.0538804   -4.3541792  0.00   -0.0324363   -0.0111532    0.0071157
n     1.7055915   -3.0820124   -2.2535715  0.00   -0.0050148   -0.0065194   -0.0155709
h     0.0015961   -2.1641373   -1.3813619  0.00   -0.0004118   -0.0015042   -0.0008719
h     1.3637491   -3.8832048   -1.6737846  0.00   -0.0006836    0.0004211    0.0000116
h     1.5239669   -3.3425828   -3.2586656  0.00   -0.0308879    0.0378137   -0.0205894
    24
 Energy =       0.0985282542
c     1.4953168    2.4241481    0.5576040  0.00    0.0067980    0.0094350    0.0045443
c     0.1779757    2.7127871    0.4093996  0.00    0.0001704    0.0102802    0.0044931
c    -0.6485312    1.8275061   -0.2051120  0.00   -0.0123733    0.0041181   -0.0008680
c     1.9891269    1.2378109    0.1046781  0.00    0.0099544   -0.0011415    0.0013450
c     1.1703944    0.3334665   -0.5203595  0.00    0.0015352   -0.0132429   -0.0040201
c    -0.1605430    0.6429432   -0.6733604  0.00   -0.0058674   -0.0103432   -0.0108072
o    -0.3284754    3.9188125    0.8825216  0.00   -0.0036763    0.0004955   -0.0051784
h    -0.7179678    3.7979848    1.8120649  0.00    0.0019595   -0.0014253    0.0029586
h    -0.8417164   -0.0162370   -1.2038650  0.00    0.0011916   -0.0022505   -0.0102010
h     3.0499709    1.0259406    0.2302083  0.00    0.0018001   -0.0000522    0.0002174
h     2.1497032    3.1468421    1.0378135  0.00    0.0026200    0.0007810    0.0007930
h    -1.6958285    2.0831178   -0.3382173  0.00   -0.0017610    0.0000732    0.0001039
c     1.8014723   -0.9572101   -1.0341047  0.00   -0.0037426    0.0034426    0.0008051
c     0.9275735   -1.8752422   -1.9161954  0.00    0.0045766   -0.0055301    0.0092094
h     2.1532744   -1.5427706   -0.1565541  0.00    0.0005458    0.0004642    0.0011490
h     2.7073648   -0.6905280   -1.6284190  0.00    0.0012995    0.0014913   -0.0004048
c     0.4541612   -1.1956872   -3.1963979  0.00   -0.0180444    0.0181217   -0.0046570
o     0.5492569    0.1764027   -3.3823663  0.00    0.0130837    0.0017130    0.0179794
o     0.0265336   -2.0299089   -4.2234330  0.00    0.0686126   -0.0335036    0.0199289
h    -1.0031142   -2.0825747   -4.2044074  0.00   -0.0357549   -0.0103386    0.0059845
n     1.7087689   -3.0817102   -2.2572096  0.00    0.0015608    0.0028583   -0.0117530
h     0.0128516   -2.1752055   -1.3554172  0.00   -0.0006452   -0.0013281   -0.0006903
h     1.4449149   -3.8628836   -1.6038756  0.00   -0.0031374   -0.0061826    0.0064840
h     1.4375238   -3.3943470   -3.2337358  0.00   -0.0307055    0.0320645   -0.0274158
    24
 Energy =       0.0994908128
c     1.4260816    2.4281111    0.5766399  0.00    0.0064706    0.0086928    0.0042547
c     0.1092456    2.7015260    0.3996578  0.00    0.0001236    0.0093870    0.0040673
c    -0.6927329    1.8080113   -0.2346602  0.00   -0.0115815    0.0036994   -0.0008675
c     1.9435734    1.2487239    0.1336663  0.00    0.0093718   -0.0010114    0.0013233
c     1.1497316    0.3360534   -0.5101743  0.00    0.0014352   -0.0121585   -0.0034901
c    -0.1807751    0.6301563   -0.6935732  0.00   -0.0057990   -0.0094852   -0.0099087
o    -0.4218756    3.9007402    0.8639494  0.00   -0.0034293    0.0008247   -0.0046068
h    -0.8230997    3.7759756    1.7879020  0.00    0.0016906   -0.0012566    0.0028076
h    -0.8425616   -0.0374781   -1.2378141  0.00    0.0008863   -0.0021871   -0.0094816
h     3.0038846    1.0489536    0.2830249  0.00    0.0019966   -0.0000818    0.0002644
h     2.0610660    3.1578358    1.0721892  0.00    0.0025980    0.0009120    0.0008629
h    -1.7399504    2.0517028   -0.3901925  0.00   -0.0019193    0.0001161    0.0000327
c     1.8077144   -0.9476544   -1.0078042  0.00   -0.0031792    0.0032409    0.0011871
c     0.9710533   -1.8692058   -1.9223401  0.00    0.0035882   -0.0047219    0.0083476
h     2.1374253   -1.5340567   -0.1220849  0.00    0.0005991    0.0004150    0.0013506
h     2.7296472   -0.6706091   -1.5731034  0.00    0.0016736    0.0014095   -0.0006846
c     0.5115200   -1.1809117   -3.2014704  0.00   -0.0176674    0.0128913   -0.0034792
o     0.6855766    0.1835720   -3.4064855  0.00    0.0122508    0.0056810    0.0156845
o     0.0610623   -2.0065979   -4.2257572  0.00    0.0783763   -0.0294480    0.0152751
h    -0.9599587   -2.1606650   -4.1104709  0.00   -0.0482181   -0.0105538    0.0078201
n     1.7883599   -3.0514977   -2.2666367  0.00    0.0037128    0.0051083   -0.0087776
h     0.0514346   -2.1968661   -1.3842584  0.00   -0.0011609   -0.0013356   -0.0003392
h     1.5023729   -3.8612259   -1.6572779  0.00   -0.0037700   -0.0073601    0.0075327
h     1.5812120   -3.3311361   -3.2716654  0.00   -0.0280488    0.0272220   -0.0291753
    24
 Energy =       0.0966211783
c     1.4794998    2.4106347    0.5880018  0.00    0.0060750    0.0081458    0.0040265
c     0.1608853    2.6937060    0.4425851  0.00   -0.0000266    0.0085927    0.0036227
c    -0.6584835    1.8141742   -0.1878794  0.00   -0.0109104    0.0035789   -0.0007801
c     1.9820033    1.2362223    0.1151576  0.00    0.0089169   -0.0011663    0.0012106
c     1.1701904    0.3378382   -0.5257468  0.00    0.0015139   -0.0113038   -0.0030479
c    -0.1624781    0.6407900   -0.6738003  0.00   -0.0056825   -0.0087947   -0.0091028
o    -0.3538779    3.8891155    0.9353662  0.00   -0.0031507    0.0013244   -0.0046395
h    -0.7277092    3.7561801    1.8700487  0.00    0.0012125   -0.0011576    0.0032782
h    -0.8393771   -0.0154727   -1.2130387  0.00    0.0008342   -0.0021943   -0.0089571
h     3.0443347    1.0288241    0.2387819  0.00    0.0021855   -0.0001917    0.0002681
h     2.1280650    3.1295362    1.0816978  0.00    0.0024641    0.0009404    0.0008627
h    -1.7075820    2.0653196   -0.3180665  0.00   -0.0020954    0.0002254    0.0000003
c     1.8101156   -0.9418643   -1.0578195  0.00   -0.0027589    0.0031087    0.0012802
c     0.9383165   -1.8622958   -1.9418933  0.00    0.0026630   -0.0028243    0.0080495
h     2.1725357   -1.5314924   -0.1863079  0.00    0.0007760    0.0001863    0.0018093
h     2.7112735   -0.6629544   -1.6552431  0.00    0.0020948    0.0013199   -0.0010739
c     0.4797246   -1.1890974   -3.2328830  0.00   -0.0172584    0.0014955   -0.0022622
o     0.5268235    0.1956697   -3.4042246  0.00    0.0116793    0.0159914    0.0133418
o     0.0568037   -2.0172749   -4.2666692  0.00    0.0887571   -0.0260747    0.0112688
h    -0.9886562   -2.0604765   -4.2455901  0.00   -0.0615399   -0.0100489    0.0088024
n     1.7186370   -3.0775077   -2.2579826  0.00    0.0069172    0.0089108   -0.0062876
h     0.0158384   -2.1528328   -1.3866900  0.00   -0.0018067   -0.0013168    0.0001446
h     1.4523234   -3.8459496   -1.5853904  0.00   -0.0048939   -0.0101629    0.0100359
h     1.4508011   -3.4173346   -3.2311539  0.00   -0.0259662    0.0214159   -0.0318505
    24
 Energy =       0.0919006555
c     1.5331886    2.3840392    0.6039975  0.00    0.0050150    0.0066368    0.0033437
c     0.2129453    2.6751707    0.4999076  0.00   -0.0002917    0.0067409    0.0026684
c    -0.6261949    1.8108012   -0.1226236  0.00   -0.0089887    0.0030803   -0.0006074
c     2.0183472    1.2181068    0.0945078  0.00    0.0075223   -0.0013149    0.0009221
c     1.1859729    0.3355172   -0.5398911  0.00    0.0018455   -0.0091578   -0.0022869
c    -0.1489442    0.6445563   -0.6405367  0.00   -0.0049704   -0.0069442   -0.0070492
o    -0.2828372    3.8643132    1.0274735  0.00   -0.0022706    0.0019536   -0.0049887
h    -0.6122557    3.7232233    1.9784413  0.00    0.0002284   -0.0010213    0.0043528
h    -0.8449575   -0.0020059   -1.1659023  0.00    0.0005205   -0.0020520   -0.0072734
h     3.0827887    1.0042122    0.1852796  0.00    0.0022639   -0.0003297    0.0002400
h     2.1971390    3.0913008    1.0934264  0.00    0.0020497    0.0008642    0.0007711
h    -1.6778310    2.0675228   -0.2184391  0.00   -0.0022320    0.0003768   -0.0000428
c     1.8031893   -0.9403843   -1.1085075  0.00   -0.0017512    0.0022478    0.0008966
c     0.9012622   -1.8483037   -1.9763641  0.00    0.0014549   -0.0006768    0.0067528
h     2.1854862   -1.5412088   -0.2530669  0.00    0.0007459   -0.0000070    0.0017306
h     2.6900453   -0.6617494   -1.7262367  0.00    0.0018557    0.0009698   -0.0010601
c     0.4533625   -1.1782481   -3.2763678  0.00   -0.0124135   -0.0082174   -0.0016486
o     0.3800080    0.2133552   -3.4050696  0.00    0.0084849    0.0222416    0.0098476
o     0.0564879   -1.9956639   -4.3282439  0.00    0.0837860   -0.0201424    0.0077738
h    -0.9861102   -1.9377283   -4.4043432  0.00   -0.0633687   -0.0075010    0.0069565
n     1.6446956   -3.0931966   -2.2647940  0.00    0.0086851    0.0106409   -0.0032732
h    -0.0268564   -2.1049554   -1.4141959  0.00   -0.0020013   -0.0010197    0.0004647
h     1.4015689   -3.8193681   -1.5377698  0.00   -0.0050414   -0.0107412    0.0106645
h     1.3195069   -3.4858491   -3.1994219  0.00   -0.0211283    0.0133727   -0.0291549
    24
 Energy =       0.0876163983
c     1.5721221    2.3771705    0.5932543  0.00    0.0037832    0.0049573    0.0025354
c     0.2550292    2.6831039    0.5076870  0.00   -0.0002599    0.0049521    0.0019038