    27
 Energy =       3.5455662065
c    -1.4235396    2.6054793   -0.0667700  0.00   -0.0461321    0.0385333    0.0023830
c    -1.3072796    1.2134697   -0.1072300  0.00   -0.0853159   -0.0325715    0.0018665
c    -0.0178900    0.6711998   -0.1697000  0.00   -0.0887779   -0.1882692   -0.0004604
c    -0.2940599    3.4190890   -0.0891300  0.00   -0.0202814    0.0692198    0.0016525
c     0.9872197    2.8590292   -0.1560400  0.00    1.5834236   -0.0006233   -0.5136101
c     1.1340797    1.4562096   -0.1970299  0.00    0.4127055    0.2948804   -0.0672433
n     0.3879399   -0.6395298   -0.2140799  0.00    0.1419640    0.1097499   -0.0032597
c     2.2666594    0.5727398   -0.2659299  0.00    0.2276185    0.1893424   -0.0373259
c     1.7555995   -0.7123598   -0.2706899  0.00   -0.0964265   -0.0963877   -0.0015182
h    -0.2400399   -1.4313496   -0.2047299  0.00    0.0367027    0.0476126   -0.0004664
c     3.7030089    1.0223397   -0.3320099  0.00   -0.8432278    1.3840480   -0.1547243
c     4.2197688    1.4064496   -1.7267995  0.00   -0.0014436    0.0132025    0.1944288
h     4.3261788    0.2093419    0.0639454  0.00   -0.0103712    0.0116616   -0.0026046
h     3.8370289    1.8640295    0.3610799  0.00   -0.9388340    0.5661024   -0.7370990
c     3.6319390    2.7753292   -2.1168494  0.00    0.0130814    0.1940791   -0.3107394
n     3.8331589    0.4251339   -2.8019292  0.00   -0.0507401   -0.0169268   -0.0877507
h     5.3112285    1.5100896   -1.7329195  0.00   -0.0173006   -0.0079155   -0.0069375
h     3.3525690   -0.3535799   -2.3395993  0.00    0.0046397    0.0411924    0.0144513
h     3.1006291    0.8621858   -3.3722390  0.00    0.0307577    0.0113234    0.0418476
h    -2.4108593    3.0588691   -0.0157800  0.00   -0.0008669    0.0001603    0.0002928
h    -2.1896094    0.5822398   -0.0890100  0.00   -0.0036323    0.0037323    0.0002092
h    -0.4052699    4.5000487   -0.0535400  0.00    0.0001608   -0.0001195    0.0013236
h     1.8590495    3.5066790   -0.1715100  0.00   14.2820619   -6.9608765  -13.5307578
h     2.2327294   -1.6813195   -0.3062999  0.00   -0.0405612   -0.0111596    0.0019361
o     3.8981789    3.3994790   -3.1304891  0.00   -0.0638947   -0.1505540    0.2400509
o     2.7558992    3.2202791   -1.1760297  0.00  -11.7161171    3.2871765   12.8987754
h     2.7624492    2.5232393   -0.4698389  0.00   -2.7091924    1.2033867    2.0552795
    27
 Energy =       3.3688803151
c    -1.4324843    2.6175111    0.0287063  0.00   -0.0432954    0.0361102    0.0021872
c    -1.3269155    1.2245385   -0.0292338  0.00   -0.0796832   -0.0304255    0.0018135
c    -0.0488090    0.6670108   -0.1107320  0.00   -0.0844817   -0.1708223    0.0004839
c    -0.3033657    3.4320681   -0.0097894  0.00   -0.0193543    0.0643574    0.0016662
c     0.9728629    2.8745505   -0.1071060  0.00    1.4725464    0.0044186   -0.4793008
c     1.0985828    1.4374468   -0.1521583  0.00    0.3841780    0.2781491   -0.0616862
n     0.3413054   -0.6521704   -0.2399040  0.00    0.1315124    0.0997919   -0.0029988
c     2.2441562    0.5313708   -0.3136101  0.00    0.2144414    0.1762161   -0.0373193
c     1.7150865   -0.7417303   -0.3625346  0.00   -0.0875567   -0.0909403   -0.0025210
h    -0.2996574   -1.4368627   -0.2379460  0.00    0.0340063    0.0441693   -0.0004055
c     3.7329367    1.0015766   -0.3749842  0.00   -0.7684728    1.2677002   -0.1476427
c     4.2655024    1.4457520   -1.7447584  0.00   -0.0000349    0.0141788    0.1802660
h     4.3595436    0.1802624    0.0003308  0.00   -0.0097347    0.0105529   -0.0024478
h     3.7832393    1.8173034    0.4007976  0.00   -0.8754351    0.5299085   -0.6801314
c     3.6485367    2.7958050   -2.1313971  0.00    0.0131873    0.1805356   -0.2888339
n     3.9370659    0.4601701   -2.8328741  0.00   -0.0461479   -0.0163458   -0.0827099
h     5.3541076    1.5868259   -1.7200702  0.00   -0.0150276   -0.0071160   -0.0066056
h     3.4899349   -0.3509080   -2.3850172  0.00    0.0033280    0.0368110    0.0146439
h     3.1949391    0.8674229   -3.4158157  0.00    0.0278963    0.0106543    0.0383889
h    -2.4176664    3.0740917    0.0926433  0.00   -0.0008962    0.0001898    0.0002683
h    -2.2153958    0.6015842   -0.0196888  0.00   -0.0034352    0.0033731    0.0001552
h    -0.4149301    4.5133288    0.0173959  0.00    0.0002227   -0.0000531    0.0012700
h     1.8379094    3.4926042   -0.2034635  0.00   13.3010974   -6.4579630  -12.6202130
h     2.1843498   -1.7125774   -0.4650530  0.00   -0.0364381   -0.0123740    0.0014904
o     3.9035610    3.4322852   -3.1544275  0.00   -0.0598564   -0.1399915    0.2234453
o     2.7410323    3.2165018   -1.2139433  0.00  -10.9396387    3.0706204   12.0335895
h     2.7213380    2.4690488   -0.4665142  0.00   -2.5129272    1.0982943    1.9131473
    27
 Energy =       3.1724909670
c    -1.4499056    2.6424542    0.0295400  0.00   -0.0398885    0.0335341    0.0033050
c    -1.3509944    1.2540827   -0.0436873  0.00   -0.0764394   -0.0295328    0.0032673
c    -0.0788636    0.6998167   -0.1932248  0.00   -0.0745031   -0.1521846    0.0001800
c    -0.3165901    3.4445924   -0.0377395  0.00   -0.0180853    0.0603131    0.0028223
c     0.9511496    2.8763860   -0.1840722  0.00    1.3927170   -0.0006446   -0.4558588
c     1.0725591    1.4669023   -0.2657541  0.00    0.3649478    0.2643332   -0.0599801
n     0.2994017   -0.6317766   -0.2143574  0.00    0.1215285    0.0873152   -0.0018600
c     2.1938488    0.5634610   -0.3792812  0.00    0.1994726    0.1670744   -0.0338004
c     1.6675593   -0.7119299   -0.4056597  0.00   -0.0799170   -0.0838747   -0.0043576
h    -0.3428733   -1.4178196   -0.1326909  0.00    0.0283692    0.0375340   -0.0002769
c     3.6726817    0.9850428   -0.3495184  0.00   -0.7135387    1.1619103   -0.1412227
c     4.2810163    1.4106746   -1.6978361  0.00    0.0036373    0.0178584    0.1731816
h     4.2609582    0.1514735    0.0663927  0.00   -0.0077506    0.0083303   -0.0031278
h     3.8510229    1.8798896    0.3200602  0.00   -0.8144858    0.5002073   -0.6317587
c     3.6395863    2.7487253   -2.1403071  0.00    0.0106797    0.1707082   -0.2712647
n     4.0599110    0.3951184   -2.7828931  0.00   -0.0384547   -0.0189582   -0.0814225
h     5.3638018    1.5947597   -1.6015443  0.00   -0.0106509   -0.0051403   -0.0052197
h     3.6486880   -0.4407579   -2.3423449  0.00    0.0043569    0.0330945    0.0121418
h     3.3398652    0.7564087   -3.4252258  0.00    0.0238469    0.0112630    0.0323831
h    -2.4283066    3.1038407    0.1654559  0.00   -0.0032733    0.0012642    0.0023580
h    -2.2384089    0.6304300    0.0374365  0.00   -0.0060552    0.0023117    0.0016109
h    -0.4153503    4.5259686    0.0429558  0.00   -0.0004360    0.0015026    0.0025682
h     1.8292948    3.5119826   -0.2158486  0.00   12.5794367   -6.0927872  -11.9438895
h     2.1441150   -1.6827195   -0.4786766  0.00   -0.0354805   -0.0130126   -0.0008158
o     3.9436475    3.3510185   -3.1828007  0.00   -0.0554005   -0.1308086    0.2089586
o     2.7349576    3.2283953   -1.2310809  0.00  -10.3644699    2.9052042   11.3971769
h     2.7339945    2.5083908   -0.5084450  0.00   -2.3901633    1.0631847    1.7949016
    27
 Energy =       3.0236624019
c    -1.4531777    2.6264962   -0.0724674  0.00   -0.0382455    0.0331000    0.0031377
c    -1.3341061    1.2417881   -0.1056266  0.00   -0.0729050   -0.0287151    0.0033783
c    -0.0540167    0.7041372   -0.2324214  0.00   -0.0727078   -0.1343705   -0.0014825
c    -0.3275033    3.4327372   -0.1390423  0.00   -0.0178729    0.0576492    0.0029101
c     0.9451789    2.8704217   -0.2539766  0.00    1.3134244   -0.0046718   -0.4343571
c     1.0932844    1.4854369   -0.3108658  0.00    0.3516739    0.2570655   -0.0580938
n     0.3408231   -0.6243974   -0.1213548  0.00    0.1191694    0.0743183   -0.0006124
c     2.2089510    0.6032321   -0.3386954  0.00    0.1929251    0.1613847   -0.0334870
c     1.7079224   -0.6824062   -0.3088262  0.00   -0.0765275   -0.0798433   -0.0049794
h    -0.2859049   -1.4191991    0.0154654  0.00    0.0256577    0.0334224    0.0002630
c     3.6580553    1.0072299   -0.3138685  0.00   -0.6769104    1.0925409   -0.1324439
c     4.2430971    1.3750424   -1.6945341  0.00    0.0045599    0.0176836    0.1639116
h     4.2438944    0.1798316    0.1197774  0.00   -0.0075103    0.0077008   -0.0029277
h     3.9101867    1.9276858    0.2783569  0.00   -0.7737873    0.4777558   -0.5989264
c     3.6264444    2.7303477   -2.1395658  0.00    0.0111841    0.1618527   -0.2584843
n     3.9703132    0.3460721   -2.7549475  0.00   -0.0357227   -0.0186931   -0.0791099
h     5.3346280    1.5317897   -1.6315660  0.00   -0.0092376   -0.0046649   -0.0050637
h     3.5238098   -0.4638394   -2.2976420  0.00    0.0030634    0.0300678    0.0125779
h     3.2639478    0.7272720   -3.4029556  0.00    0.0223186    0.0110077    0.0306065
h    -2.4369309    3.0803294    0.0491735  0.00   -0.0032381    0.0013221    0.0022653
h    -2.2104405    0.6062852    0.0031406  0.00   -0.0060750    0.0016995    0.0016158
h    -0.4326802    4.5136114   -0.0610891  0.00   -0.0003957    0.0014713    0.0025867
h     1.8442145    3.5478714   -0.1944723  0.00   11.9908674   -5.7896584  -11.3886322
h     2.2108630   -1.6442450   -0.3199235  0.00   -0.0329513   -0.0145883   -0.0007799
o     3.9558750    3.3208667   -3.1894951  0.00   -0.0527161   -0.1244445    0.1987959
o     2.7510098    3.2538096   -1.2137665  0.00   -9.8925770    2.7691176   10.8763044
h     2.7690282    2.5666038   -0.5199588  0.00   -2.2654636    1.0104899    1.7010270
    27
 Energy =       2.9026007047
c    -1.4583780    2.6077451   -0.1132596  0.00   -0.0364904    0.0322097    0.0029492
c    -1.3256772    1.2251752   -0.1070786  0.00   -0.0693063   -0.0278717    0.0032233
c    -0.0429282    0.6954648   -0.2207750  0.00   -0.0692158   -0.1235581   -0.0028286
c    -0.3412537    3.4211651   -0.1980782  0.00   -0.0170364    0.0552542    0.0028090
c     0.9340314    2.8676627   -0.3000470  0.00    1.2460452   -0.0047128   -0.4136371
c     1.0965715    1.4841103   -0.3227741  0.00    0.3353338    0.2453953   -0.0553827
n     0.3646877   -0.6239470   -0.0211417  0.00    0.1141129    0.0667218    0.0005770
c     2.2172196    0.6120923   -0.3207346  0.00    0.1841005    0.1537713   -0.0317563
c     1.7281525   -0.6748064   -0.2485993  0.00   -0.0723263   -0.0755663   -0.0052890
h    -0.2504725   -1.4195810    0.1742185  0.00    0.0228163    0.0294520    0.0009308
c     3.6653597    1.0180508   -0.3205878  0.00   -0.6446833    1.0410803   -0.1257667
c     4.2299629    1.3746815   -1.7144342  0.00    0.0043583    0.0169724    0.1559212
h     4.2600920    0.1944642    0.1097303  0.00   -0.0071110    0.0072922   -0.0027526
h     3.9175383    1.9376817    0.2671309  0.00   -0.7372155    0.4549747   -0.5705568
c     3.6224645    2.7348424   -2.1546876  0.00    0.0106459    0.1539579   -0.2459408
n     3.9345870    0.3423129   -2.7643598  0.00   -0.0339174   -0.0179568   -0.0755676
h     5.3242830    1.5223763   -1.6680016  0.00   -0.0086128   -0.0044080   -0.0048168
h     3.4801715   -0.4606454   -2.3008055  0.00    0.0028582    0.0284812    0.0119181
h     3.2277098    0.7281201   -3.4105568  0.00    0.0211940    0.0104649    0.0291087
h    -2.4457525    3.0553199    0.0010785  0.00   -0.0031208    0.0013188    0.0021612
h    -2.1943541    0.5843831    0.0308926  0.00   -0.0060640    0.0011734    0.0016146
h    -0.4546092    4.5022059   -0.1354331  0.00   -0.0003782    0.0015583    0.0025064
h     1.8463169    3.5670409   -0.2020986  0.00   11.4246084   -5.5141986  -10.8483448
h     2.2443322   -1.6295802   -0.2412869  0.00   -0.0314087   -0.0142325   -0.0007374
o     3.9587035    3.3254444   -3.2104392  0.00   -0.0501170   -0.1184005    0.1891224
o     2.7550105    3.2705592   -1.2263179  0.00   -9.4235188    2.6382600   10.3605163
h     2.7729974    2.5824721   -0.5327011  0.00   -2.1555505    0.9625667    1.6200191
    27
 Energy =       2.5959369023
c    -1.4735363    2.5735259   -0.2150497  0.00   -0.0319326    0.0285485    0.0026312
c    -1.3187070    1.1979435   -0.1732572  0.00   -0.0602570   -0.0243813    0.0031980
c    -0.0319728    0.6839290   -0.2500647  0.00   -0.0605829   -0.1066592   -0.0024371
c    -0.3704547    3.3997141   -0.2941792  0.00   -0.0157316    0.0481663    0.0022949
c     0.9101533    2.8645870   -0.3533694  0.00    1.0661081   -0.0095405   -0.3635959
c     1.0956124    1.4836996   -0.3419793  0.00    0.2919417    0.2151207   -0.0493911
n     0.3766038   -0.6320690   -0.0045879  0.00    0.0956506    0.0583201    0.0013032
c     2.2252942    0.6324847   -0.2617489  0.00    0.1615645    0.1326972   -0.0271882
c     1.7588329   -0.6546234   -0.1498628  0.00   -0.0589112   -0.0662094   -0.0046790
h    -0.2352880   -1.4393840    0.1680373  0.00    0.0195427    0.0252918    0.0024774
c     3.6797701    1.0369681   -0.2758498  0.00   -0.5628097    0.9084496   -0.1079202
c     4.2165242    1.3716522   -1.6933075  0.00    0.0036525    0.0148451    0.1343774
h     4.2826867    0.2174139    0.1540663  0.00   -0.0060246    0.0063110   -0.0026872
h     3.9505241    1.9693388    0.2841377  0.00   -0.6437144    0.3981100   -0.4991218
c     3.6242832    2.7402724   -2.1324677  0.00    0.0090288    0.1329258   -0.2130457
n     3.8948257    0.3302006   -2.7228786  0.00   -0.0292567   -0.0159254   -0.0661214
h     5.3147224    1.5077225   -1.6694389  0.00   -0.0071614   -0.0037261   -0.0045877
h     3.4251463   -0.4629905   -2.2543210  0.00    0.0021745    0.0244967    0.0101285
h     3.1979769    0.7199107   -3.3815516  0.00    0.0179750    0.0093867    0.0249072
h    -2.4696865    3.0077354   -0.1285250  0.00   -0.0031484    0.0013621    0.0020115
h    -2.1786703    0.5466506   -0.0328795  0.00   -0.0052211    0.0008764    0.0020745
h    -0.4997570    4.4795633   -0.2468293  0.00   -0.0004751    0.0015407    0.0019751
h     1.8515730    3.6098873   -0.1686908  0.00    9.9977245   -4.8134162   -9.4794898
h     2.3077810   -1.5904393   -0.0825338  0.00   -0.0253962   -0.0141908   -0.0003038
o     3.9824283    3.3272604   -3.2046474  0.00   -0.0430066   -0.1023996    0.1631292
o     2.7659173    3.3070549   -1.2064407  0.00   -8.2376588    2.3086939    9.0554330
h     2.7841835    2.6168022   -0.5129280  0.00   -1.8740745    0.8413059    1.4146275
    27
 Energy =       2.2650612998
c    -1.5045469    2.5389348   -0.3436467  0.00   -0.0265586    0.0240993    0.0021177
c    -1.3302406    1.1708013   -0.2594364  0.00   -0.0493290   -0.0204293    0.0031457
c    -0.0441007    0.6679084   -0.3004586  0.00   -0.0506683   -0.0858418   -0.0026726
c    -0.4170362    3.3810011   -0.4156532  0.00   -0.0141129    0.0396830    0.0013313
c     0.8673112    2.8686133   -0.4265074  0.00    0.8536499   -0.0112381   -0.3084157
c     1.0681497    1.4739862   -0.3887058  0.00    0.2354278    0.1763363   -0.0427789
n     0.3642952   -0.6417613    0.0124852  0.00    0.0774633    0.0466474    0.0026613
c     2.2140926    0.6351792   -0.2291012  0.00    0.1338278    0.1083111   -0.0215658
c     1.7607641   -0.6443118   -0.0699367  0.00   -0.0465347   -0.0543233   -0.0035990
h    -0.2442061   -1.4570549    0.1795517  0.00    0.0162058    0.0208699    0.0044420
c     3.7041516    1.0438054   -0.2174711  0.00   -0.4618774    0.7521958   -0.0881824
c     4.2365727    1.3865244   -1.6413337  0.00    0.0030702    0.0124403    0.1097234
h     4.3077755    0.2226730    0.2116440  0.00   -0.0047894    0.0052115   -0.0026688
h     3.9694157    1.9987272    0.3393800  0.00   -0.5340538    0.3340476   -0.4143061
c     3.6490050    2.7576158   -2.0918486  0.00    0.0073390    0.1082611   -0.1743257
n     3.9282538    0.3344610   -2.6593223  0.00   -0.0237500   -0.0131954   -0.0540906
h     5.3353161    1.5274928   -1.6138711  0.00   -0.0058987   -0.0030305   -0.0043170
h     3.4573581   -0.4646873   -2.1973574  0.00    0.0014408    0.0201123    0.0079863
h     3.2445439    0.7125962   -3.3429378  0.00    0.0138893    0.0081644    0.0196302
h    -2.5090621    2.9583845   -0.2872781  0.00   -0.0031168    0.0012580    0.0017431
h    -2.1823444    0.5120907   -0.1090840  0.00   -0.0041502    0.0004520    0.0027508
h    -0.5645483    4.4588042   -0.3850394  0.00   -0.0005757    0.0014148    0.0011519
h     1.8484149    3.6537671   -0.1358011  0.00    8.3403581   -3.9949008   -7.8877625
h     2.3358457   -1.5584617    0.0749922  0.00   -0.0183337   -0.0143299    0.0007148
o     4.0327250    3.3324639   -3.1873440  0.00   -0.0346079   -0.0837598    0.1323282
o     2.7681817    3.3521130   -1.1963575  0.00   -6.8628062    1.9388797    7.5340399
h     2.7706792    2.6231444   -0.4707085  0.00   -1.5415088    0.6826644    1.1809183
    27
 Energy =       2.2049745005
c    -1.5085473    2.5642643   -0.4202560  0.00   -0.0257688    0.0228391    0.0020074
c    -1.3441688    1.1945609   -0.3514754  0.00   -0.0475476   -0.0197594    0.0030921
c    -0.0616061    0.6843732   -0.3648333  0.00   -0.0480447   -0.0811901   -0.0027616
c    -0.4154512    3.4017763   -0.4534424  0.00   -0.0133744    0.0383339    0.0011948
c     0.8653676    2.8833375   -0.4341951  0.00    0.8134104   -0.0100217   -0.2956735
c     1.0559096    1.4842770   -0.4055702  0.00    0.2233951    0.1684595   -0.0414538
n     0.3250129   -0.6397056   -0.0832037  0.00    0.0687887    0.0446844    0.0023349
c     2.1948738    0.6383177   -0.1986108  0.00    0.1291588    0.1034693   -0.0200290
c     1.7289892   -0.6385802   -0.0638938  0.00   -0.0391222   -0.0507842   -0.0034370
h    -0.2957907   -1.4591768    0.0207986  0.00    0.0133098    0.0174112    0.0045020
c     3.7022140    1.0347826   -0.1438389  0.00   -0.4404446    0.7170984   -0.0844189
c     4.2497817    1.3651939   -1.5677751  0.00    0.0032729    0.0117193    0.1051982
h     4.2902669    0.2109395    0.3025781  0.00   -0.0044987    0.0047565   -0.0024033
h     4.0047882    2.0190178    0.3689512  0.00   -0.5073150    0.3196530   -0.3942826
c     3.6678036    2.7381600   -2.0488224  0.00    0.0069842    0.1029318   -0.1662313
n     3.9632378    0.2993851   -2.5764062  0.00   -0.0220415   -0.0131662   -0.0514860
h     5.3484244    1.5085401   -1.5264920  0.00   -0.0055894   -0.0029136   -0.0040334
h     3.4822913   -0.4956142   -2.1172679  0.00    0.0013530    0.0191402    0.0076820
h     3.3013733    0.6688062   -3.2870806  0.00    0.0126303    0.0081346    0.0180427
h    -2.5123629    2.9880689   -0.3870300  0.00   -0.0033076    0.0011802    0.0016878
h    -2.2044174    0.5379315   -0.2394375  0.00   -0.0046217   -0.0000246    0.0027156
h    -0.5580576    4.4799288   -0.4152412  0.00   -0.0004912    0.0014100    0.0011183
h     1.8579980    3.6615901   -0.1081399  0.00    7.9743863   -3.8176186   -7.5404840
h     2.2967503   -1.5531543    0.1075151  0.00   -0.0171210   -0.0139358    0.0007988
o     4.0809574    3.2850228   -3.1539602  0.00   -0.0325452   -0.0797394    0.1255056
o     2.7761821    3.3661754   -1.1785876  0.00   -6.5638432    1.8568710    7.2026969
h     2.7749463    2.6165927   -0.4254304  0.00   -1.4710126    0.6510612    1.1281170
    27
 Energy =       2.1792522409
c    -1.5034690    2.6131146   -0.5465433  0.00   -0.0253062    0.0218858    0.0018946
c    -1.3576820    1.2421575   -0.4690351  0.00   -0.0464328   -0.0188410    0.0029786
c    -0.0828238    0.7155010   -0.4399937  0.00   -0.0466473   -0.0776467   -0.0028968
c    -0.4001369    3.4381620   -0.5485969  0.00   -0.0133505    0.0372992    0.0009941
c     0.8729535    2.9051281   -0.4851321  0.00    0.7697994   -0.0078261   -0.2862902
c     1.0438136    1.5009526   -0.4408794  0.00    0.2102286    0.1613404   -0.0409371
n     0.2732403   -0.6142373   -0.1415609  0.00    0.0609861    0.0437761    0.0015433
c     2.1661734    0.6423391   -0.1520757  0.00    0.1259693    0.0982423   -0.0176873
c     1.6771453   -0.6250505   -0.0194503  0.00   -0.0322117   -0.0485110   -0.0028044
h    -0.3628469   -1.4278224   -0.0787237  0.00    0.0116116    0.0155802    0.0043273
c     3.6957156    1.0160871   -0.0437341  0.00   -0.4203521    0.6818229   -0.0815101
c     4.2573688    1.3172258   -1.4746724  0.00    0.0038031    0.0102840    0.1015713
h     4.2617346    0.1903151    0.4286199  0.00   -0.0041904    0.0040948   -0.0019686
h     4.0582453    2.0434784    0.3942177  0.00   -0.4797354    0.3079314   -0.3742540
c     3.6977064    2.6978758   -2.0102991  0.00    0.0068621    0.0968070   -0.1582416
n     3.9848151    0.2288899   -2.4617733  0.00   -0.0196660   -0.0135415   -0.0490467
h     5.3576638    1.4517162   -1.4229174  0.00   -0.0053837   -0.0028082   -0.0037333
h     3.4801389   -0.5503373   -2.0000691  0.00    0.0010631    0.0178962    0.0077830
h     3.3561899    0.5896589   -3.2080933  0.00    0.0109767    0.0085890    0.0159177
h    -2.5032495    3.0485800   -0.5457831  0.00   -0.0037890    0.0013038    0.0016276
h    -2.2293616    0.5962662   -0.3831499  0.00   -0.0049056   -0.0002125    0.0026419
h    -0.5310609    4.5179073   -0.5153410  0.00   -0.0005094    0.0014432    0.0011044
h     1.8827174    3.6708198   -0.0998541  0.00    7.6345376   -3.6463997   -7.2208339
h     2.2266257   -1.5417548    0.2023969  0.00   -0.0152206   -0.0143953    0.0011483
o     4.1646906    3.1873176   -3.1288847  0.00   -0.0294941   -0.0753239    0.1169755
o     2.7944897    3.3908396   -1.1860131  0.00   -6.2955137    1.7852338    6.9018333
h     2.7859693    2.5996808   -0.3738060  0.00   -1.3931291    0.6119758    1.0778630
    27
 Energy =       2.2241251876
c    -1.4808396    2.6770893   -0.6745520  0.00   -0.0254667    0.0223613    0.0017411
c    -1.3623437    1.3054969   -0.5609773  0.00   -0.0465532   -0.0187036    0.0029138
c    -0.0992146    0.7552279   -0.4884389  0.00   -0.0468196   -0.0748949   -0.0036867
c    -0.3622783    3.4822346   -0.6715475  0.00   -0.0139178    0.0376235    0.0007804
c     0.8995633    2.9275002   -0.5660711  0.00    0.7468747   -0.0043168   -0.2854871
c     1.0409977    1.5201271   -0.4762958  0.00    0.2041297    0.1593993   -0.0417173
n     0.2193125   -0.5706568   -0.1277933  0.00    0.0589854    0.0417947    0.0016854
c     2.1372099    0.6473551   -0.0989055  0.00    0.1261522    0.0953477   -0.0158644
c     1.6177115   -0.6046759    0.0601720  0.00   -0.0296252   -0.0488461   -0.0022847
h    -0.4353707   -1.3700137   -0.0658316  0.00    0.0111987    0.0149808    0.0042813
c     3.6851165    0.9918509    0.0471279  0.00   -0.4123328    0.6633958   -0.0808829
c     4.2497165    1.2506817   -1.4004572  0.00    0.0042767    0.0086757    0.1008402
h     4.2308155    0.1664577    0.5446344  0.00   -0.0040502    0.0036352   -0.0015848
h     4.1151780    2.0582304    0.3939941  0.00   -0.4660932    0.3059880   -0.3651308
c     3.7302403    2.6445695   -2.0000092  0.00    0.0071649    0.0925937   -0.1540357
n     3.9670742    0.1386529   -2.3578317  0.00   -0.0175306   -0.0141047   -0.0485544
h     5.3542781    1.3600222   -1.3508129  0.00   -0.0051198   -0.0026719   -0.0036837
h     3.4271828   -0.6123597   -1.8872928  0.00    0.0002526    0.0164566    0.0086332
h     3.3732210    0.4960049   -3.1349568  0.00    0.0098924    0.0093134    0.0144381
h    -2.4725973    3.1308004   -0.7045362  0.00   -0.0043411    0.0016720    0.0015816
h    -2.2479558    0.6782515   -0.4759361  0.00   -0.0050789   -0.0003893    0.0026407
h    -0.4740756    4.5649206   -0.6609169  0.00   -0.0006687    0.0018792    0.0011074
h     1.9230545    3.6778150   -0.1303337  0.00    7.4876101   -3.5576492   -7.0946246
h     2.1407080   -1.5242315    0.3376573  0.00   -0.0138554   -0.0157642    0.0016865
o     4.2604916    3.0571923   -3.1287115  0.00   -0.0264497   -0.0725703    0.1100447
o     2.8248336    3.4204144   -1.2320654  0.00   -6.1986546    1.7593612    6.7916068
h     2.8047366    2.5758532   -0.3404597  0.00   -1.3399796    0.5754329    1.0535557
    27
 Energy =       2.2077889550
c    -1.4994563    2.6394646   -0.7855948  0.00   -0.0250770    0.0216683    0.0007569
c    -1.3705868    1.2692338   -0.6641590  0.00   -0.0452077   -0.0171937    0.0023407
c    -0.1047381    0.7279992   -0.5527678  0.00   -0.0451598   -0.0721093   -0.0037312
c    -0.3919578    3.4557780   -0.7329700  0.00   -0.0131152    0.0369770   -0.0004709
c     0.8663684    2.9129130   -0.5712689  0.00    0.7149180   -0.0035699   -0.2763550
c     1.0268417    1.4999626   -0.5083270  0.00    0.1928801    0.1510773   -0.0411043
n     0.2157802   -0.5944080   -0.1777865  0.00    0.0554963    0.0412053    0.0019352
c     2.1296252    0.6368054   -0.1011350  0.00    0.1197806    0.0897903   -0.0141832
c     1.6112532   -0.6153131    0.0569166  0.00   -0.0283883   -0.0462111   -0.0013406
h    -0.4349576   -1.3992269   -0.1396825  0.00    0.0096516    0.0147762    0.0048917
c     3.6868654    1.0101338    0.1021724  0.00   -0.3943376    0.6358207   -0.0757149
c     4.2756482    1.2933330   -1.3261456  0.00    0.0044844    0.0083299    0.0978504
h     4.2312809    0.1878177    0.6073154  0.00   -0.0040943    0.0032484   -0.0007064
h     4.0862017    2.0888524    0.4742383  0.00   -0.4469020    0.2952103   -0.3505607
c     3.7315241    2.6751518   -1.9367995  0.00    0.0075933    0.0886425   -0.1485416
n     4.0468428    0.1698823   -2.2862045  0.00   -0.0164216   -0.0158009   -0.0462273
h     5.3760276    1.4301240   -1.2484976  0.00   -0.0042765   -0.0035674   -0.0033108
h     3.5052434   -0.5926710   -1.8339103  0.00   -0.0008376    0.0149391    0.0090565
h     3.4798761    0.5096228   -3.0916698  0.00    0.0084022    0.0081448    0.0131150
h    -2.4933238    3.0848458   -0.8632893  0.00   -0.0049111    0.0027630    0.0003572
h    -2.2540973    0.6357098   -0.6116684  0.00   -0.0055909    0.0003338    0.0022730
h    -0.5116768    4.5379180   -0.7331651  0.00    0.0000230    0.0023455   -0.0003046
h     1.8967258    3.6939080   -0.0789172  0.00    7.2103168   -3.4221524   -6.8293871
h     2.1292800   -1.5230544    0.3807111  0.00   -0.0133521   -0.0157670    0.0032616
o     4.2715253    3.0915112   -3.0629906  0.00   -0.0245462   -0.0711944    0.1056800
o     2.7933768    3.4409082   -1.1912131  0.00   -5.9683643    1.6966286    6.5368195
h     2.7672744    2.5776090   -0.2743389  0.00   -1.2829641    0.5556651    1.0136010
    27
 Energy =       2.2049989528
c    -1.5148956    2.5969370   -0.8968472  0.00   -0.0247012    0.0211204   -0.0002702
c    -1.3754542    1.2287256   -0.7617775  0.00   -0.0439816   -0.0158921    0.0018073
c    -0.1077495    0.6975004   -0.6125651  0.00   -0.0437509   -0.0694896   -0.0037927
c    -0.4209359    3.4251591   -0.7992149  0.00   -0.0124910    0.0363143   -0.0017447
c     0.8322008    2.8953533   -0.5817030  0.00    0.6856550   -0.0030166   -0.2682763
c     1.0144079    1.4773271   -0.5431561  0.00    0.1825317    0.1433045   -0.0407343
n     0.2148345   -0.6183637   -0.2124500  0.00    0.0529421    0.0403165    0.0025688
c     2.1241888    0.6243824   -0.1088836  0.00    0.1136136    0.0842817   -0.0126618
c     1.6076232   -0.6270818    0.0552789  0.00   -0.0277775   -0.0437983   -0.0006108
h    -0.4310286   -1.4281060   -0.1876589  0.00    0.0084081    0.0148312    0.0057451
c     3.6859712    1.0288574    0.1515689  0.00   -0.3780198    0.6103352   -0.0711069
c     4.3000520    1.3418540   -1.2548130  0.00    0.0047126    0.0081845    0.0951304
h     4.2306501    0.2091876    0.6617910  0.00   -0.0041134    0.0029354    0.0000541
h     4.0441204    2.1154204    0.5617447  0.00   -0.4296610    0.2860422   -0.3370807
c     3.7311881    2.7098837   -1.8769979  0.00    0.0082660    0.0850253   -0.1437415
n     4.1282929    0.2098688   -2.2186559  0.00   -0.0154935   -0.0173862   -0.0444881
h     5.3941549    1.5081158   -1.1463743  0.00   -0.0033201   -0.0042947   -0.0029989
h     3.5901677   -0.5675352   -1.7849307  0.00   -0.0019172    0.0134383    0.0094014
h     3.5851917    0.5321694   -3.0480149  0.00    0.0072295    0.0069814    0.0120463
h    -2.5090185    3.0329212   -1.0220425  0.00   -0.0054380    0.0037563   -0.0009687
h    -2.2552357    0.5887957   -0.7355681  0.00   -0.0059364    0.0010412    0.0019642
h    -0.5489140    4.5065084   -0.8138110  0.00    0.0006578    0.0027796   -0.0017875
h     1.8675023    3.7095597   -0.0335571  0.00    6.9625268   -3.3000744   -6.5932925
h     2.1194094   -1.5207396    0.4270686  0.00   -0.0129361   -0.0159254    0.0049608
o     4.2777002    3.1288810   -3.0021848  0.00   -0.0228725   -0.0699468    0.1018345
o     2.7580230    3.4619314   -1.1567197  0.00   -5.7633231    1.6412944    6.3101285
h     2.7243193    2.5772977   -0.2106737  0.00   -1.2308099    0.5378416    0.9779141
    27
 Energy =       2.1126758339
c    -1.5579927    2.5271686   -0.8221655  0.00   -0.0252644    0.0223835   -0.0005167
c    -1.3798885    1.1566783   -0.7493239  0.00   -0.0439906   -0.0172272    0.0018724
c    -0.0961398    0.6537947   -0.6310606  0.00   -0.0433944   -0.0654637   -0.0048929
c    -0.4877076    3.3812734   -0.6884704  0.00   -0.0122383    0.0375565   -0.0017921
c     0.7789716    2.8765436   -0.4942193  0.00    0.6733418    0.0014366   -0.2669109
c     1.0047234    1.4601550   -0.5327550  0.00    0.1808876    0.1422723   -0.0415753
n     0.2725038   -0.6789400   -0.3237162  0.00    0.0541077    0.0352513    0.0037293
c     2.1456715    0.6194808   -0.1641447  0.00    0.1132878    0.0811409   -0.0119952
c     1.6659451   -0.6550584   -0.0565449  0.00   -0.0278581   -0.0451058   -0.0003710
h    -0.3464271   -1.5113771   -0.3464120  0.00    0.0068945    0.0122255    0.0057169
c     3.6915220    1.0574501    0.1108609  0.00   -0.3724236    0.5971839   -0.0711993
c     4.3254642    1.4228878   -1.2642711  0.00    0.0050653    0.0077727    0.0945084
h     4.2470560    0.2352033    0.6053151  0.00   -0.0040805    0.0027468    0.0002399
h     3.9827389    2.1150162    0.6110969  0.00   -0.4214556    0.2861184   -0.3300646
c     3.7002193    2.7695945   -1.8372798  0.00    0.0091473    0.0819689   -0.1404663