    27
 Energy =       2.4600678297
c    -1.4235396    2.6054793   -0.0667700  0.00   -0.0462854    0.0385080    0.0023198
c    -1.3072796    1.2134697   -0.1072300  0.00   -0.0852461   -0.0325273    0.0017966
c    -0.0178900    0.6711998   -0.1697000  0.00   -0.0897423   -0.1891485   -0.0003279
c    -0.2940599    3.4190890   -0.0891300  0.00   -0.0196033    0.0685833    0.0013669
c     0.9872197    2.8590292   -0.1560400  0.00    0.6064385    0.1894152   -0.3414142
c     1.1340797    1.4562096   -0.1970299  0.00    0.0726207    0.0699263   -0.0092574
n     0.3879399   -0.6395298   -0.2140799  0.00    0.1430271    0.1114722   -0.0036699
c     2.2666594    0.5727398   -0.2659299  0.00    0.1590099   -0.0803759   -0.0090575
c     1.7555995   -0.7123598   -0.2706899  0.00   -0.0967243   -0.0961285   -0.0015292
h    -0.2400399   -1.4313496   -0.2047299  0.00    0.0372611    0.0481801   -0.0003756
c     3.7030089    1.0223397   -0.3320099  0.00   -0.0321553    0.0842517   -0.0362388
c     4.2197688    1.4064496   -1.7267995  0.00    0.0517339   -0.0218105    0.1544260
h     4.3261788    0.2093419    0.0639454  0.00   -0.0092904    0.0102130   -0.0016713
h     3.8370289    1.8640295    0.3610799  0.00   -0.0101910   -0.0021187   -0.0188349
c     3.6319390    2.7753292   -2.1168494  0.00    0.0224006    0.2216131   -0.3117575
n     3.8331589    0.4251339   -2.8019292  0.00   -0.0517419   -0.0151703   -0.0850205
h     5.3112285    1.5100896   -1.7329195  0.00   -0.0160024   -0.0061948   -0.0075731
h     3.3525690   -0.3535799   -2.3395993  0.00    0.0043844    0.0404824    0.0146547
h     3.1006291    0.8621858   -3.3722390  0.00    0.0303642    0.0096788    0.0406649
h    -2.4108593    3.0588691   -0.0157800  0.00   -0.0007640    0.0001884    0.0003107
h    -2.1896094    0.5822398   -0.0890100  0.00   -0.0035021    0.0037594    0.0002358
h    -0.4052699    4.5000487   -0.0535400  0.00    0.0004779    0.0004956    0.0012140
h     1.8590495    3.5066790   -0.1715100  0.00   11.8492298   -3.2407741  -12.8823026
h     2.2327294   -1.6813195   -0.3062999  0.00   -0.0405388   -0.0112559    0.0020273
o     3.8981789    3.3994790   -3.1304891  0.00   -0.0691016   -0.1568674    0.2354739
o     2.7558992    3.2202791   -1.1760297  0.00  -11.7188047    3.3191482   12.8734440
h     3.1226691    4.0922588   -0.8764678  0.00   -0.6872548   -0.3635437    0.3810958
    27
 Energy =       1.8582998593
c    -1.4037518    2.6319316   -0.0234004  0.00   -0.0318198    0.0250910    0.0009987
c    -1.2960493    1.2535225   -0.0840211  0.00   -0.0580753   -0.0228873    0.0009421
c    -0.0302542    0.7045299   -0.1640271  0.00   -0.0587010   -0.1274292   -0.0021773
c    -0.2747382    3.4317136   -0.0203730  0.00   -0.0137069    0.0458894    0.0000630
c     0.9933844    2.8692381   -0.0934906  0.00    0.4237451    0.1318497   -0.2468617
c     1.1152181    1.4698793   -0.1938985  0.00    0.0472085    0.0473857   -0.0075148
n     0.3219567   -0.6360015   -0.2013314  0.00    0.0913270    0.0747152    0.0014744
c     2.2163299    0.5789284   -0.3172603  0.00    0.1063270   -0.0558907   -0.0082629
c     1.7034896   -0.6912407   -0.3497901  0.00   -0.0606172   -0.0645177   -0.0038874
h    -0.3229565   -1.4287772   -0.1572002  0.00    0.0246954    0.0314339    0.0010810
c     3.6858446    0.9365222   -0.3871525  0.00   -0.0235695    0.0555288   -0.0275105
c     4.1985825    1.3957693   -1.7704852  0.00    0.0354867   -0.0132257    0.1025027
h     4.2729824    0.0505888   -0.0723780  0.00   -0.0035252    0.0017802    0.0004396
h     3.8919031    1.7188033    0.3695928  0.00   -0.0057196    0.0024894   -0.0084651
c     3.6150746    2.7693308   -2.0897749  0.00    0.0186115    0.1443818   -0.2150527
n     3.8544363    0.4356456   -2.8643738  0.00   -0.0318019   -0.0068987   -0.0596555
h     5.2928773    1.5244411   -1.7478639  0.00   -0.0100424   -0.0024523   -0.0043970
h     3.4188792   -0.4002164   -2.4367665  0.00    0.0017797    0.0236085    0.0137523
h     3.1152755    0.8605002   -3.4481038  0.00    0.0216628    0.0075060    0.0275696
h    -2.3891013    3.0887956    0.0351560  0.00   -0.0010369   -0.0005242   -0.0001415
h    -2.1802727    0.6241766   -0.0689502  0.00   -0.0024137    0.0018022   -0.0000711
h    -0.3802113    4.5118038    0.0482023  0.00   -0.0003841    0.0005519    0.0008557
h     1.9044833    3.5441937   -0.0556041  0.00    8.6078496   -2.3411071   -9.3420108
h     2.2187023   -1.6401677   -0.4400484  0.00   -0.0253910   -0.0087000    0.0004160
o     3.8539685    3.4555459   -3.1373782  0.00   -0.0484038   -0.1023350    0.1590365
o     2.8222021    3.2498424   -1.0862217  0.00   -8.5034500    2.4208940    9.3414388
h     3.2087315    4.1045313   -0.8008338  0.00   -0.5000352   -0.2689398    0.2754380
    27
 Energy =       1.6119216158
c    -1.3549702    2.6710265    0.0770020  0.00   -0.0267092    0.0218263    0.0007575
c    -1.2687005    1.2983240   -0.0271168  0.00   -0.0484253   -0.0200307    0.0005254
c    -0.0182951    0.7323208   -0.1214771  0.00   -0.0479073   -0.0959884    0.0006223
c    -0.2159821    3.4499449    0.0902962  0.00   -0.0117830    0.0387148   -0.0001354
c     1.0403000    2.8721865   -0.0057456  0.00    0.3581426    0.1112365   -0.2063989
c     1.1360223    1.4757855   -0.1326929  0.00    0.0387628    0.0409445   -0.0059680
n     0.2892209   -0.6198558   -0.2845647  0.00    0.0770273    0.0528851   -0.0015507
c     2.2119104    0.5728975   -0.3013974  0.00    0.0883213   -0.0454604   -0.0061332
c     1.6808655   -0.6848647   -0.3828084  0.00   -0.0489786   -0.0515690   -0.0023535
h    -0.3792600   -1.4026011   -0.3159533  0.00    0.0173878    0.0221537    0.0000719
c     3.6901588    0.8863852   -0.4222846  0.00   -0.0191415    0.0460767   -0.0232617
c     4.1590943    1.3548293   -1.8220330  0.00    0.0299799   -0.0109540    0.0859850
h     4.2654161   -0.0226540   -0.1482742  0.00   -0.0020316    0.0007190    0.0004670
h     3.9511465    1.6499509    0.3396087  0.00   -0.0044121    0.0030262   -0.0057815
c     3.6204330    2.7538334   -2.0897285  0.00    0.0153922    0.1214251   -0.1789365
n     3.7490610    0.4229712   -2.9178720  0.00   -0.0255997   -0.0081406   -0.0513190
h     5.2604461    1.4455462   -1.8363436  0.00   -0.0069257   -0.0020866   -0.0035235
h     3.2918319   -0.4081258   -2.5009848  0.00    0.0010231    0.0191003    0.0111838
h     3.0112160    0.8847182   -3.4822521  0.00    0.0168209    0.0067718    0.0220078
h    -2.3329778    3.1422909    0.1457284  0.00   -0.0010575   -0.0003927   -0.0000925
h    -2.1631293    0.6824460   -0.0474455  0.00   -0.0025265    0.0007534   -0.0002094
h    -0.3054918    4.5309456    0.1701814  0.00   -0.0003740    0.0006199    0.0007782
h     1.9364763    3.5497327   -0.0188460  0.00    7.2848678   -1.9808757   -7.9085679
h     2.1932430   -1.6309110   -0.5287023  0.00   -0.0209990   -0.0090147    0.0000343
o     3.8477877    3.4522691   -3.1548000  0.00   -0.0405112   -0.0852416    0.1320737
o     2.8672118    3.2520620   -1.0616238  0.00   -7.1966613    2.0517152    7.9060649
h     3.2639516    4.1023764   -0.7776466  0.00   -0.4236821   -0.2282139    0.2336600
    27
 Energy =       1.3635027191
c    -1.3090279    2.6983624    0.2001833  0.00   -0.0216751    0.0182055    0.0005670
c    -1.2439935    1.3337391    0.0467644  0.00   -0.0387736   -0.0165964    0.0001748
c    -0.0106675    0.7530272   -0.0872915  0.00   -0.0381539   -0.0735052    0.0015323
c    -0.1612685    3.4575893    0.2170722  0.00   -0.0103002    0.0313522   -0.0000824
c     1.0819737    2.8679214    0.0772558  0.00    0.2906733    0.0903727   -0.1659599
c     1.1514871    1.4750340   -0.0960614  0.00    0.0300006    0.0331849   -0.0045338
n     0.2545192   -0.6027610   -0.3282327  0.00    0.0622290    0.0385064   -0.0026375
c     2.2004211    0.5611032   -0.3264666  0.00    0.0701021   -0.0360845   -0.0045824
c     1.6489636   -0.6806284   -0.4477945  0.00   -0.0388750   -0.0413488   -0.0018613
h    -0.4323270   -1.3734706   -0.3828124  0.00    0.0133144    0.0168514   -0.0008374
c     3.6879998    0.8243922   -0.4905233  0.00   -0.0150765    0.0359347   -0.0191954
c     4.1224033    1.3324305   -1.8921880  0.00    0.0246009   -0.0089979    0.0683255
h     4.2442148   -0.1144395   -0.2736322  0.00   -0.0002090   -0.0010480    0.0006783
h     4.0052077    1.5482519    0.2923099  0.00   -0.0028365    0.0036863   -0.0024900
c     3.6163592    2.7508325   -2.0906631  0.00    0.0128637    0.0961037   -0.1427944
n     3.6697369    0.4418738   -3.0033213  0.00   -0.0193372   -0.0079234   -0.0422405
h     5.2267842    1.4010367   -1.9304009  0.00   -0.0048562   -0.0014707   -0.0024464
h     3.2083605   -0.4000879   -2.6097150  0.00    0.0008642    0.0148150    0.0088580
h     2.9295564    0.9340845   -3.5450272  0.00    0.0126238    0.0060731    0.0166631
h    -2.2791367    3.1810914    0.3013241  0.00   -0.0014714   -0.0001344    0.0000805
h    -2.1473393    0.7313110    0.0146476  0.00   -0.0021120    0.0001125   -0.0004645
h    -0.2352595    4.5374187    0.3289345  0.00   -0.0006847    0.0009682    0.0009941
h     1.9755672    3.5514377    0.0397176  0.00    5.9290672   -1.6101602   -6.4371039
h     2.1558815   -1.6209416   -0.6542353  0.00   -0.0156574   -0.0087970   -0.0007818
o     3.8127669    3.4837784   -3.1633646  0.00   -0.0325364   -0.0664264    0.1039171
o     2.9211228    3.2482734   -1.0192789  0.00   -5.8587318    1.6724489    6.4352554
h     3.3326807    4.0931702   -0.7349770  0.00   -0.3450523   -0.1861224    0.1909656
    27
 Energy =       1.2189582398
c    -1.2516784    2.8038580    0.2222604  0.00   -0.0195565    0.0159626    0.0006799
c    -1.2295412    1.4367352    0.0948901  0.00   -0.0341365   -0.0151586    0.0001485
c    -0.0194418    0.8184314   -0.0519665  0.00   -0.0324168   -0.0616182    0.0012802
c    -0.0816720    3.5276547    0.2052678  0.00   -0.0088706    0.0280406    0.0001472
c     1.1387234    2.8975574    0.0525361  0.00    0.2536938    0.0802457   -0.1443875
c     1.1603445    1.5039392   -0.0975964  0.00    0.0265661    0.0292462   -0.0038470
n     0.1961302   -0.5575370   -0.2370240  0.00    0.0530527    0.0309984   -0.0020157
c     2.1743418    0.5576274   -0.3230760  0.00    0.0608601   -0.0304766   -0.0036862
c     1.5881606   -0.6709710   -0.4008453  0.00   -0.0325889   -0.0364659   -0.0020363
h    -0.5164444   -1.3111099   -0.2424565  0.00    0.0096420    0.0125053   -0.0005279
c     3.6678911    0.7630863   -0.5194382  0.00   -0.0126186    0.0308524   -0.0166838
c     4.0920520    1.2385417   -1.9367324  0.00    0.0216167   -0.0076134    0.0595152
h     4.1942040   -0.1943423   -0.3062592  0.00    0.0002756   -0.0014194    0.0004200
h     4.0300393    1.4810174    0.2504758  0.00   -0.0020344    0.0038974   -0.0015194
c     3.6693026    2.6854927   -2.1300184  0.00    0.0110465    0.0854691   -0.1209424
n     3.5623731    0.3649307   -3.0288895  0.00   -0.0151157   -0.0090809   -0.0385817
h     5.2001883    1.2422836   -2.0038374  0.00   -0.0017990   -0.0012048   -0.0024903
h     3.0539045   -0.4475890   -2.6252902  0.00   -0.0009120    0.0106356    0.0077639
h     2.8435534    0.8977461   -3.5660504  0.00    0.0092731    0.0060638    0.0133389
h    -2.2051328    3.3169997    0.3362144  0.00   -0.0019418    0.0000867    0.0002233
h    -2.1504063    0.8588251    0.1002559  0.00   -0.0027731   -0.0006875   -0.0003098
h    -0.1197629    4.6110356    0.3052479  0.00   -0.0006144    0.0015676    0.0009715
h     2.0527215    3.5354984    0.0121489  0.00    5.1664675   -1.4031785   -5.6087845
h     2.0723429   -1.6266581   -0.5955103  0.00   -0.0133422   -0.0081322   -0.0008328
o     3.8613482    3.3811566   -3.2410986  0.00   -0.0278794   -0.0573562    0.0874210
o     3.0089913    3.2318796   -1.0579501  0.00   -5.1042790    1.4594705    5.6076667
h     3.4344538    4.0677412   -0.7730343  0.00   -0.3016155   -0.1626498    0.1670692
    27
 Energy =       1.0484440955
c    -1.1767290    2.9175690    0.2725968  0.00   -0.0169603    0.0131650    0.0007268
c    -1.2084050    1.5524892    0.1494033  0.00   -0.0286552   -0.0129214    0.0001747
c    -0.0291614    0.8891819   -0.0201018  0.00   -0.0257706   -0.0494492    0.0009876
c     0.0192001    3.5947541    0.2328394  0.00   -0.0073912    0.0238754    0.0003109
c     1.2093221    2.9175206    0.0582723  0.00    0.2091185    0.0672858   -0.1187000
c     1.1717889    1.5271988   -0.0913852  0.00    0.0220745    0.0239037   -0.0030759
n     0.1232291   -0.5000468   -0.1878276  0.00    0.0420156    0.0238586   -0.0013063
c     2.1412013    0.5453932   -0.3299736  0.00    0.0491884   -0.0242931   -0.0027505
c     1.5111449   -0.6605229   -0.3854483  0.00   -0.0252790   -0.0307060   -0.0020245
h    -0.6199832   -1.2273702   -0.1675231  0.00    0.0064234    0.0087726   -0.0002176
c     3.6401934    0.6794546   -0.5622198  0.00   -0.0093367    0.0245890   -0.0143093
c     4.0511749    1.1449315   -1.9887044  0.00    0.0179938   -0.0064158    0.0481727
h     4.1274835   -0.3041818   -0.3710450  0.00    0.0011160   -0.0022032    0.0002469
h     4.0578294    1.3716933    0.2049829  0.00   -0.0008101    0.0041817   -0.0000887
c     3.7125970    2.6172485   -2.1580640  0.00    0.0095635    0.0711182   -0.0957600
n     3.4498183    0.3056418   -3.0709921  0.00   -0.0106398   -0.0098185   -0.0329368
h     5.1582330    1.0869669   -2.0826132  0.00    0.0006899   -0.0010799   -0.0022023
h     2.8951513   -0.4792010   -2.6678842  0.00   -0.0023974    0.0066788    0.0062653
h     2.7590300    0.8827843   -3.6047855  0.00    0.0056178    0.0062057    0.0094906
h    -2.1078999    3.4670838    0.4062210  0.00   -0.0025954    0.0005225    0.0004050
h    -2.1500896    1.0086912    0.1794546  0.00   -0.0032089   -0.0012159   -0.0001167
h     0.0258653    4.6790919    0.3364998  0.00   -0.0005819    0.0022968    0.0009263
h     2.1485227    3.5088025    0.0216426  0.00    4.2572007   -1.1555147   -4.6204491
h     1.9656892   -1.6307538   -0.5842139  0.00   -0.0103842   -0.0071558   -0.0008606
o     3.8659457    3.2900745   -3.3048150  0.00   -0.0225058   -0.0467803    0.0675995
o     3.1193839    3.2032012   -1.0644963  0.00   -4.2047438    1.2057428    4.6204014
h     3.5664505    4.0261342   -0.7775961  0.00   -0.2497418   -0.1346429    0.1390908
    27
 Energy =       0.9105595444
c    -1.0924022    3.0197279    0.3426330  0.00   -0.0149389    0.0113837    0.0007650
c    -1.1823077    1.6608118    0.1984401  0.00   -0.0244733   -0.0111646    0.0002281
c    -0.0372275    0.9521048   -0.0005009  0.00   -0.0206700   -0.0399990    0.0009894
c     0.1298981    3.6458107    0.2987025  0.00   -0.0062477    0.0208531    0.0003958
c     1.2864132    2.9218751    0.0968717  0.00    0.1721115    0.0565274   -0.0976758
c     1.1861731    1.5389033   -0.0802871  0.00    0.0180839    0.0192683   -0.0025021
n     0.0474090   -0.4427247   -0.1899768  0.00    0.0334499    0.0178820   -0.0010635
c     2.1071721    0.5231093   -0.3504587  0.00    0.0400080   -0.0195393   -0.0022744
c     1.4286606   -0.6542450   -0.4112296  0.00   -0.0196446   -0.0263074   -0.0018674
h    -0.7275744   -1.1393765   -0.1690577  0.00    0.0040106    0.0059908   -0.0000797
c     3.6081212    0.5855266   -0.6172254  0.00   -0.0068216    0.0192985   -0.0127132
c     4.0060005    1.0726693   -2.0427436  0.00    0.0154371   -0.0056473    0.0385656
h     4.0517427   -0.4274547   -0.4677875  0.00    0.0021499   -0.0036103    0.0003017
h     4.0816731    1.2315489    0.1602632  0.00    0.0006312    0.0046143    0.0017452
c     3.7352485    2.5641706   -2.1644083  0.00    0.0091883    0.0570792   -0.0762003
n     3.3483118    0.2831127   -3.1294890  0.00   -0.0077541   -0.0102289   -0.0282109
h     5.1083689    0.9682255   -2.1606066  0.00    0.0018628   -0.0010818   -0.0017272
h     2.7577721   -0.4828158   -2.7377989  0.00   -0.0030549    0.0042286    0.0049263
h     2.6829457    0.9027357   -3.6520633  0.00    0.0029595    0.0062998    0.0064757
h    -1.9981149    3.6057546    0.4999484  0.00   -0.0031966    0.0011253    0.0005714
h    -2.1454481    1.1555439    0.2353409  0.00   -0.0034974   -0.0015614    0.0000080
h     0.1846184    4.7272732    0.4252315  0.00   -0.0005231    0.0033316    0.0009394
h     2.2540522    3.4691146    0.0782022  0.00    3.5178471   -0.9530953   -3.8155238
h     1.8471527   -1.6368564   -0.6326458  0.00   -0.0079024   -0.0067998   -0.0009496
o     3.8059292    3.2421872   -3.3307497  0.00   -0.0181430   -0.0375147    0.0493988
o     3.2386441    3.1610204   -1.0245874  0.00   -3.4739190    1.0002088    3.8188327
h     3.7137541    3.9660776   -0.7317935  0.00   -0.2069533   -0.1115417    0.1166447
    27
 Energy =       0.7855511054
c    -1.0586421    3.0571798    0.3981570  0.00   -0.0122394    0.0089126    0.0006356
c    -1.1655879    1.7019076    0.2563912  0.00   -0.0196226   -0.0087570    0.0001564
c    -0.0351592    0.9822583    0.0320742  0.00   -0.0161280   -0.0316418    0.0006667
c     0.1669666    3.6685891    0.3225609  0.00   -0.0048935    0.0166815    0.0003880
c     1.3079269    2.9333386    0.0934261  0.00    0.1400431    0.0450430   -0.0784456
c     1.1896324    1.5550123   -0.0738236  0.00    0.0147205    0.0152880   -0.0019769
n     0.0289559   -0.4156651   -0.1525718  0.00    0.0261054    0.0140459   -0.0007228
c     2.0942979    0.5358030   -0.3546583  0.00    0.0318748   -0.0153268   -0.0016633
c     1.4074986   -0.6345626   -0.3986628  0.00   -0.0152787   -0.0209015   -0.0016486
h    -0.7513285   -1.1071974   -0.1138581  0.00    0.0028464    0.0045998   -0.0000897
c     3.5956156    0.5814644   -0.6276596  0.00   -0.0053947    0.0150561   -0.0098538
c     3.9929896    1.0405729   -2.0643580  0.00    0.0124387   -0.0045620    0.0308860
h     4.0310732   -0.4320533   -0.4629347  0.00    0.0016705   -0.0031142    0.0000638
h     4.0772684    1.2361866    0.1361262  0.00    0.0005713    0.0035703    0.0014393
c     3.7145326    2.5279394   -2.2257411  0.00    0.0097402    0.0398345   -0.0470640
n     3.3531756    0.2123088   -3.1308776  0.00   -0.0040016   -0.0100830   -0.0223650
h     5.0963918    0.9434340   -2.1731525  0.00    0.0014449   -0.0009628   -0.0015287
h     2.7357957   -0.5257209   -2.7253039  0.00   -0.0031060    0.0023806    0.0046412
h     2.7186485    0.8148874   -3.7130525  0.00    0.0001764    0.0079102    0.0030918
h    -1.9535966    3.6532506    0.5757168  0.00   -0.0027423    0.0010701    0.0005712
h    -2.1324157    1.2069268    0.3164835  0.00   -0.0030715   -0.0012645    0.0000318
h     0.2362693    4.7497888    0.4408304  0.00   -0.0002289    0.0027723    0.0008920
h     2.2663624    3.4790564    0.0312799  0.00    2.8514470   -0.7715567   -3.0936241
h     1.8220237   -1.6191063   -0.6163684  0.00   -0.0063357   -0.0054132   -0.0008939
o     3.6471761    3.1443706   -3.4467195  0.00   -0.0160479   -0.0239443    0.0236438
o     3.2689663    3.1679890   -1.0873492  0.00   -2.8146446    0.8107117    3.0968304
h     3.7721496    3.9558716   -0.7937312  0.00   -0.1693438   -0.0903486    0.0959383
    27
 Energy =       0.7700967776
c    -1.0539759    3.0425366    0.4281874  0.00   -0.0119031    0.0086245    0.0006353
c    -1.1537228    1.6871672    0.2861801  0.00   -0.0190399   -0.0084360    0.0001603
c    -0.0212623    0.9746945    0.0507001  0.00   -0.0156221   -0.0306064    0.0006393
c     0.1665656    3.6613496    0.3407533  0.00   -0.0047098    0.0161827    0.0004006
c     1.3094982    2.9338980    0.0995086  0.00    0.1354066    0.0434555   -0.0757774
c     1.1988491    1.5548563   -0.0668128  0.00    0.0142747    0.0147839   -0.0019031
n     0.0490866   -0.4228890   -0.1359545  0.00    0.0250980    0.0136340   -0.0006835
c     2.1067464    0.5417633   -0.3582293  0.00    0.0308454   -0.0148509   -0.0016245
c     1.4266032   -0.6322376   -0.3975048  0.00   -0.0146696   -0.0202274   -0.0016430
h    -0.7262702   -1.1196602   -0.0891426  0.00    0.0026517    0.0044075   -0.0001070
c     3.6060093    0.5958021   -0.6450013  0.00   -0.0051730    0.0144130   -0.0094938
c     3.9863026    1.0580934   -2.0857961  0.00    0.0121299   -0.0044437    0.0303390
h     4.0491065   -0.4150274   -0.4845366  0.00    0.0016194   -0.0030777    0.0000356
h     4.0909872    1.2530367    0.1142557  0.00    0.0005816    0.0034089    0.0013998
c     3.6729531    2.5394984   -2.2516632  0.00    0.0107941    0.0352287   -0.0387705
n     3.3610332    0.2074886   -3.1434858  0.00   -0.0038127   -0.0102450   -0.0216592
h     5.0912576    0.9853983   -2.1988571  0.00    0.0016738   -0.0009213   -0.0014995
h     2.7561019   -0.5365582   -2.7298839  0.00   -0.0031522    0.0021571    0.0045089
h     2.7150905    0.7908884   -3.7326101  0.00   -0.0001421    0.0079786    0.0027250
h    -1.9507968    3.6330485    0.6144685  0.00   -0.0026785    0.0010801    0.0005816
h    -2.1168845    1.1863162    0.3548203  0.00   -0.0030294   -0.0012113    0.0000324
h     0.2300053    4.7430501    0.4574919  0.00   -0.0001696    0.0027028    0.0009012
h     2.2594425    3.4911896    0.0221922  0.00    2.7580753   -0.7460915   -2.9921355
h     1.8455064   -1.6135121   -0.6209996  0.00   -0.0061307   -0.0052619   -0.0009079
o     3.4884229    3.1311535   -3.4807371  0.00   -0.0166953   -0.0193710    0.0147298
o     3.2653544    3.1795086   -1.0984620  0.00   -2.7223326    0.7840880    2.9962473
h     3.7749764    3.9629771   -0.8066576  0.00   -0.1638901   -0.0874010    0.0928690
    27
 Energy =       0.7546674650
c    -1.0710508    3.0469266    0.4014786  0.00   -0.0116314    0.0084595    0.0006283
c    -1.1674453    1.6900758    0.2722117  0.00   -0.0186013   -0.0082816    0.0001595
c    -0.0330427    0.9782938    0.0452785  0.00   -0.0152654   -0.0297829    0.0006421
c     0.1479905    3.6677177    0.3085640  0.00   -0.0046133    0.0158381    0.0003969
c     1.2925127    2.9403882    0.0757526  0.00    0.1322058    0.0424854   -0.0739715
c     1.1854188    1.5604025   -0.0744522  0.00    0.0138557    0.0144394   -0.0018405
n     0.0424612   -0.4214817   -0.1244004  0.00    0.0245094    0.0131805   -0.0006723
c     2.0977319    0.5482871   -0.3485357  0.00    0.0300574   -0.0144312   -0.0016007
c     1.4223571   -0.6286161   -0.3768428  0.00   -0.0142977   -0.0197600   -0.0016141
h    -0.7306316   -1.1206072   -0.0734547  0.00    0.0025935    0.0042681   -0.0000880
c     3.5997619    0.6052662   -0.6177233  0.00   -0.0051610    0.0139310   -0.0091004
c     3.9984587    1.0409294   -2.0619500  0.00    0.0119362   -0.0045916    0.0294825
h     4.0450048   -0.4006155   -0.4325830  0.00    0.0017467   -0.0032509    0.0000715
h     4.0718909    1.2793806    0.1351455  0.00    0.0006360    0.0034483    0.0015928
c     3.7084795    2.5230186   -2.2550182  0.00    0.0113731    0.0302694   -0.0315980
n     3.3718313    0.1857580   -3.1144903  0.00   -0.0031573   -0.0102140   -0.0210464
h     5.1035081    0.9519826   -2.1643260  0.00    0.0017987   -0.0009138   -0.0015623
h     2.7489577   -0.5425933   -2.6992880  0.00   -0.0033090    0.0017811    0.0046617
h     2.7459935    0.7729677   -3.7221291  0.00   -0.0004625    0.0082838    0.0023499
h    -1.9694053    3.6371033    0.5811529  0.00   -0.0026367    0.0010637    0.0005748
h    -2.1293046    1.1874183    0.3450611  0.00   -0.0029594   -0.0012161    0.0000410
h     0.2087319    4.7508188    0.4133479  0.00   -0.0001805    0.0027133    0.0008822
h     2.2396342    3.4973719   -0.0109590  0.00    2.6927088   -0.7283960   -2.9212812
h     1.8473875   -1.6112447   -0.5826468  0.00   -0.0058964   -0.0052991   -0.0009140
o     3.6471761    3.1171524   -3.5003111  0.00   -0.0164824   -0.0151622    0.0055166
o     3.2478902    3.1850933   -1.1332145  0.00   -2.6588867    0.7664760    2.9277096
h     3.7546882    3.9726364   -0.8434442  0.00   -0.1598804   -0.0853381    0.0905800
    27
 Energy =       0.7185816216
c    -1.0840260    3.0608104    0.3759136  0.00   -0.0108741    0.0079188    0.0005974
c    -1.1813192    1.7031786    0.2605175  0.00   -0.0173677   -0.0077975    0.0001499
c    -0.0479922    0.9888625    0.0403282  0.00   -0.0142587   -0.0276744    0.0006115
c     0.1349012    3.6795880    0.2744202  0.00   -0.0043087    0.0148169    0.0003801
c     1.2779047    2.9489271    0.0485171  0.00    0.1236519    0.0397774   -0.0691386
c     1.1698053    1.5690751   -0.0837571  0.00    0.0128461    0.0134907   -0.0016948
n     0.0281220   -0.4135384   -0.1105958  0.00    0.0228841    0.0121448   -0.0006278
c     2.0832192    0.5563741   -0.3394886  0.00    0.0279511   -0.0133477   -0.0014859
c     1.4101560   -0.6214330   -0.3544461  0.00   -0.0133337   -0.0184321   -0.0015132
h    -0.7443923   -1.1131973   -0.0542027  0.00    0.0024293    0.0039425   -0.0000568
c     3.5884097    0.6123095   -0.5885428  0.00   -0.0049768    0.0128826   -0.0081996
c     4.0096984    1.0160239   -2.0361018  0.00    0.0112392   -0.0046715    0.0273815
h     4.0328756   -0.3883687   -0.3746228  0.00    0.0018454   -0.0033662    0.0001307
h     4.0477418    1.3043248    0.1561153  0.00    0.0006505    0.0033553    0.0017585
c     3.7456425    2.4975984   -2.2623820  0.00    0.0107446    0.0243100   -0.0237157
n     3.3867214    0.1514012   -3.0819225  0.00   -0.0016413   -0.0099094   -0.0194300
h     5.1148895    0.9105646   -2.1225282  0.00    0.0019130   -0.0009058   -0.0015799
h     2.7380066   -0.5541314   -2.6659856  0.00   -0.0035986    0.0010092    0.0048933
h     2.7909445    0.7390154   -3.7199893  0.00   -0.0011796    0.0087346    0.0013621
h    -1.9816929    3.6533857    0.5502185  0.00   -0.0024813    0.0009922    0.0005438
h    -2.1430766    1.2016490    0.3399754  0.00   -0.0027704   -0.0011834    0.0000518
h     0.1964197    4.7638058    0.3656959  0.00   -0.0001828    0.0026208    0.0008240
h     2.2232252    3.5024965   -0.0508330  0.00    2.5182048   -0.6811767   -2.7321390
h     1.8400977   -1.6061094   -0.5395918  0.00   -0.0053914   -0.0051554   -0.0008844
o     3.8059292    3.0855207   -3.5159368  0.00   -0.0147608   -0.0105757   -0.0033159
o     3.2373662    3.1888547   -1.1781410  0.00   -2.4878591    0.7180269    2.7405159
h     3.7474091    3.9768425   -0.8904102  0.00   -0.1493751   -0.0798267    0.0845811
    27
 Energy =       0.6617716445
c    -1.0944586    3.0806907    0.3526791  0.00   -0.0096376    0.0069945    0.0005455
c    -1.1943852    1.7225742    0.2555221  0.00   -0.0153194   -0.0070151    0.0001243
c    -0.0640913    1.0042021    0.0400550  0.00   -0.0125611   -0.0242075    0.0005353
c     0.1242937    3.6955348    0.2360779  0.00   -0.0037524    0.0131182    0.0003502
c     1.2636968    2.9598468    0.0152716  0.00    0.1097598    0.0353376   -0.0612522
c     1.1526536    1.5807947   -0.0939579  0.00    0.0112442    0.0119149   -0.0014640
n     0.0107460   -0.4014405   -0.0869778  0.00    0.0202061    0.0104217   -0.0005457
c     2.0654659    0.5673818   -0.3298054  0.00    0.0245435   -0.0115066   -0.0012924
c     1.3946277   -0.6106571   -0.3252005  0.00   -0.0117860   -0.0162430   -0.0013448
h    -0.7612307   -1.1013589   -0.0205712  0.00    0.0021220    0.0033817   -0.0000064
c     3.5735944    0.6210017   -0.5590454  0.00   -0.0046661    0.0112547   -0.0067999
c     4.0184908    0.9851890   -2.0108297  0.00    0.0100529   -0.0046595    0.0240274
h     4.0164334   -0.3726775   -0.3111543  0.00    0.0019049   -0.0034397    0.0002231
h     4.0203924    1.3341375    0.1732294  0.00    0.0006422    0.0031608    0.0019125
c     3.7829066    2.4641629   -2.2783295  0.00    0.0090574    0.0175659   -0.0154697
n     3.4022718    0.1044078   -3.0455064  0.00    0.0009874   -0.0094847   -0.0167079
h     5.1235161    0.8631941   -2.0778986  0.00    0.0019738   -0.0008945   -0.0015513
h     2.7193729   -0.5687914   -2.6289109  0.00   -0.0041748   -0.0002707    0.0053382
h     2.8476527    0.6869691   -3.7260394  0.00   -0.0023926    0.0095009   -0.0005210
h    -1.9900869    3.6770515    0.5229793  0.00   -0.0022118    0.0008643    0.0004895
h    -2.1560907    1.2234415    0.3467802  0.00   -0.0024858   -0.0011392    0.0000687
h     0.1880293    4.7808680    0.3096083  0.00   -0.0001644    0.0024637    0.0007265
h     2.2064995    3.5089724   -0.1032732  0.00    2.2354734   -0.6045505   -2.4257258
h     1.8299380   -1.5973615   -0.4856137  0.00   -0.0046139   -0.0048494   -0.0008170
o     3.9646823    3.0354249   -3.5330828  0.00   -0.0116285   -0.0058404   -0.0113864
o     3.2309562    3.1928716   -1.2397464  0.00   -2.2101403    0.6389847    2.4355471
h     3.7511097    3.9774003   -0.9540363  0.00   -0.1324328   -0.0708628    0.0749963
    27
 Energy =       0.5865125403
c    -1.1011781    3.1083737    0.3308040  0.00   -0.0079939    0.0057298    0.0004818
c    -1.2057554    1.7500339    0.2589416  0.00   -0.0125430   -0.0060171    0.0000820
c    -0.0807184    1.0253890    0.0468054  0.00   -0.0102213   -0.0194819    0.0004025
c     0.1173497    3.7166522    0.1908682  0.00   -0.0029251    0.0108398    0.0003072
c     1.2507916    2.9735105   -0.0258020  0.00    0.0911852    0.0293999   -0.0506773
c     1.1345633    1.5960209   -0.1046178  0.00    0.0091440    0.0097736   -0.0011608
n    -0.0091940   -0.3840695   -0.0486353  0.00    0.0165637    0.0079932   -0.0004111
c     2.0448405    0.5813831   -0.3180651  0.00    0.0200329   -0.0089078   -0.0010413
c     1.3760359   -0.5958822   -0.2849681  0.00   -0.0097214   -0.0133179   -0.0011195
h    -0.7806827   -1.0835948    0.0342464  0.00    0.0016355    0.0025501    0.0000765
c     3.5552671    0.6312879   -0.5304354  0.00   -0.0042832    0.0091065   -0.0049738
c     4.0224741    0.9468017   -1.9876673  0.00    0.0084105   -0.0045319    0.0195660
h     3.9957839   -0.3529050   -0.2433119  0.00    0.0018927   -0.0034519    0.0003552
h     3.9912722    1.3690544    0.1835928  0.00    0.0006187    0.0028943    0.0020345
c     3.8206129    2.4205631   -2.3048825  0.00    0.0066011    0.0105538   -0.0075118