    13
 Energy =       0.0919621421
c    -3.7133889    1.6950595    0.3173519  0.00   -0.0786164    0.0255287    0.0938535
c    -2.4962693    2.6345192    0.2419999  0.00    0.2317767    0.1079817   -0.3215609
c    -4.9565486    2.3924193   -0.2155699  0.00    0.0049943    0.0126404    0.0153054
h    -4.7854386    2.7464192   -1.2386596  0.00   -0.0051577   -0.0020701    0.0170067
h    -5.2149185    3.2645991    0.3947669  0.00    0.0011719   -0.0120329   -0.0127121
h    -5.8205083    1.7195795   -0.2420919  0.00    0.0076545    0.0156465   -0.0031746
n    -3.4097890    0.4519539   -0.4549189  0.00    0.0782231   -0.0529995   -0.0137732
h    -3.8575589    1.4177196    1.3669296  0.00    0.0112286   -0.0076827   -0.0269667
h    -2.5963493    0.6418898   -1.0496997  0.00   -0.0227386    0.0173360    0.0453193
h    -3.0749291   -0.2623099    0.1989099  0.00   -0.0096894    0.0305329   -0.0224420
o    -1.9513094    3.0041591   -0.7839488  0.00   -0.1413629   -0.0894267    0.2453241
o    -2.1005994    3.0267291    1.4825496  0.00   -0.0372159   -0.0303676   -0.0071088
h    -1.1397697    2.7938992    1.5347396  0.00   -0.0402683   -0.0150866   -0.0090705
    13
 Energy =       0.0708987295
c    -3.6744558    1.6920504    0.3057834  0.00   -0.0431592    0.0157242    0.0508310
c    -2.4999155    2.6716508    0.2627892  0.00    0.1312667    0.0484686   -0.1807987
c    -4.9542140    2.3624866   -0.1837923  0.00    0.0029305    0.0082681    0.0082813
h    -4.8241681    2.7224976   -1.2198420  0.00   -0.0029087   -0.0007557    0.0084899
h    -5.2153255    3.2267850    0.4498700  0.00    0.0004324   -0.0064941   -0.0067904
h    -5.7968384    1.6504823   -0.1765634  0.00    0.0033140    0.0076466   -0.0014801
n    -3.3929332    0.4904144   -0.5224399  0.00    0.0409906   -0.0235945   -0.0142014
h    -3.7939237    1.3867838    1.3617140  0.00    0.0067596   -0.0042169   -0.0138097
h    -2.5682243    0.6756888   -1.1229603  0.00   -0.0119377    0.0109661    0.0256422
h    -3.1248523   -0.3057787    0.0911088  0.00   -0.0034117    0.0085294   -0.0070894
o    -1.9469267    3.0642494   -0.8397769  0.00   -0.0777371   -0.0485414    0.1356702
o    -2.1150540    3.1854823    1.4773782  0.00   -0.0845017    0.0300051   -0.0032167
h    -1.2105456    2.7038439    1.6690896  0.00    0.0379623   -0.0460054   -0.0015281
    13
 Energy =       0.0669850172
c    -3.6565166    1.6792433    0.3037722  0.00   -0.0358621    0.0119185    0.0414772
c    -2.5170705    2.6987605    0.2542506  0.00    0.1093383    0.0402865   -0.1514034
c    -4.9702540    2.3118463   -0.1504746  0.00    0.0104993    0.0019456    0.0077966
h    -4.8297491    2.8217471   -1.1350901  0.00    0.0011247    0.0048916   -0.0031118
h    -5.3271656    3.0680319    0.5929599  0.00   -0.0046269    0.0049708    0.0048040
h    -5.7540108    1.5267678   -0.2728674  0.00   -0.0044918   -0.0034351   -0.0017171
n    -3.3613307    0.4970572   -0.5458963  0.00    0.0339742   -0.0197442   -0.0123055
h    -3.7457672    1.3573717    1.3605584  0.00    0.0054192   -0.0040092   -0.0109469
h    -2.5271778    0.6898484   -1.1350863  0.00   -0.0097308    0.0092174    0.0212126
h    -3.1081853   -0.3164144    0.0536306  0.00   -0.0027411    0.0066573   -0.0055380
o    -1.9719393    3.0927483   -0.8703610  0.00   -0.0649039   -0.0403448    0.1128150
o    -2.1417045    3.2561666    1.4555382  0.00   -0.0734324    0.0281291   -0.0029924
h    -1.2065058    2.8434621    1.6414243  0.00    0.0354333   -0.0404835   -0.0000905
    13
 Energy =       0.0632037557
c    -3.6625175    1.6840673    0.3164313  0.00   -0.0279072    0.0130317    0.0380853
c    -2.5628450    2.7450898    0.2775152  0.00    0.0914316    0.0338048   -0.1238724
c    -4.9761649    2.2405719   -0.2425982  0.00    0.0059369    0.0009082    0.0042604
h    -4.8071663    2.6880886   -1.2544178  0.00    0.0003491    0.0050261   -0.0052221
h    -5.3902483    3.0335755    0.4342068  0.00   -0.0052880    0.0073210    0.0066075
h    -5.7280074    1.4221907   -0.3469661  0.00   -0.0044415   -0.0037865   -0.0019861
n    -3.2814622    0.4708668   -0.4584184  0.00    0.0279423   -0.0192859   -0.0171799
h    -3.8025278    1.4161317    1.3866224  0.00    0.0045730   -0.0030199   -0.0060304
h    -2.4294589    0.6664984   -1.0253806  0.00   -0.0070049    0.0065916    0.0170395
h    -3.0140246   -0.2966242    0.1990838  0.00   -0.0006023    0.0017923   -0.0021051
o    -2.0253235    3.1625524   -0.8583479  0.00   -0.0536956   -0.0326873    0.0929008
o    -2.1998431    3.3188560    1.4770473  0.00   -0.0644412    0.0257799   -0.0033187
h    -1.2377875    2.9747716    1.6475808  0.00    0.0331476   -0.0354761    0.0008210
    13
 Energy =       0.0615876134
c    -3.6818183    1.6944447    0.3176210  0.00   -0.0274596    0.0127494    0.0371148
c    -2.5184548    2.6895433    0.2833567  0.00    0.0877003    0.0316989   -0.1225373
c    -4.9695547    2.3324626   -0.2218241  0.00    0.0048581    0.0021693    0.0029973
h    -4.7852804    2.7848587   -1.2286327  0.00    0.0002050    0.0050141   -0.0051658
h    -5.3364632    3.1366077    0.4698265  0.00   -0.0055549    0.0080615    0.0069226
h    -5.7656436    1.5557180   -0.3321240  0.00   -0.0055908   -0.0048454   -0.0021484
n    -3.3784806    0.4707854   -0.4772424  0.00    0.0242862   -0.0192964   -0.0187981
h    -3.8261230    1.4211582    1.3862491  0.00    0.0042867   -0.0030349   -0.0056180
h    -2.5090733    0.6160008   -1.0357712  0.00   -0.0046244    0.0065376    0.0150990
h    -3.1727777   -0.3296706    0.1670380  0.00    0.0005351   -0.0018638   -0.0001011
o    -1.9985189    3.1213168   -0.8587497  0.00   -0.0517256   -0.0314217    0.0885659
o    -2.0739708    3.1907457    1.4923233  0.00   -0.0629344    0.0298926    0.0026379
h    -1.1012177    2.8426653    1.5902883  0.00    0.0360185   -0.0356611    0.0010315
    13
 Energy =       0.0577999220
c    -3.6937633    1.7024103    0.3224015  0.00   -0.0223895    0.0108999    0.0290000
c    -2.4972987    2.6562907    0.2870247  0.00    0.0701084    0.0227821   -0.0999421
c    -4.9624709    2.3804782   -0.2119225  0.00    0.0039435    0.0020154    0.0021105
h    -4.7706179    2.8124843   -1.2250942  0.00    0.0003243    0.0041333   -0.0043098
h    -5.2942675    3.2034317    0.4726519  0.00   -0.0048200    0.0069951    0.0059481
h    -5.7856565    1.6312289   -0.3056798  0.00   -0.0050727   -0.0044658   -0.0017582
n    -3.4406601    0.4716672   -0.4752071  0.00    0.0136396   -0.0113307   -0.0174749
h    -3.8434809    1.4364687    1.3933711  0.00    0.0032465   -0.0023987   -0.0043149
h    -2.5325981    0.5557241   -0.9919610  0.00    0.0013465    0.0062473    0.0095115
h    -3.3315309   -0.3552450    0.1667996  0.00    0.0013932   -0.0081267    0.0044636
o    -2.0162527    3.1307715   -0.8713105  0.00   -0.0420649   -0.0246536    0.0680906
o    -1.9749353    3.0895598    1.4955480  0.00   -0.0599965    0.0306996    0.0080931
h    -0.9738445    2.8113664    1.4957369  0.00    0.0403416   -0.0327971    0.0005827
    13
 Energy =       0.0546974555
c    -3.6895501    1.7054370    0.3230044  0.00   -0.0154580    0.0079602    0.0206948
c    -2.4995722    2.6638362    0.2824951  0.00    0.0497432    0.0122888   -0.0693770
c    -4.9632548    2.3745854   -0.2056748  0.00    0.0031445    0.0012892    0.0017058
h    -4.7851891    2.7759452   -1.2329176  0.00    0.0003813    0.0031371   -0.0035967
h    -5.2765870    3.2161595    0.4607728  0.00   -0.0034944    0.0052187    0.0045675
h    -5.7908605    1.6289006   -0.2648486  0.00   -0.0039712   -0.0035743   -0.0013348
n    -3.4440837    0.4768352   -0.4744531  0.00   -0.0070563    0.0056305   -0.0182859
h    -3.8317640    1.4452952    1.3979051  0.00    0.0021823   -0.0014398   -0.0027926
h    -2.4641447    0.4883549   -0.8781371  0.00    0.0183158    0.0058502   -0.0004551
h    -3.4902840   -0.3751898    0.1589341  0.00   -0.0000652   -0.0211688    0.0156147
o    -2.0787881    3.2127111   -0.8870682  0.00   -0.0298510   -0.0149754    0.0423651
o    -1.9130486    3.0389388    1.4836389  0.00   -0.0594515    0.0277635    0.0124204
h    -0.8902504    2.8748275    1.3887075  0.00    0.0455807   -0.0279800   -0.0015262
    13
 Energy =       0.0530629987
c    -3.6741418    1.7020360    0.3343409  0.00   -0.0113442    0.0051859    0.0160245
c    -2.5109587    2.6904428    0.2491416  0.00    0.0359622    0.0014240   -0.0450524
c    -4.9838142    2.3347812   -0.1514915  0.00    0.0017621    0.0016873    0.0018959
h    -4.8577748    2.7150503   -1.1948656  0.00    0.0004252    0.0029098   -0.0042063
h    -5.2813842    3.1853725    0.5078226  0.00   -0.0025560    0.0039457    0.0036257
h    -5.7998061    1.5740832   -0.1570981  0.00   -0.0042122   -0.0035628   -0.0010829
n    -3.4315967    0.4778815   -0.4662183  0.00   -0.0052212    0.0041333   -0.0136319
h    -3.7713273    1.4446523    1.4167386  0.00    0.0015336   -0.0014229   -0.0011060
h    -2.4523707    0.4809564   -0.8643493  0.00    0.0136711    0.0045121   -0.0004118
h    -3.4921773   -0.3739605    0.1596767  0.00    0.0000249   -0.0158831    0.0117230
o    -2.2177403    3.3378818   -0.9300849  0.00   -0.0210977   -0.0034873    0.0164649
o    -1.8317699    3.0167889    1.4187915  0.00   -0.0555866    0.0237942    0.0190317
h    -0.8125151    2.9406702    1.2299544  0.00    0.0466388   -0.0232361   -0.0032744
    13
 Energy =       0.0516707276
c    -3.6667544    1.7135081    0.3543912  0.00   -0.0135191    0.0062867    0.0172161
c    -2.4867139    2.6739932    0.1652531  0.00    0.0316162   -0.0022675   -0.0360438
c    -4.9851287    2.3510970   -0.1009541  0.00    0.0019279    0.0011535    0.0020560
h    -4.8919397    2.6986091   -1.1601576  0.00    0.0005676    0.0030683   -0.0052397
h    -5.2464127    3.2246313    0.5447460  0.00   -0.0026328    0.0045175    0.0042391
h    -5.8122764    1.6021943   -0.0551123  0.00   -0.0051987   -0.0043277   -0.0010367
n    -3.4865279    0.4475003   -0.4006690  0.00   -0.0078433    0.0027020   -0.0161252
h    -3.7163736    1.5089831    1.4535574  0.00    0.0010362   -0.0012783    0.0016151
h    -2.5053979    0.3859270   -0.7938778  0.00    0.0163702    0.0034991   -0.0020318
h    -3.5920575   -0.3793919    0.2541347  0.00   -0.0002806   -0.0180176    0.0128059
o    -2.1733461    3.1791287   -1.0870073  0.00   -0.0164958    0.0024896    0.0013380
o    -1.7846765    3.0933115    1.2952185  0.00   -0.0515563    0.0246594    0.0243972
h    -0.7697717    3.0271450    1.0828358  0.00    0.0460085   -0.0224849   -0.0031901
    13
 Energy =       0.0490753931
c    -3.7035268    1.7126152    0.3514491  0.00   -0.0130393    0.0022665    0.0184562
c    -2.4465051    2.5915988    0.2353258  0.00    0.0285136   -0.0018514   -0.0288773
c    -4.9559656    2.4509192   -0.1517212  0.00   -0.0004986    0.0044208    0.0013450
h    -4.7965669    2.8023479   -1.2032646  0.00    0.0005452    0.0040394   -0.0068856
h    -5.1823873    3.3345609    0.4936440  0.00   -0.0028188    0.0050097    0.0039965
h    -5.8365305    1.7588647   -0.1457479  0.00   -0.0078551   -0.0062563   -0.0007781
n    -3.5820835    0.4467247   -0.4180573  0.00   -0.0147435    0.0032469   -0.0153202
h    -3.8205428    1.4927478    1.4446149  0.00    0.0008686   -0.0028842    0.0036097
h    -2.6406241    0.3934970   -0.9101480  0.00    0.0231828    0.0016170   -0.0067203
h    -3.6171214   -0.3799628    0.2471485  0.00   -0.0008551   -0.0193671    0.0152579
o    -2.0145930    3.0633629   -1.0003638  0.00   -0.0106790    0.0062561   -0.0064368
o    -1.7694573    2.9493483    1.4034173  0.00   -0.0462573    0.0242512    0.0260310
h    -0.7514727    2.9100122    1.2060619  0.00    0.0436364   -0.0207486   -0.0036781
    13
 Energy =       0.0442955509
c    -3.7400679    1.7144617    0.3516996  0.00   -0.0096455   -0.0020122    0.0146433
c    -2.4169562    2.4989958    0.3031953  0.00    0.0176151   -0.0010655   -0.0139848
c    -4.9136398    2.5424031   -0.2056051  0.00   -0.0025844    0.0062266    0.0002227
h    -4.6924654    2.8647404   -1.2547899  0.00    0.0008138    0.0038997   -0.0066803
h    -5.0951152    3.4495386    0.4197887  0.00   -0.0027828    0.0048410    0.0030533
h    -5.8436096    1.9176178   -0.2183763  0.00   -0.0082444   -0.0063070   -0.0001048
n    -3.6791576    0.4452707   -0.4159344  0.00   -0.0168443    0.0030540   -0.0106631
h    -3.9286035    1.5000136    1.4371060  0.00    0.0000344   -0.0037059    0.0046629
h    -2.7911201    0.3985932   -1.0013953  0.00    0.0234576   -0.0000288   -0.0097798
h    -3.6393336   -0.3723263    0.2571724  0.00   -0.0012197   -0.0160668    0.0140658
o    -1.8686809    2.9098770   -0.9141447  0.00   -0.0007634    0.0078520   -0.0123799
o    -1.7602572    2.7993281    1.4972830  0.00   -0.0363843    0.0173379    0.0226040
h    -0.7483703    2.8581230    1.2963592  0.00    0.0365479   -0.0140251   -0.0056591
    13
 Energy =       0.0399695813
c    -3.7737881    1.7163984    0.3531747  0.00   -0.0047881   -0.0044294    0.0083635
c    -2.4045351    2.4106936    0.3712345  0.00    0.0100692    0.0003466   -0.0055154
c    -4.8614380    2.6117186   -0.2679806  0.00   -0.0032994    0.0058463   -0.0001949
h    -4.5805832    2.8890558   -1.3144721  0.00    0.0011040    0.0031186   -0.0057433
h    -4.9997990    3.5445543    0.3276654  0.00   -0.0023600    0.0040216    0.0019857
h    -5.8311670    2.0548706   -0.2978457  0.00   -0.0067672   -0.0049151    0.0004407
n    -3.7587940    0.4418050   -0.3992860  0.00   -0.0205651    0.0079055   -0.0065626
h    -4.0363726    1.5236782    1.4274631  0.00   -0.0010241   -0.0033230    0.0049660
h    -2.9498732    0.4256198   -1.0936697  0.00    0.0235022   -0.0003028   -0.0144018
h    -3.5966254   -0.3584945    0.2777739  0.00   -0.0001583   -0.0163409    0.0160778
o    -1.7772395    2.7856831   -0.8190239  0.00    0.0027833    0.0056987   -0.0099214
o    -1.7718524    2.6570924    1.5877695  0.00   -0.0255868    0.0091162    0.0165491
h    -0.7753097    2.8239614    1.3995554  0.00    0.0270902   -0.0067422   -0.0060435
    13
 Energy =       0.0365777420
c    -3.8057895    1.7200507    0.3523080  0.00   -0.0010436   -0.0051125    0.0032319
c    -2.4029705    2.3249839    0.4408080  0.00    0.0046216    0.0001414   -0.0006192
c    -4.7963852    2.6699388   -0.3414311  0.00   -0.0029729    0.0046869   -0.0002649
h    -4.4525791    2.8937324   -1.3806015  0.00    0.0013369    0.0021505   -0.0046678
h    -4.8906173    3.6272880    0.2204929  0.00   -0.0017078    0.0029742    0.0010354
h    -5.8005653    2.1852514   -0.3968943  0.00   -0.0050096   -0.0031287    0.0006405
n    -3.8271626    0.4381979   -0.3775003  0.00   -0.0174357    0.0090443   -0.0034441
h    -4.1432037    1.5595337    1.4101412  0.00   -0.0017427   -0.0024564    0.0044061
h    -3.1086263    0.4527518   -1.1603668  0.00    0.0168354    0.0004383   -0.0132966
h    -3.5410620   -0.3361709    0.2858259  0.00    0.0016685   -0.0133701    0.0142476
o    -1.7020368    2.6665526   -0.7163846  0.00    0.0035401    0.0033241   -0.0067367
o    -1.8110526    2.5301622    1.6827976  0.00   -0.0146231    0.0024354    0.0096847
h    -0.8353261    2.7943641    1.5331637  0.00    0.0165330   -0.0011276   -0.0042169
    13
 Energy =       0.0346953172
c    -3.8338226    1.7231607    0.3478142  0.00    0.0005104   -0.0033311    0.0007761
c    -2.4115621    2.2471825    0.5113087  0.00   -0.0001856   -0.0013370    0.0013256
c    -4.7222233    2.7147260   -0.4153823  0.00   -0.0013429    0.0024310   -0.0002341
h    -4.3162682    2.8875275   -1.4392622  0.00    0.0009152    0.0008420   -0.0024926
h    -4.7746758    3.6892033    0.1182692  0.00   -0.0006705    0.0011783    0.0001592
h    -5.7518168    2.3005852   -0.5087212  0.00   -0.0026541   -0.0011462    0.0003156
n    -3.8825204    0.4344049   -0.3599232  0.00   -0.0110647    0.0069472   -0.0006914
h    -4.2403944    1.5975615    1.3832643  0.00   -0.0012422   -0.0011384    0.0023332
h    -3.2673794    0.4807691   -1.2183694  0.00    0.0079327    0.0014793   -0.0086827
h    -3.4702803   -0.3088110    0.2656995  0.00    0.0031945   -0.0079287    0.0092588
o    -1.6306057    2.5391182   -0.6061397  0.00    0.0032309    0.0015559   -0.0049366
o    -1.8853134    2.4437890    1.7822107  0.00   -0.0038338   -0.0008284    0.0036258
h    -0.9305147    2.7774200    1.6915900  0.00    0.0052103    0.0012762   -0.0007568
    13
 Energy =       0.0343575354
c    -3.8440762    1.7213503    0.3415688  0.00   -0.0002462    0.0005274    0.0001661
c    -2.4216415    2.2165153    0.5507355  0.00   -0.0010498   -0.0003924   -0.0004531
c    -4.6830407    2.7302420   -0.4457386  0.00    0.0003597   -0.0003416    0.0001316
h    -4.2420296    2.8957632   -1.4530431  0.00   -0.0002452   -0.0001286    0.0002658
h    -4.7277337    3.7027200    0.0896000  0.00    0.0002297   -0.0004287   -0.0000664
h    -5.7158403    2.3420833   -0.5748187  0.00    0.0002054    0.0001027   -0.0000985
n    -3.8975597    0.4321640   -0.3649172  0.00    0.0009353   -0.0002142   -0.0002591
h    -4.2827547    1.6056600    1.3616227  0.00    0.0003014    0.0001665   -0.0003325
h    -3.3406683    0.4953483   -1.2520308  0.00   -0.0005035   -0.0001670    0.0010752
h    -3.4267899   -0.2970240    0.2215773  0.00   -0.0005194    0.0005948   -0.0006972
o    -1.5883467    2.4549825   -0.5380411  0.00    0.0005563    0.0002885   -0.0016570
o    -1.9510446    2.4494257    1.8364123  0.00    0.0011673    0.0001422    0.0018758
h    -0.9958511    2.7774062    1.7794316  0.00   -0.0011910   -0.0001495    0.0000492
    13
 Energy =       0.0343533526
c    -3.8465287    1.7259543    0.3429887  0.00    0.0000831    0.0005288    0.0003318
c    -2.4262969    2.2259275    0.5568548  0.00   -0.0008930   -0.0003726   -0.0004082
c    -4.6773664    2.7178389   -0.4753717  0.00   -0.0000725   -0.0001463   -0.0000464
h    -4.2244254    2.8628898   -1.4809594  0.00   -0.0000723   -0.0000461   -0.0001077
h    -4.7297068    3.7016292    0.0390811  0.00    0.0000908    0.0000097    0.0000951
h    -5.7083040    2.3258046   -0.6084069  0.00    0.0000914    0.0000810   -0.0000799
n    -3.8919572    0.4213353   -0.3360603  0.00    0.0002555   -0.0003272   -0.0004535
h    -4.2964485    1.6321213    1.3608562  0.00    0.0000991    0.0001180    0.0000978
h    -3.3270519    0.4660839   -1.2197839  0.00   -0.0001293   -0.0001500    0.0003398
h    -3.4252673   -0.2944557    0.2708042  0.00   -0.0001012    0.0000063   -0.0001307
o    -1.5800047    2.4368550   -0.5275223  0.00    0.0005514    0.0002201   -0.0015964
o    -1.9705890    2.4904791    1.8418241  0.00    0.0007794    0.0001607    0.0019514
h    -1.0134306    2.8141734    1.7880542  0.00   -0.0006824   -0.0000825    0.0000069
    13
 Energy =       0.0343443141
c    -3.8418867    1.7146367    0.3416183  0.00    0.0004448    0.0005879    0.0005932
c    -2.4197356    2.2114811    0.5508493  0.00   -0.0002616   -0.0001685   -0.0001403
c    -4.6858645    2.7299900   -0.4348462  0.00   -0.0005911    0.0000195   -0.0001764
h    -4.2457641    2.9084059   -1.4413476  0.00    0.0001484    0.0000990   -0.0006379
h    -4.7350027    3.6972393    0.1115658  0.00   -0.0000578    0.0005648    0.0003292
h    -5.7173448    2.3389523   -0.5671928  0.00    0.0000151    0.0000460   -0.0000419
n    -3.8943708    0.4306027   -0.3762631  0.00   -0.0007047   -0.0003602   -0.0005192
h    -4.2775967    1.5887807    1.3627757  0.00   -0.0001370    0.0000387    0.0006367
h    -3.3453747    0.5046413   -1.2688358  0.00    0.0004252   -0.0001138   -0.0007336
h    -3.4136760   -0.3017754    0.2003137  0.00    0.0004566   -0.0008342    0.0005351
o    -1.5760059    2.4190088   -0.5354904  0.00    0.0002179    0.0000888   -0.0006564
o    -1.9615253    2.4820342    1.8330305  0.00    0.0002996    0.0000614    0.0008112
h    -1.0032296    2.8026392    1.7761813  0.00   -0.0002554   -0.0000295    0.0000003
    13
 Energy =       0.0343396425
c    -3.8409236    1.7112315    0.3410668  0.00   -0.0000407   -0.0000462   -0.0000433
c    -2.4185787    2.2075448    0.5508891  0.00   -0.0001337   -0.0000556   -0.0001215
c    -4.6852924    2.7293763   -0.4295029  0.00    0.0000526   -0.0000025    0.0000156
h    -4.2455659    2.9130881   -1.4344833  0.00   -0.0000091   -0.0000109    0.0000499
h    -4.7345663    3.6932749    0.1215049  0.00    0.0000044   -0.0000417   -0.0000291
h    -5.7166979    2.3384772   -0.5632522  0.00   -0.0000019   -0.0000066    0.0000041
n    -3.8947577    0.4309357   -0.3817086  0.00    0.0000501    0.0000331    0.0000464
h    -4.2755478    1.5808845    1.3614371  0.00    0.0000075   -0.0000031   -0.0000542
h    -3.3488512    0.5095794   -1.2751844  0.00   -0.0000260    0.0000087    0.0000532
h    -3.4113580   -0.3027384    0.1896805  0.00   -0.0000369    0.0000648   -0.0000332
o    -1.5672381    2.3940445   -0.5330361  0.00    0.0000966    0.0000177   -0.0002515
o    -1.9689768    2.5023059    1.8305293  0.00   -0.0000082    0.0000359    0.0003829
h    -1.0090228    2.8186322    1.7744185  0.00    0.0000453    0.0000063   -0.0000192
    13
 Energy =       0.0343395155
c    -3.8407934    1.7107002    0.3410565  0.00    0.0000041    0.0000049    0.0000052
c    -2.4183420    2.2066292    0.5510309  0.00    0.0000073    0.0000031    0.0000077
c    -4.6850094    2.7295638   -0.4288637  0.00   -0.0000053    0.0000003   -0.0000018
h    -4.2453576    2.9137753   -1.4338379  0.00    0.0000010    0.0000010   -0.0000052
h    -4.7339935    3.6931662    0.1228008  0.00   -0.0000004    0.0000044    0.0000028
h    -5.7165292    2.3390234   -0.5627367  0.00    0.0000002    0.0000006   -0.0000006
n    -3.8950205    0.4307559   -0.3824740  0.00   -0.0000054   -0.0000035   -0.0000047
h    -4.2753090    1.5798933    1.3614686  0.00   -0.0000009    0.0000004    0.0000055
h    -3.3494535    0.5098252   -1.2761622  0.00    0.0000028   -0.0000010   -0.0000054
h    -3.4114325   -0.3033562    0.1882823  0.00    0.0000038   -0.0000068    0.0000038
o    -1.5655320    2.3890509   -0.5322382  0.00   -0.0000051   -0.0000003    0.0000132
o    -1.9703568    2.5059031    1.8299648  0.00    0.0000021   -0.0000028   -0.0000221
h    -1.0102476    2.8217065    1.7740672  0.00   -0.0000042   -0.0000004    0.0000015
    13
 Energy =       0.0343395151
c    -3.8407925    1.7106952    0.3410526  0.00    0.0000000    0.0000000    0.0000000
c    -2.4183397    2.2066216    0.5510282  0.00   -0.0000000   -0.0000000   -0.0000000
c    -4.6850058    2.7295608   -0.4288533  0.00   -0.0000000    0.0000000    0.0000000
h    -4.2453532    2.9137818   -1.4338201  0.00   -0.0000000    0.0000000    0.0000000
h    -4.7339898    3.6931543    0.1228171  0.00   -0.0000000    0.0000000    0.0000000
h    -5.7165257    2.3390200   -0.5627284  0.00   -0.0000000   -0.0000000    0.0000000
n    -3.8950251    0.4307627   -0.3824846  0.00    0.0000000   -0.0000000   -0.0000000
h    -4.2753079    1.5798793    1.3614584  0.00    0.0000000   -0.0000000    0.0000000
h    -3.3494575    0.5098390   -1.2761679  0.00    0.0000000    0.0000000   -0.0000000
h    -3.4114404   -0.3033498    0.1882649  0.00    0.0000000    0.0000000   -0.0000000
o    -1.5655091    2.3889853   -0.5322441  0.00    0.0000000   -0.0000000   -0.0000000
o    -1.9703758    2.5059563    1.8299675  0.00   -0.0000000    0.0000000    0.0000000
h    -1.0102544    2.8217303    1.7740684  0.00    0.0000000   -0.0000000   -0.0000000
