13
UFF-Energy = 0.0733604
C    -5.2952135    1.9292349    0.8350970 
C    -4.2187982    1.7087122   -0.2427327 
H    -5.6965751    2.9652912    0.7753969 
H    -4.8671465    1.7836955    1.8519417 
H    -6.1388117    1.2203388    0.6954212 
C    -3.0803530    2.7148603   -0.1342709 
N    -3.7207948    0.3280658   -0.1638573 
H    -4.6748523    1.8742135   -1.2473037 
H    -3.3176314    0.1489667    0.7881371 
H    -4.5143097   -0.3423587   -0.2977772 
O    -2.4572768    2.9473274    1.0864719 
O    -2.6314716    3.3854201   -1.2639710 
H    -1.9852455    2.7848474   -1.7560127 
