    27
 Energy =       2.6807567929
c    -1.4235396    2.6054793   -0.0667700  0.00   -0.0467876    0.0386252    0.0024834
c    -1.3072796    1.2134697   -0.1072300  0.00   -0.0854090   -0.0328304    0.0018052
c    -0.0178900    0.6711998   -0.1697000  0.00   -0.0885815   -0.1880459   -0.0008465
c    -0.2940599    3.4190890   -0.0891300  0.00    0.1031945    0.0663048    0.0965310
c     0.9872197    2.8590292   -0.1560400  0.00    3.0735659    3.6501693   10.5065407
c     1.1340797    1.4562096   -0.1970299  0.00    0.0981047    0.1192321    0.0333072
n     0.3879399   -0.6395298   -0.2140799  0.00    0.1424221    0.1102048   -0.0034242
c     2.2666594    0.5727398   -0.2659299  0.00    0.1531369   -0.0813000   -0.0282759
c     1.7555995   -0.7123598   -0.2706899  0.00   -0.1009778   -0.0976294    0.0040686
h    -0.2400399   -1.4313496   -0.2047299  0.00    0.0368500    0.0478438   -0.0005136
c     3.7030089    1.0223397   -0.3320099  0.00   -0.0400088    0.0308936    0.0211421
c     4.0547688    2.2615794    0.5049969  0.00   -0.0106574   -0.0578378    0.0882743
h     3.9407589    1.2278196   -1.3843196  0.00   -0.0024852   -0.0080321    0.0136924
h     4.3455988    0.1801669   -0.0411573  0.00   -0.0116767    0.0046544   -0.0078255
c     2.9727892    3.3351790    0.2854279  0.00   -0.1082356   -0.2047062   -0.0512738
n     5.3813085    2.8752092    0.1415580  0.00    0.0551297    0.1053750    0.0096679
h     4.0661188    2.0288794    1.5763396  0.00    0.0140267    0.0205147   -0.0205277
h     5.1879785    3.8105889   -0.2309739  0.00   -0.0307450   -0.0411828    0.0296634
h     5.8882183    3.0583491    1.0146997  0.00   -0.0238135   -0.0063015   -0.0260688
h    -2.4108593    3.0588691   -0.0157800  0.00   -0.0005049    0.0001689    0.0001624
h    -2.1896094    0.5822398   -0.0890100  0.00   -0.0036491    0.0036960    0.0001321
h    -0.4052699    4.5000487   -0.0535400  0.00    0.0012323   -0.0031256    0.0019488
h     1.8590495    3.5066790   -0.1715100  0.00   -0.4228419    0.3521346    1.6437477
h     2.2327294   -1.6813195   -0.3062999  0.00   -0.0406192   -0.0111730    0.0023866
o     2.7320592    3.8947389   -0.7713858  0.00   -0.0657647   -0.1067954   -0.2388247
o     2.2961393    3.5939090    1.4368496  0.00   -0.2312455   -0.2001551   -0.3251857
h     1.3544696    3.3499890    1.2409596  0.00   -2.3636596   -3.5107021  -11.7527874
    27
 Energy =       2.5629850278
c    -1.4274785    2.5629867   -0.0144286  0.00   -0.0444722    0.0368044    0.0023517
c    -1.2976766    1.1735860   -0.0639681  0.00   -0.0812612   -0.0313684    0.0017556
c    -0.0047778    0.6453304   -0.1246298  0.00   -0.0846334   -0.1763006   -0.0003646
c    -0.3066321    3.3868040   -0.0330564  0.00    0.0981869    0.0630568    0.0917532
c     0.9784974    2.8386901   -0.1007893  0.00    2.9242946    3.4774947    9.9994447
c     1.1346291    1.4435145   -0.1496348  0.00    0.0929749    0.1142783    0.0314616
n     0.4163770   -0.6631498   -0.2276227  0.00    0.1356725    0.1029419   -0.0036647
c     2.2737290    0.5863069   -0.2530312  0.00    0.1427896   -0.0763300   -0.0258457
c     1.7884377   -0.7053841   -0.2879830  0.00   -0.0964566   -0.0913472    0.0042771
h    -0.1960301   -1.4697794   -0.2427061  0.00    0.0345706    0.0447277   -0.0006160
c     3.6898771    1.0778990   -0.3981818  0.00   -0.0383209    0.0308047    0.0224593
c     4.0569508    2.2900240    0.4734767  0.00   -0.0110558   -0.0560382    0.0831169
h     3.8400485    1.3491021   -1.4581015  0.00   -0.0015358   -0.0061407    0.0075283
h     4.3836356    0.2419179   -0.1999104  0.00   -0.0073567    0.0006546   -0.0065641
c     2.9666470    3.3727643    0.3345353  0.00   -0.1000504   -0.1918404   -0.0469865
n     5.3664429    2.9148549    0.0714649  0.00    0.0527987    0.0994251    0.0068702
h     4.1143502    2.0182916    1.5365422  0.00    0.0134893    0.0190287   -0.0177690
h     5.1592786    3.8569223   -0.2819162  0.00   -0.0289571   -0.0385617    0.0278273
h     5.9159440    3.0763717    0.9253431  0.00   -0.0215092   -0.0057904   -0.0229451
h    -2.4193359    3.0067045    0.0343091  0.00   -0.0005393    0.0001842    0.0001572
h    -2.1736539    0.5331501   -0.0622411  0.00   -0.0036257    0.0033786    0.0001223
h    -0.4278012    4.4668570    0.0037175  0.00    0.0011671   -0.0029189    0.0018632
h     1.8297011    3.4658382   -0.1254721  0.00   -0.4060402    0.3251497    1.5586059
h     2.2893563   -1.6593342   -0.3909103  0.00   -0.0374005   -0.0130574    0.0020948
o     2.6753346    3.9130760   -0.7099758  0.00   -0.0605008   -0.0978361   -0.2290593
o     2.2874734    3.5662598    1.5056694  0.00   -0.2216781   -0.1889567   -0.3069105
h     1.3446221    3.3296384    1.3030164  0.00   -2.2505504   -3.3414427  -11.1809637
    27
 Energy =       2.2844806610
c    -1.4295980    2.5014935    0.0321383  0.00   -0.0376609    0.0314620    0.0019987
c    -1.2804797    1.1189434   -0.0316834  0.00   -0.0691075   -0.0268656    0.0015453
c     0.0131416    0.6105702   -0.0873474  0.00   -0.0725600   -0.1459474    0.0011703
c    -0.3221231    3.3376223    0.0250953  0.00    0.0844078    0.0534780    0.0783927
c     0.9657184    2.8062865   -0.0348779  0.00    2.5150697    3.0042913    8.6146434
c     1.1310340    1.4248030   -0.1003070  0.00    0.0790646    0.0992972    0.0264919
n     0.4490117   -0.6963123   -0.2659411  0.00    0.1152260    0.0845296   -0.0044612
c     2.2758065    0.6111683   -0.2411035  0.00    0.1188073   -0.0631775   -0.0202687
c     1.8313099   -0.6868897   -0.3203689  0.00   -0.0826582   -0.0753885    0.0048215
h    -0.1424334   -1.5243863   -0.3195128  0.00    0.0284662    0.0362788   -0.0009927
c     3.6642004    1.1530977   -0.4643010  0.00   -0.0320144    0.0271624    0.0207038
c     4.0534735    2.3335125    0.4441748  0.00   -0.0107810   -0.0497045    0.0686121
h     3.7264797    1.4878876   -1.5217154  0.00   -0.0009550   -0.0035025    0.0010539
h     4.4033040    0.3311042   -0.3586635  0.00   -0.0024206   -0.0029869   -0.0052381
c     2.9580464    3.4277774    0.4237609  0.00   -0.0811859   -0.1542537   -0.0371217
n     5.3401668    2.9606474   -0.0114305  0.00    0.0442531    0.0829882    0.0004553
h     4.1707694    2.0092548    1.4932120  0.00    0.0121318    0.0152716   -0.0121003
h     5.1262228    3.9159632   -0.3369179  0.00   -0.0244113   -0.0317712    0.0229952
h     5.9554763    3.0825134    0.8106331  0.00   -0.0148949   -0.0045857   -0.0150881
h    -2.4277771    2.9317257    0.0739567  0.00   -0.0005926    0.0002053    0.0001409
h    -2.1468028    0.4655089   -0.0561186  0.00   -0.0034539    0.0025633    0.0000651
h    -0.4564985    4.4165264    0.0635069  0.00    0.0010000   -0.0023940    0.0015974
h     1.7998455    3.4120104   -0.0701306  0.00   -0.3604386    0.2483262    1.3232439
h     2.3770831   -1.6078906   -0.4988870  0.00   -0.0297270   -0.0148052    0.0011697
o     2.6159289    3.9648794   -0.5841139  0.00   -0.0436912   -0.0731031   -0.1956456
o     2.2718954    3.5304851    1.6140084  0.00   -0.1940602   -0.1610143   -0.2582757
h     1.3347445    3.3009400    1.3864494  0.00   -1.9378133   -2.8763539   -9.6199092
    27
 Energy =       2.0695949730
c    -1.4322557    2.4651081    0.0405227  0.00   -0.0319914    0.0270265    0.0017345
c    -1.2710460    1.0895548   -0.0521266  0.00   -0.0587143   -0.0233084    0.0013582
c     0.0211436    0.5935019   -0.1010604  0.00   -0.0614652   -0.1199368    0.0030633
c    -0.3333312    3.3072213    0.0610285  0.00    0.0728101    0.0455710    0.0670431
c     0.9549777    2.7867697    0.0107390  0.00    2.1636956    2.5889500    7.4232337
c     1.1250398    1.4153328   -0.0814402  0.00    0.0674915    0.0859535    0.0224954
n     0.4614076   -0.7068086   -0.3628143  0.00    0.0975400    0.0684125   -0.0059197
c     2.2719048    0.6304198   -0.2414440  0.00    0.1014015   -0.0523093   -0.0168122
c     1.8525099   -0.6674325   -0.3702163  0.00   -0.0695063   -0.0628424    0.0053933
h    -0.1205824   -1.5427581   -0.4782659  0.00    0.0225021    0.0281237   -0.0016205
c     3.6490544    1.1956307   -0.4796050  0.00   -0.0271850    0.0227993    0.0176057
c     4.0479364    2.3517014    0.4562299  0.00   -0.0090512   -0.0426138    0.0577644
h     3.6853509    1.5638126   -1.5282627  0.00   -0.0007510   -0.0026999    0.0000521
h     4.4009702    0.3799197   -0.4116068  0.00   -0.0015415   -0.0031374   -0.0044437
c     2.9588774    3.4540114    0.5026260  0.00   -0.0681732   -0.1287557   -0.0310852
n     5.3290341    2.9730588   -0.0093912  0.00    0.0369696    0.0698434   -0.0007699
h     4.1820924    1.9883094    1.4931556  0.00    0.0105984    0.0126669   -0.0094571
h     5.1255415    3.9409794   -0.3136725  0.00   -0.0209592   -0.0264308    0.0193972
h     5.9689338    3.0632321    0.8013402  0.00   -0.0117603   -0.0038926   -0.0117410
h    -2.4343501    2.8869378    0.0738895  0.00   -0.0006056    0.0001584    0.0001231
h    -2.1310256    0.4294103   -0.1149360  0.00   -0.0035139    0.0016094   -0.0000288
h    -0.4756408    4.3850152    0.1107689  0.00    0.0008913   -0.0019282    0.0013558
h     1.7955467    3.3987084   -0.0258033  0.00   -0.3134201    0.2049072    1.1309021
h     2.4306059   -1.5612147   -0.5854131  0.00   -0.0248041   -0.0139868    0.0007825
o     2.5998604    4.0069602   -0.4765519  0.00   -0.0342047   -0.0590345   -0.1660927
o     2.2654098    3.5036051    1.6980134  0.00   -0.1677584   -0.1383915   -0.2197349
h     1.3299807    3.2882557    1.4478119  0.00   -1.6684949   -2.4767536   -8.2845985
    27
 Energy =       1.7865238772
c    -1.4369794    2.4112558    0.0649389  0.00   -0.0240205    0.0204214    0.0012788
c    -1.2538551    1.0445500   -0.0318202  0.00   -0.0443731   -0.0176016    0.0007442
c     0.0371296    0.5706986   -0.0893830  0.00   -0.0462225   -0.0900093    0.0013069
c    -0.3539123    3.2667966    0.0904955  0.00    0.0562908    0.0339959    0.0515273
c     0.9383456    2.7663723    0.0437137  0.00    1.6889169    2.0282818    5.8197188
c     1.1170212    1.4067527   -0.0751353  0.00    0.0501592    0.0663410    0.0170758
n     0.4874378   -0.7362996   -0.3384299  0.00    0.0680143    0.0520270   -0.0026934
c     2.2658708    0.6644716   -0.2772466  0.00    0.0759885   -0.0391646   -0.0109939
c     1.8862643   -0.6358543   -0.4291132  0.00   -0.0485612   -0.0454924    0.0029660
h    -0.0768309   -1.5963294   -0.4134286  0.00    0.0159163    0.0195112   -0.0021400
c     3.6197043    1.2683330   -0.5608376  0.00   -0.0204461    0.0164738    0.0136489
c     4.0418797    2.3742091    0.4266599  0.00   -0.0062316   -0.0325690    0.0429296
h     3.5983263    1.6991635   -1.5895435  0.00   -0.0005139   -0.0007144   -0.0032632
h     4.3923248    0.4648355   -0.5703600  0.00    0.0011308   -0.0046324   -0.0033695
c     2.9650424    3.4844425    0.5797253  0.00   -0.0501289   -0.0920147   -0.0229920
n     5.3160945    2.9916596   -0.0446499  0.00    0.0263359    0.0508039   -0.0028230
h     4.1973773    1.9420290    1.4394531  0.00    0.0087366    0.0084138   -0.0045855
h     5.1291514    3.9805071   -0.3065107  0.00   -0.0164578   -0.0178457    0.0144846
h     5.9853590    3.0298932    0.7520095  0.00   -0.0069171   -0.0030669   -0.0062407
h    -2.4456254    2.8170444    0.1011500  0.00   -0.0006191    0.0001298    0.0000549
h    -2.1018888    0.3692343   -0.0925803  0.00   -0.0028003    0.0010929   -0.0005062
h    -0.5119030    4.3424092    0.1477717  0.00    0.0006390   -0.0013697    0.0013090
h     1.7913027    3.3893820    0.0069599  0.00   -0.2487012    0.1455830    0.8674293
h     2.5036523   -1.4879447   -0.7075427  0.00   -0.0160621   -0.0126608   -0.0007128
o     2.5764316    4.0637127   -0.3563105  0.00   -0.0217667   -0.0394497   -0.1247535
o     2.2679290    3.4482433    1.7862371  0.00   -0.1296734   -0.1082341   -0.1626675
h     1.3222967    3.2796743    1.5072931  0.00   -1.3086326   -1.9382504   -6.4867329
    27
 Energy =       1.6927049816
c    -1.4439987    2.3581658    0.1100737  0.00   -0.0216653    0.0183815    0.0011471
c    -1.2391464    0.9958472    0.0223369  0.00   -0.0399783   -0.0159182    0.0005940
c     0.0562587    0.5436054   -0.0475402  0.00   -0.0413702   -0.0803936    0.0009757
c    -0.3757568    3.2302898    0.1212351  0.00    0.0504990    0.0305929    0.0462360
c     0.9238564    2.7518159    0.0671938  0.00    1.5210146    1.8265606    5.2450394
c     1.1190107    1.3966386   -0.0551994  0.00    0.0447550    0.0597568    0.0154319
n     0.5236368   -0.7634243   -0.2787748  0.00    0.0585619    0.0464322   -0.0017135
c     2.2729386    0.6808875   -0.2840875  0.00    0.0675864   -0.0353699   -0.0092337
c     1.9188245   -0.6254299   -0.4270747  0.00   -0.0417064   -0.0401109    0.0023370
h    -0.0238721   -1.6389861   -0.3216871  0.00    0.0135745    0.0164091   -0.0018885
c     3.6021890    1.3151237   -0.6206250  0.00   -0.0175167    0.0153528    0.0123219
c     4.0491758    2.4106501    0.3677574  0.00   -0.0065363   -0.0306893    0.0380559
h     3.5269115    1.7635013   -1.6405104  0.00   -0.0005523   -0.0000666   -0.0044009
h     4.3898558    0.5270187   -0.6772081  0.00    0.0021315   -0.0048737   -0.0030371
c     2.9583323    3.4940011    0.6121583  0.00   -0.0454725   -0.0809240   -0.0225015
n     5.2867486    3.0585152   -0.1592869  0.00    0.0247356    0.0441153   -0.0071829
h     4.2665125    1.9562233    1.3626153  0.00    0.0083448    0.0065011   -0.0020843
h     5.0758582    4.0573142   -0.3725449  0.00   -0.0154924   -0.0135535    0.0121701
h     6.0109710    3.0678489    0.5932563  0.00   -0.0030544   -0.0031766   -0.0020704
h    -2.4589318    2.7474172    0.1550882  0.00   -0.0007559    0.0001710    0.0000553
h    -2.0760182    0.3051648   -0.0201814  0.00   -0.0027985    0.0007677   -0.0004706
h    -0.5512927    4.3034249    0.1772199  0.00    0.0005479   -0.0010655    0.0011776
h     1.7730183    3.3977290    0.0302946  0.00   -0.2246030    0.1297972    0.7776506
h     2.5508889   -1.4567892   -0.7344785  0.00   -0.0137435   -0.0117337   -0.0008856
o     2.5377663    4.1059956   -0.2894495  0.00   -0.0192778   -0.0328138   -0.1133357
o     2.2743232    3.3636692    1.8310054  0.00   -0.1123465   -0.0982460   -0.1363270
h     1.3098860    3.2730245    1.5419287  0.00   -1.1848811   -1.7459031   -5.8480608
    27
 Energy =       1.5433657397
c    -1.4358611    2.4225703    0.1350531  0.00   -0.0178410    0.0145051    0.0013027
c    -1.2519084    1.0584810    0.0631846  0.00   -0.0325520   -0.0135510    0.0006557
c     0.0300954    0.5870537   -0.0219741  0.00   -0.0330863   -0.0648104    0.0007322
c    -0.3557198    3.2796532    0.1230534  0.00    0.0409509    0.0251042    0.0379258
c     0.9360148    2.7788307    0.0701994  0.00    1.2572780    1.5171094    4.3477326
c     1.0988392    1.4206216   -0.0521057  0.00    0.0360762    0.0482983    0.0127987
n     0.4685063   -0.7371226   -0.2302135  0.00    0.0469431    0.0368843   -0.0007627
c     2.2331384    0.6906960   -0.2964825  0.00    0.0549299   -0.0284687   -0.0073049
c     1.8649769   -0.6100587   -0.4227962  0.00   -0.0326203   -0.0323599    0.0013081
h    -0.0942976   -1.6071542   -0.2441667  0.00    0.0109031    0.0123767   -0.0013189
c     3.5649925    1.2985166   -0.6681885  0.00   -0.0146860    0.0125258    0.0089500
c     4.0715005    2.3569996    0.3323005  0.00   -0.0053637   -0.0240698    0.0312851
h     3.4618607    1.7763249   -1.6728770  0.00   -0.0011926    0.0004955   -0.0047300
h     4.3337864    0.4963941   -0.7741187  0.00    0.0028787   -0.0044547   -0.0032227
c     3.0134315    3.4535833    0.6455558  0.00   -0.0378307   -0.0633588   -0.0172246
n     5.3004971    2.9842124   -0.2340845  0.00    0.0151934    0.0311458   -0.0133979
h     4.3140457    1.8734423    1.3082968  0.00    0.0076490    0.0052595   -0.0012093
h     5.1277027    4.0083295   -0.3751506  0.00   -0.0148992   -0.0046715    0.0090353
h     6.0815656    2.9090958    0.4648053  0.00    0.0055520   -0.0028942    0.0043864
h    -2.4449835    2.8249368    0.1929702  0.00   -0.0009265   -0.0003700    0.0004901
h    -2.0978026    0.3772356    0.0476949  0.00   -0.0024340   -0.0001632   -0.0000774
h    -0.5145964    4.3553788    0.1764949  0.00    0.0001461   -0.0010078    0.0013646
h     1.8193750    3.3805558    0.0407253  0.00   -0.1830523    0.0999334    0.6324569
h     2.4898353   -1.4421493   -0.7430414  0.00   -0.0107102   -0.0093613   -0.0011815
o     2.5985644    4.0857223   -0.2335840  0.00   -0.0150246   -0.0257283   -0.0916589
o     2.3166828    3.2907402    1.8640827  0.00   -0.0802527   -0.0840258   -0.1039816
h     1.3277044    3.3063529    1.5678819  0.00   -0.9960284   -1.4443426   -4.8443537
    27
 Energy =       1.4380832213
c    -1.4217119    2.5019178    0.0781740  0.00   -0.0157623    0.0125664    0.0011893
c    -1.2701130    1.1341581    0.0228352  0.00   -0.0282247   -0.0119380    0.0006236
c    -0.0018352    0.6311249   -0.0461284  0.00   -0.0283717   -0.0552769    0.0007503
c    -0.3209792    3.3316101    0.0662098  0.00    0.0348531    0.0221002    0.0324908
c     0.9565605    2.7967147    0.0333986  0.00    1.0869013    1.3139409    3.7592222
c     1.0837507    1.4358636   -0.0712483  0.00    0.0309640    0.0414270    0.0112768
n     0.4021891   -0.7089699   -0.2316879  0.00    0.0398099    0.0312276   -0.0007186
c     2.2011369    0.6794843   -0.2872374  0.00    0.0467430   -0.0244625   -0.0060251
c     1.8084065   -0.6140020   -0.3996804  0.00   -0.0272093   -0.0279247    0.0011178
h    -0.1860125   -1.5642663   -0.2449994  0.00    0.0088658    0.0100308   -0.0011569
c     3.5593075    1.2459198   -0.6299618  0.00   -0.0119443    0.0110454    0.0080311
c     4.0636709    2.3049176    0.3700287  0.00   -0.0071181   -0.0233717    0.0262841
h     3.4985874    1.7126163   -1.6437238  0.00   -0.0010372    0.0008895   -0.0049000
h     4.3101302    0.4228398   -0.7006489  0.00    0.0032061   -0.0044184   -0.0027893
c     3.0389964    3.4553452    0.6157341  0.00   -0.0325231   -0.0523878   -0.0209968
n     5.3435273    2.8623393   -0.1555962  0.00    0.0162220    0.0253311   -0.0144947
h     4.2392060    1.8306341    1.3672029  0.00    0.0067193    0.0030689    0.0010189
h     5.2345071    3.8951349   -0.3101046  0.00   -0.0125279   -0.0005698    0.0068439
h     6.0967397    2.7503427    0.5696120  0.00    0.0066718   -0.0027510    0.0051438
h    -2.4213701    2.9299207    0.1213155  0.00   -0.0012529   -0.0001037    0.0004414
h    -2.1320020    0.4730601    0.0072918  0.00   -0.0023569   -0.0003664   -0.0000681
h    -0.4520526    4.4123672    0.1042438  0.00    0.0000208   -0.0003269    0.0011839
h     1.8546990    3.3649540    0.0041453  0.00   -0.1574892    0.0816095    0.5448683
h     2.4277708   -1.4626743   -0.6876535  0.00   -0.0086356   -0.0085062   -0.0011829
o     2.6519630    4.0610411   -0.2808530  0.00   -0.0131159   -0.0200332   -0.0785410
o     2.3396334    3.4123345    1.8430769  0.00   -0.0651546   -0.0711695   -0.0779027
h     1.3532404    3.3245141    1.5497704  0.00   -0.8682535   -1.2496304   -4.1917102
    27
 Energy =       1.3525953742
c    -1.4065192    2.5795133    0.0196722  0.00   -0.0140619    0.0109775    0.0010811
c    -1.2867949    1.2090099   -0.0228043  0.00   -0.0246974   -0.0105650    0.0005940
c    -0.0323177    0.6756886   -0.0756931  0.00   -0.0245450   -0.0474930    0.0007634
c    -0.2862813    3.3820626    0.0113759  0.00    0.0298920    0.0196244    0.0280336
c     0.9764737    2.8148942   -0.0025612  0.00    0.9452249    1.1447468    3.2705683
c     1.0694604    1.4524127   -0.0933906  0.00    0.0266124    0.0357100    0.0098465
n     0.3386366   -0.6780802   -0.2405663  0.00    0.0338892    0.0266059   -0.0006733
c     2.1703803    0.6707623   -0.2807598  0.00    0.0400297   -0.0212536   -0.0050276
c     1.7528194   -0.6146399   -0.3826947  0.00   -0.0227816   -0.0242738    0.0009689
h    -0.2728727   -1.5186604   -0.2555914  0.00    0.0072177    0.0081567   -0.0010204
c     3.5531671    1.1974267   -0.5913252  0.00   -0.0096825    0.0098263    0.0072773
c     4.0567938    2.2543877    0.4111648  0.00   -0.0081167   -0.0222144    0.0222593
h     3.5340596    1.6547793   -1.6112755  0.00   -0.0008840    0.0011946   -0.0050116
h     4.2842794    0.3545965   -0.6305986  0.00    0.0034136   -0.0043536   -0.0023928
c     3.0672260    3.4497193    0.5978748  0.00   -0.0283963   -0.0444120   -0.0213551
n     5.3781472    2.7490163   -0.0727968  0.00    0.0160512    0.0203567   -0.0150989
h     4.1713985    1.7895227    1.4231781  0.00    0.0058047    0.0015128    0.0025503
h     5.3312523    3.7888285   -0.2218118  0.00   -0.0102833    0.0026358    0.0051451
h     6.1059676    2.5915895    0.6707809  0.00    0.0077601   -0.0026556    0.0059665
h    -2.3961696    3.0319666    0.0487060  0.00   -0.0015068    0.0001090    0.0003954
h    -2.1638549    0.5680755   -0.0406278  0.00   -0.0023052   -0.0005222   -0.0000604
h    -0.3902304    4.4665644    0.0374571  0.00   -0.0000620    0.0001840    0.0010289
h     1.8918957    3.3528677   -0.0289974  0.00   -0.1362777    0.0677851    0.4720967
h     2.3647551   -1.4790648   -0.6399236  0.00   -0.0069500   -0.0077932   -0.0011624
o     2.7092915    4.0326178   -0.3170983  0.00   -0.0113744   -0.0157362   -0.0682225
o     2.3587147    3.4990356    1.8202292  0.00   -0.0554565   -0.0598792   -0.0611550
h     1.3782680    3.3443503    1.5315929  0.00   -0.7585143   -1.0882739   -3.6473952
    27
 Energy =       1.2905885687
c    -1.3921103    2.6465200   -0.0279069  0.00   -0.0127791    0.0098223    0.0009884
c    -1.2998377    1.2743200   -0.0607449  0.00   -0.0221122   -0.0095256    0.0005598
c    -0.0576260    0.7154838   -0.1002883  0.00   -0.0217646   -0.0418972    0.0007473
c    -0.2557922    3.4255609   -0.0319776  0.00    0.0263353    0.0177625    0.0247973
c     0.9936769    2.8315817   -0.0308362  0.00    0.8408032    1.0194985    2.9102756
c     1.0577308    1.4682884   -0.1115609  0.00    0.0234612    0.0315397    0.0087440
n     0.2849340   -0.6486810   -0.2486947  0.00    0.0296884    0.0232776   -0.0006284
c     2.1438471    0.6653252   -0.2764917  0.00    0.0352827   -0.0189101   -0.0043605
c     1.7042210   -0.6123778   -0.3709449  0.00   -0.0197055   -0.0216406    0.0008538
h    -0.3454812   -1.4764133   -0.2651331  0.00    0.0060873    0.0068778   -0.0009152
c     3.5451221    1.1583783   -0.5623493  0.00   -0.0081682    0.0088842    0.0066509
c     4.0519251    2.2120605    0.4421962  0.00   -0.0082236   -0.0206972    0.0194232
h     3.5578743    1.6085163   -1.5856075  0.00   -0.0007558    0.0013167   -0.0048830
h     4.2578991    0.2994145   -0.5794075  0.00    0.0034045   -0.0042017   -0.0020956
c     3.0934134    3.4393453    0.5888811  0.00   -0.0253445   -0.0389563   -0.0200484
n     5.4004815    2.6586226   -0.0106662  0.00    0.0133782    0.0151877   -0.0161993
h     4.1223657    1.7556159    1.4626555  0.00    0.0050138    0.0007110    0.0031513
h     5.4110709    3.7068933   -0.1161767  0.00   -0.0084437    0.0065201    0.0039055
h     6.1151611    2.4328364    0.7303330  0.00    0.0098047   -0.0029748    0.0078451
h    -2.3725634    3.1194638   -0.0103014  0.00   -0.0016327    0.0002403    0.0003569
h    -2.1894740    0.6509833   -0.0810744  0.00   -0.0022433   -0.0006083   -0.0000555
h    -0.3366289    4.5124435   -0.0145009  0.00   -0.0001020    0.0004850    0.0009128
h     1.9243055    3.3451688   -0.0533573  0.00   -0.1209039    0.0586483    0.4186448
h     2.3073516   -1.4897234   -0.6051438  0.00   -0.0058436   -0.0071846   -0.0011096
o     2.7591976    4.0083151   -0.3386285  0.00   -0.0099348   -0.0130869   -0.0606336
o     2.3769556    3.5481117    1.8029920  0.00   -0.0495709   -0.0522800   -0.0520113
h     1.3999267    3.3631887    1.5182502  0.00   -0.6757307   -0.9688082   -3.2449164
    27
 Energy =       1.2005191402
c    -1.3685952    2.7077830   -0.0726963  0.00   -0.0106751    0.0080197    0.0008257
c    -1.3059603    1.3350946   -0.0949863  0.00   -0.0180784   -0.0078536    0.0004844
c    -0.0782611    0.7495174   -0.1189310  0.00   -0.0174536   -0.0335757    0.0006558
c    -0.2157484    3.4604713   -0.0708368  0.00    0.0212831    0.0147495    0.0200666
c     1.0183436    2.8384751   -0.0526084  0.00    0.6900909    0.8379297    2.3903755
c     1.0499990    1.4763453   -0.1230580  0.00    0.0188948    0.0253034    0.0070873
n     0.2333248   -0.6253520   -0.2510676  0.00    0.0236464    0.0183893   -0.0005653
c     2.1182146    0.6543347   -0.2671959  0.00    0.0283584   -0.0152425   -0.0034857
c     1.6574510   -0.6146562   -0.3553038  0.00   -0.0154146   -0.0175877    0.0006813
h    -0.4161626   -1.4398899   -0.2690852  0.00    0.0045542    0.0052043   -0.0007534
c     3.5340104    1.1160586   -0.5323678  0.00   -0.0063377    0.0072782    0.0055994
c     4.0466610    2.1638534    0.4757798  0.00   -0.0081718   -0.0168050    0.0168955
h     3.5751203    1.5586448   -1.5574438  0.00   -0.0005625    0.0012720   -0.0042750
h     4.2281628    0.2423026   -0.5299255  0.00    0.0030650   -0.0036811   -0.0016450
c     3.1277879    3.4268711    0.5919085  0.00   -0.0207903   -0.0308551   -0.0172104
n     5.4218289    2.5519571    0.0550958  0.00    0.0029646   -0.0100391   -0.0276199
h     4.0729301    1.7088098    1.4991918  0.00    0.0038907   -0.0000517    0.0033744
h     5.4287925    3.5805467   -0.2354451  0.00   -0.0088866    0.0315079   -0.0047419
h     6.0811988    2.4629806    0.8890861  0.00    0.0211949   -0.0068684    0.0262924
h    -2.3383921    3.2027206   -0.0686293  0.00   -0.0016741    0.0003932    0.0002755
h    -2.2085513    0.7309707   -0.1192094  0.00   -0.0020494   -0.0006354   -0.0000598
h    -0.2715201    4.5492801   -0.0626795  0.00   -0.0001235    0.0007781    0.0007187
h     1.9644651    3.3311397   -0.0701046  0.00   -0.0987144    0.0455250    0.3407207
h     2.2525271   -1.5026035   -0.5688208  0.00   -0.0044632   -0.0060000   -0.0009449
o     2.8144861    3.9816301   -0.3455359  0.00   -0.0078343   -0.0098166   -0.0488384
o     2.4054192    3.5953322    1.7967015  0.00   -0.0403415   -0.0410275   -0.0400448
h     1.4304140    3.3766249    1.5216829  0.00   -0.5563721   -0.7963111   -2.6638687
    27
 Energy =       1.1312414094
c    -1.3349302    2.8212208   -0.1261323  0.00   -0.0097997    0.0070308    0.0007159
c    -1.3218278    1.4473810   -0.1364392  0.00   -0.0157130   -0.0069594    0.0004494
c    -0.1173471    0.8174643   -0.1413706  0.00   -0.0143818   -0.0274718    0.0006850
c    -0.1552432    3.5311898   -0.1160626  0.00    0.0171872    0.0133254    0.0163527
c     1.0540351    2.8636794   -0.0771342  0.00    0.5742435    0.6985359    1.9897154
c     1.0345989    1.5018548   -0.1366046  0.00    0.0155622    0.0205002    0.0058341
n     0.1428993   -0.5714476   -0.2550021  0.00    0.0187238    0.0142760   -0.0005218
c     2.0733802    0.6428864   -0.2569694  0.00    0.0234985   -0.0126862   -0.0027563
c     1.5708457   -0.6099981   -0.3381796  0.00   -0.0116407   -0.0151632    0.0005203
h    -0.5376545   -1.3621406   -0.2749599  0.00    0.0028546    0.0033186   -0.0006438
c     3.5112607    1.0483808   -0.5016568  0.00   -0.0045867    0.0062944    0.0047100
c     4.0484339    2.0825032    0.5082902  0.00   -0.0077030   -0.0150535    0.0141584
h     3.5866057    1.4823478   -1.5282407  0.00   -0.0003506    0.0014184   -0.0039802
h     4.1715770    0.1487737   -0.4813320  0.00    0.0031622   -0.0037912   -0.0012880
c     3.1814391    3.3844141    0.6008986  0.00   -0.0156652   -0.0247273   -0.0146578
n     5.4454089    2.4073144    0.1095320  0.00    0.0048977   -0.0094847   -0.0232898
h     4.0362309    1.6326999    1.5342742  0.00    0.0031594   -0.0005936    0.0033179
h     5.4952812    3.4217935   -0.2161660  0.00   -0.0071682    0.0281167   -0.0046391
h     6.0806477    2.3280188    0.9588244  0.00    0.0176825   -0.0059187    0.0219926
h    -2.2864530    3.3514832   -0.1379064  0.00   -0.0022164    0.0007812    0.0002199
h    -2.2456634    0.8757376   -0.1658849  0.00   -0.0023668   -0.0009496   -0.0000654
h    -0.1704515    4.6219715   -0.1172594  0.00   -0.0001565    0.0015569    0.0005830
h     2.0240770    3.3173192   -0.0843038  0.00   -0.0821533    0.0354718    0.2800749
h     2.1421338   -1.5188472   -0.5298836  0.00   -0.0031384   -0.0055341   -0.0009038
o     2.9018071    3.9389444   -0.3435460  0.00   -0.0056574   -0.0065514   -0.0402652
o     2.4541886    3.6066797    1.7955222  0.00   -0.0339217   -0.0331567   -0.0318479
h     1.4726659    3.4076175    1.5212077  0.00   -0.4643525   -0.6625849   -2.2144705
    27
 Energy =       0.9827587053
c    -1.3214021    2.8057443   -0.2062323  0.00   -0.0043570    0.0034480    0.0004034
c    -1.3110528    1.4358925   -0.1978991  0.00   -0.0071300   -0.0028294    0.0002376
c    -0.1122005    0.8051917   -0.1784968  0.00   -0.0067331   -0.0114234    0.0002439
c    -0.1423909    3.5086118   -0.1909549  0.00    0.0100339    0.0057339    0.0092056
c     1.0590039    2.8400659   -0.1352346  0.00    0.3331391    0.4048631    1.1645473
c     1.0342394    1.4853189   -0.1682471  0.00    0.0066733    0.0098509    0.0031695
n     0.1456169   -0.5895440   -0.2532087  0.00    0.0081442    0.0059185   -0.0002589
c     2.0708789    0.6379044   -0.2460331  0.00    0.0103137   -0.0055990   -0.0013910
c     1.5795965   -0.6165245   -0.3090497  0.00   -0.0052168   -0.0066041    0.0001775
h    -0.5343286   -1.3828261   -0.2680026  0.00    0.0010734    0.0015906   -0.0003104
c     3.5137754    1.0483888   -0.4508615  0.00   -0.0018141    0.0025575    0.0020359
c     4.0113139    2.1109184    0.5549323  0.00   -0.0067615   -0.0076379    0.0070701
h     3.6253128    1.4558853   -1.4835236  0.00   -0.0002730    0.0007565   -0.0027429
h     4.1750006    0.1533577   -0.3818284  0.00    0.0021526   -0.0026067   -0.0005956
c     3.1731141    3.4400313    0.5731943  0.00   -0.0090333   -0.0112142   -0.0098092