    27
 Energy =       0.3173785263
c    -1.4235396    2.6054793   -0.0667700  0.00   -0.0462476    0.0383409    0.0027138
c    -1.3072796    1.2134697   -0.1072300  0.00   -0.0853014   -0.0325679    0.0019792
c    -0.0178900    0.6711998   -0.1697000  0.00   -0.0886359   -0.1878239   -0.0010166
c    -0.2940599    3.4190890   -0.0891300  0.00   -0.0231218    0.0691623    0.0028920
c     0.9872197    2.8590292   -0.1560400  0.00    0.0105369    0.0643588    0.0009571
c     1.1340797    1.4562096   -0.1970299  0.00    0.0529480    0.0518344    0.0021857
n     0.3879399   -0.6395298   -0.2140799  0.00    0.1442398    0.1090505   -0.0039979
c     2.2666594    0.5727398   -0.2659299  0.00    0.1386920   -0.0561259   -0.0195733
c     1.7555995   -0.7123598   -0.2706899  0.00   -0.0964171   -0.0971549    0.0047751
h    -0.2400399   -1.4313496   -0.2047299  0.00    0.0366098    0.0477549   -0.0003156
c     3.7030089    1.0223397   -0.3320099  0.00    0.0078888    0.0191165    0.0193312
c     4.7465686   -0.0024900    0.1378100  0.00   -0.0574383    0.0343047    0.1638845
h     3.7978489    1.9290294    0.2803699  0.00    0.0003781   -0.0117260   -0.0106649
h     3.9233889    1.3348996   -1.3618196  0.00   -0.0052528    0.0024425    0.0157457
c     6.0911583    0.7171698    0.3515799  0.00    0.2387133    0.1432708   -0.2732447
n     4.9813086   -1.1161597   -0.8485798  0.00    0.0836070   -0.0773446   -0.0297028
h     4.4627987   -0.4486599    1.0982597  0.00    0.1556702    0.0594541    0.0854176
h     5.9519483   -1.0348997   -1.1684897  0.00   -0.0311848    0.0271638    0.0473327
h     4.9673786   -2.0001494   -0.3277699  0.00    0.0025937    0.0348111   -0.0110787
h    -2.4108593    3.0588691   -0.0157800  0.00   -0.0008042    0.0002338    0.0000589
h    -2.1896094    0.5822398   -0.0890100  0.00   -0.0036314    0.0037603    0.0001032
h    -0.4052699    4.5000487   -0.0535400  0.00    0.0008536    0.0001196    0.0003060
h     1.8590495    3.5066790   -0.1715100  0.00   -0.0008054    0.0024643    0.0007364
h     2.2327294   -1.6813195   -0.3062999  0.00   -0.0419034   -0.0116399    0.0035929
o     6.7518081    1.2603096   -0.5181639  0.00   -0.1590152   -0.1346963    0.2079952
o     6.4672982    0.6782418    1.6583195  0.00   -0.0736558   -0.0407598   -0.0087168
h     5.7554184    0.1588610    2.1144694  0.00   -0.1593160   -0.0578040   -0.2016958
    27
 Energy =       0.2584652473
c    -1.3786054    2.5989396   -0.0416733  0.00   -0.0304288    0.0252764    0.0017463
c    -1.2661281    1.2187939   -0.0845096  0.00   -0.0566875   -0.0217011    0.0012505
c     0.0038214    0.6763209   -0.1470181  0.00   -0.0582736   -0.1247959   -0.0003573
c    -0.2518677    3.4015062   -0.0651154  0.00   -0.0155469    0.0457747    0.0018915
c     1.0142071    2.8377053   -0.1342355  0.00    0.0071286    0.0428666    0.0005893
c     1.1384868    1.4513782   -0.1745797  0.00    0.0344388    0.0350361    0.0013620
n     0.3799676   -0.6578893   -0.2119963  0.00    0.0947371    0.0715878   -0.0027204
c     2.2532306    0.5981112   -0.2534241  0.00    0.0926965   -0.0368502   -0.0126385
c     1.7688483   -0.6839359   -0.2799862  0.00   -0.0650630   -0.0625227    0.0034475
h    -0.2479942   -1.4646179   -0.2073136  0.00    0.0245173    0.0317166   -0.0003117
c     3.6924024    1.0468758   -0.3487346  0.00    0.0049892    0.0122439    0.0131067
c     4.7224825    0.0092473    0.1279765  0.00   -0.0369154    0.0243873    0.1136273
h     3.8084307    1.9694705    0.2451703  0.00    0.0002444   -0.0072108   -0.0070222
h     3.9058534    1.3213471   -1.3965871  0.00   -0.0032804    0.0014616    0.0097271
c     6.0750378    0.6836875    0.3617539  0.00    0.1589081    0.0940507   -0.1823068
n     4.8942038   -1.0957085   -0.8646828  0.00    0.0525914   -0.0477919   -0.0213830
h     4.4268095   -0.4189974    1.0978459  0.00    0.1122335    0.0435928    0.0626081
h     5.8678983   -1.0727105   -1.2144068  0.00   -0.0177984    0.0186905    0.0313267
h     4.8086255   -2.0003801   -0.3677223  0.00    0.0005476    0.0187468   -0.0057953
h    -2.3641041    3.0559035    0.0096032  0.00   -0.0005452    0.0001486    0.0000381
h    -2.1479228    0.5868971   -0.0707076  0.00   -0.0024013    0.0024815    0.0000469
h    -0.3574484    4.4831737   -0.0306088  0.00    0.0005509    0.0000936    0.0002038
h     1.8924465    3.4763076   -0.1556182  0.00   -0.0003836    0.0015616    0.0004968
h     2.3047260   -1.6217549   -0.3582890  0.00   -0.0252453   -0.0094848    0.0021207
o     6.7538644    1.2553235   -0.5553211  0.00   -0.1069492   -0.0896703    0.1381407
o     6.4966251    0.6285947    1.6621668  0.00   -0.0394303   -0.0240639   -0.0095385
h     5.7407648    0.1953974    2.1645198  0.00   -0.1246347   -0.0456256   -0.1396560
    27
 Energy =       0.2316372276
c    -1.3548841    2.5937490   -0.0123784  0.00   -0.0205161    0.0170230    0.0011618
c    -1.2468739    1.2207705   -0.0563423  0.00   -0.0384179   -0.0147331    0.0008355
c     0.0101182    0.6760973   -0.1198645  0.00   -0.0393067   -0.0846904   -0.0001855
c    -0.2282387    3.3871744   -0.0363366  0.00   -0.0106405    0.0309549    0.0012749
c     1.0271690    2.8183584   -0.1059338  0.00    0.0049051    0.0290911    0.0003852
c     1.1352158    1.4419984   -0.1462129  0.00    0.0230846    0.0239505    0.0008908
n     0.3666950   -0.6729814   -0.1892970  0.00    0.0639822    0.0483431   -0.0018358
c     2.2382669    0.6065115   -0.2256001  0.00    0.0631066   -0.0248997   -0.0084252
c     1.7690346   -0.6734224   -0.2601587  0.00   -0.0444748   -0.0419998    0.0023640
h    -0.2642680   -1.4869058   -0.1858794  0.00    0.0166952    0.0215312   -0.0002298
c     3.6778566    1.0650669   -0.3211257  0.00    0.0021412    0.0082344    0.0085463
c     4.7220674    0.0083134    0.0895392  0.00   -0.0229767    0.0189666    0.0806645
h     3.7991251    1.9575167    0.3240348  0.00    0.0000657   -0.0035874   -0.0037108
h     3.8771150    1.3920823   -1.3615562  0.00   -0.0021281    0.0016340    0.0052114
c     6.0732168    0.6719374    0.3359362  0.00    0.1079018    0.0633512   -0.1235846
n     4.8518113   -1.0466769   -0.9563206  0.00    0.0347482   -0.0255420   -0.0203519
h     4.4495680   -0.4575861    1.0558035  0.00    0.0820693    0.0319542    0.0481359
h     5.8374518   -1.0780657   -1.2906506  0.00   -0.0093038    0.0132940    0.0213400
h     4.6739584   -1.9831693   -0.5264754  0.00   -0.0023839    0.0022740   -0.0001404
h    -2.3383834    3.0547266    0.0394941  0.00   -0.0003819    0.0000983    0.0000255
h    -2.1293166    0.5898738   -0.0432292  0.00   -0.0016198    0.0016732    0.0000282
h    -0.3280207    4.4694811   -0.0022610  0.00    0.0003626    0.0000800    0.0001390
h     1.9104121    3.4499311   -0.1293815  0.00   -0.0002065    0.0010250    0.0003380
h     2.3341658   -1.5928518   -0.3498612  0.00   -0.0161247   -0.0068710    0.0012253
o     6.7661807    1.2527639   -0.6153724  0.00   -0.0728557   -0.0611846    0.0934456
o     6.5172916    0.6352432    1.6351139  0.00   -0.0255432   -0.0155633   -0.0070434
h     5.7879276    0.1790501    2.1608223  0.00   -0.0921820   -0.0344073   -0.1005045
    27
 Energy =       0.2293017530
c    -1.3414980    2.6213693    0.0211522  0.00   -0.0193941    0.0160385    0.0010938
c    -1.2422092    1.2480802   -0.0033072  0.00   -0.0361511   -0.0140636    0.0007431
c     0.0093900    0.6952153   -0.0714162  0.00   -0.0368146   -0.0789581   -0.0003184
c    -0.2104382    3.4067875   -0.0243096  0.00   -0.0098854    0.0292459    0.0012270
c     1.0397676    2.8290406   -0.0983527  0.00    0.0046928    0.0275082    0.0004005
c     1.1373297    1.4528554   -0.1209473  0.00    0.0218104    0.0226332    0.0008213
n     0.3551695   -0.6592549   -0.1057112  0.00    0.0599181    0.0448034   -0.0015974
c     2.2333728    0.6120483   -0.1983152  0.00    0.0594526   -0.0229288   -0.0077684
c     1.7578568   -0.6658599   -0.2041839  0.00   -0.0416603   -0.0394506    0.0020273
h    -0.2816709   -1.4697338   -0.0708983  0.00    0.0151684    0.0195699   -0.0002098
c     3.6746416    1.0646647   -0.3077554  0.00    0.0007963    0.0079453    0.0079055
c     4.7251703   -0.0144787    0.0315518  0.00   -0.0200217    0.0189112    0.0770461
h     3.8142015    1.9277057    0.3754242  0.00   -0.0000638   -0.0023582   -0.0025854
h     3.8517615    1.4368352   -1.3387285  0.00   -0.0020279    0.0020063    0.0036995
c     6.0853854    0.6320505    0.2749995  0.00    0.1014688    0.0594484   -0.1160089
n     4.8222626   -1.0257325   -1.0611819  0.00    0.0313818   -0.0208041   -0.0229964
h     4.4784683   -0.5209026    0.9865626  0.00    0.0772395    0.0298123    0.0466916
h     5.8162008   -1.1031402   -1.3681973  0.00   -0.0063015    0.0127949    0.0197664
h     4.5754534   -1.9735926   -0.6852285  0.00   -0.0036146   -0.0038454    0.0017740
h    -2.3215685    3.0892184    0.0767418  0.00   -0.0004051    0.0000960    0.0000131
h    -2.1280472    0.6223769    0.0316555  0.00   -0.0017235    0.0013874   -0.0000034
h    -0.3028400    4.4902154   -0.0039946  0.00    0.0003697    0.0002105    0.0001519
h     1.9276443    3.4536544   -0.1386350  0.00   -0.0000325    0.0010748    0.0003376
h     2.3184192   -1.5887747   -0.2812494  0.00   -0.0152828   -0.0065948    0.0010207
o     6.7842573    1.2062923   -0.6823938  0.00   -0.0683525   -0.0574770    0.0877526
o     6.5410611    0.5837151    1.5708739  0.00   -0.0238164   -0.0145950   -0.0064964
h     5.8151199    0.1283313    2.1023509  0.00   -0.0867508   -0.0324105   -0.0944877
    27
 Energy =       0.2282453747
c    -1.3339173    2.6338093    0.0555851  0.00   -0.0191526    0.0156220    0.0010822
c    -1.2373047    1.2601948    0.0629733  0.00   -0.0352586   -0.0142117    0.0007192
c     0.0114535    0.7037961   -0.0155344  0.00   -0.0355277   -0.0755932   -0.0004883
c    -0.2024470    3.4159107   -0.0286500  0.00   -0.0091997    0.0288107    0.0011777
c     1.0449017    2.8342208   -0.1133521  0.00    0.0047673    0.0271654    0.0003906
c     1.1389019    1.4580097   -0.1064227  0.00    0.0215099    0.0223164    0.0007742
n     0.3546571   -0.6530742    0.0017450  0.00    0.0571981    0.0423555   -0.0012915
c     2.2312708    0.6146017   -0.1863773  0.00    0.0581350   -0.0214772   -0.0075770
c     1.7544534   -0.6627947   -0.1486385  0.00   -0.0395710   -0.0382250    0.0017500
h    -0.2823430   -1.4617884    0.0878548  0.00    0.0134273    0.0173387    0.0000029
c     3.6715063    1.0624977   -0.3309466  0.00    0.0009099    0.0079719    0.0076873
c     4.7250571   -0.0233243   -0.0216336  0.00   -0.0190514    0.0186685    0.0750871
h     3.8302533    1.9226402    0.3522772  0.00   -0.0000540   -0.0021755   -0.0023497
h     3.8251234    1.4376672   -1.3649765  0.00   -0.0019309    0.0019950    0.0033208
c     6.0888829    0.6146119    0.2237722  0.00    0.0985673    0.0577692   -0.1126957
n     4.8081691   -1.0143188   -1.1335566  0.00    0.0303258   -0.0197081   -0.0230404
h     4.4881602   -0.5476668    0.9264453  0.00    0.0750416    0.0289185    0.0456317
h     5.8032858   -1.1099788   -1.4326557  0.00   -0.0057846    0.0124624    0.0191768
h     4.5340106   -1.9641126   -0.7811286  0.00   -0.0035931   -0.0047629    0.0019654
h    -2.3120643    3.1046626    0.1196978  0.00   -0.0004749    0.0000503    0.0000184
h    -2.1231564    0.6366186    0.1354461  0.00   -0.0022250    0.0008469    0.0000439
h    -0.2924457    4.4999738   -0.0314205  0.00    0.0004633    0.0005010    0.0001389
h     1.9335174    3.4558109   -0.1850454  0.00    0.0003648    0.0013902    0.0002965
h     2.3131844   -1.5876769   -0.2164057  0.00   -0.0150934   -0.0065129    0.0010143
o     6.7934227    1.1862358   -0.7338223  0.00   -0.0663802   -0.0558335    0.0852499
o     6.5466860    0.5590880    1.5193406  0.00   -0.0231087   -0.0141773   -0.0062823
h     5.8214427    0.1033725    2.0519355  0.00   -0.0843047   -0.0315054   -0.0918033
    27
 Energy =       0.2279485406
c    -1.3252967    2.6516517    0.0866800  0.00   -0.0188249    0.0153258    0.0010646
c    -1.2323454    1.2782769    0.1186534  0.00   -0.0344575   -0.0141786    0.0007068
c     0.0134514    0.7171330    0.0362375  0.00   -0.0346028   -0.0730309   -0.0006033
c    -0.1925697    3.4287840   -0.0232243  0.00   -0.0087918    0.0283309    0.0011410
c     1.0518152    2.8419089   -0.1114941  0.00    0.0047479    0.0267696    0.0003768
c     1.1412214    1.4661545   -0.0819091  0.00    0.0211582    0.0219902    0.0007080
n     0.3538166   -0.6401880    0.0952112  0.00    0.0557746    0.0405062   -0.0011282
c     2.2301618    0.6194933   -0.1563035  0.00    0.0569785   -0.0201787   -0.0072777
c     1.7515500   -0.6560817   -0.0800707  0.00   -0.0387677   -0.0373703    0.0015817
h    -0.2841382   -1.4449385    0.2157940  0.00    0.0125266    0.0161437    0.0001264
c     3.6702084    1.0647216   -0.3142150  0.00   -0.0005231    0.0080337    0.0074516
c     4.7271359   -0.0402663   -0.0827488  0.00   -0.0169094    0.0191818    0.0746385
h     3.8481662    1.8916467    0.4066545  0.00   -0.0001804   -0.0010194   -0.0013137
h     3.8014182    1.4881542   -1.3343655  0.00   -0.0019644    0.0025296    0.0018567
c     6.1012385    0.5782851    0.1567104  0.00    0.0963704    0.0563078   -0.1099263
n     4.7748933   -0.9824777   -1.2397395  0.00    0.0290755   -0.0168939   -0.0260752
h     4.5182162   -0.6070397    0.8493716  0.00    0.0732930    0.0278191    0.0460448
h     5.7703123   -1.1203356   -1.5243027  0.00   -0.0039468    0.0121835    0.0186194
h     4.4411896   -1.9341000   -0.9398817  0.00   -0.0045740   -0.0095867    0.0027722
h    -2.3013202    3.1264662    0.1540094  0.00   -0.0004924    0.0000381    0.0000204
h    -2.1187295    0.6584748    0.2168195  0.00   -0.0024265    0.0005750    0.0000738
h    -0.2793300    4.5130621   -0.0436235  0.00    0.0004957    0.0006627    0.0001286
h     1.9421770    3.4588643   -0.2027322  0.00    0.0005447    0.0014847    0.0002693
h     2.3081591   -1.5837708   -0.1234700  0.00   -0.0151343   -0.0066518    0.0010510
o     6.8101988    1.1420448   -0.8046147  0.00   -0.0647121   -0.0544356    0.0831982
o     6.5690144    0.5079812    1.4486270  0.00   -0.0223722   -0.0137877   -0.0059634
h     5.8440471    0.0550817    1.9844334  0.00   -0.0822848   -0.0307489   -0.0895420
    27
 Energy =       0.2248047785
c    -1.3222605    2.6506674    0.0588243  0.00   -0.0176850    0.0144416    0.0009939
c    -1.2330319    1.2776219    0.0744009  0.00   -0.0323210   -0.0134431    0.0006782
c     0.0105107    0.7144310   -0.0069835  0.00   -0.0323966   -0.0677552   -0.0005091
c    -0.1873836    3.4253806   -0.0368719  0.00   -0.0081896    0.0266543    0.0010479
c     1.0549656    2.8362550   -0.1250251  0.00    0.0045114    0.0252070    0.0003240
c     1.1398249    1.4610273   -0.1091294  0.00    0.0198802    0.0207909    0.0005898
n     0.3428277   -0.6473143    0.0155835  0.00    0.0524286    0.0372742   -0.0011295
c     2.2254374    0.6139006   -0.1917057  0.00    0.0535258   -0.0185697   -0.0064824
c     1.7436505   -0.6611466   -0.1463999  0.00   -0.0366404   -0.0349936    0.0014466
h    -0.2992717   -1.4534400    0.1110543  0.00    0.0114446    0.0147157    0.0001370
c     3.6667241    1.0537812   -0.3576715  0.00   -0.0031695    0.0072346    0.0069969
c     4.7228588   -0.0303078   -0.0225420  0.00   -0.0140842    0.0189395    0.0723544
h     3.8301082    1.9358780    0.3036498  0.00   -0.0003819    0.0018583    0.0007392
h     3.8149808    1.4011212   -1.4069853  0.00   -0.0017757    0.0035357   -0.0014303
c     6.0823485    0.6141148    0.2320034  0.00    0.0909367    0.0529243   -0.1027651
n     4.8198685   -1.0340331   -1.1273872  0.00    0.0273766   -0.0168516   -0.0287183
h     4.4742417   -0.5435951    0.9326910  0.00    0.0686074    0.0255317    0.0456227
h     5.8253014   -1.1634841   -1.3838603  0.00   -0.0029732    0.0106310    0.0170564
h     4.5083575   -1.9784648   -0.7811286  0.00   -0.0041678   -0.0113570    0.0026797
h    -2.2974424    3.1273027    0.1252377  0.00   -0.0004684    0.0000329    0.0000199
h    -2.1217843    0.6586253    0.1554403  0.00   -0.0023864    0.0004221    0.0000803
h    -0.2711062    4.5100858   -0.0465473  0.00    0.0004768    0.0006884    0.0001174
h     1.9468485    3.4521575   -0.2069145  0.00    0.0006329    0.0013693    0.0002478
h     2.2995688   -1.5876923   -0.2178972  0.00   -0.0145678   -0.0066059    0.0011430
o     6.7957363    1.1807967   -0.7301224  0.00   -0.0606956   -0.0510054    0.0780276
o     6.5394701    0.5661093    1.5297142  0.00   -0.0205308   -0.0127230   -0.0053075
h     5.8233123    0.0992085    2.0650786  0.00   -0.0773873   -0.0289468   -0.0839606
    27
 Energy =       0.2206247860
c    -1.3091684    2.6612660    0.0363301  0.00   -0.0156276    0.0127349    0.0008742
c    -1.2276939    1.2894279    0.0492857  0.00   -0.0285259   -0.0118868    0.0005967
c     0.0103017    0.7195688   -0.0324041  0.00   -0.0285420   -0.0596211   -0.0004064
c    -0.1705344    3.4282309   -0.0587991  0.00   -0.0072443    0.0235325    0.0009205
c     1.0666297    2.8319020   -0.1477180  0.00    0.0040127    0.0222564    0.0002761
c     1.1417978    1.4581631   -0.1325778  0.00    0.0175344    0.0183586    0.0004873
n     0.3299205   -0.6469449   -0.0231967  0.00    0.0462833    0.0327274   -0.0010571
c     2.2204603    0.6081503   -0.2179936  0.00    0.0472055   -0.0164888   -0.0054920
c     1.7337217   -0.6635134   -0.1811628  0.00   -0.0323560   -0.0308631    0.0012562
h    -0.3183644   -1.4507438    0.0643236  0.00    0.0100357    0.0129186    0.0001137
c     3.6643303    1.0383955   -0.3957426  0.00   -0.0042087    0.0061544    0.0062147
c     4.7176846   -0.0253370    0.0128442  0.00   -0.0120482    0.0167046    0.0654988
h     3.8225122    1.9577390    0.2167876  0.00   -0.0004759    0.0032800    0.0016799
h     3.8241069    1.3265549   -1.4626244  0.00   -0.0014512    0.0037010   -0.0030726
c     6.0642106    0.6394240    0.2824374  0.00    0.0805418    0.0473890   -0.0898987
n     4.8530886   -1.0672835   -1.0518260  0.00    0.0183725   -0.0115156   -0.0280194
h     4.4387295   -0.5008727    0.9800558  0.00    0.0607158    0.0224967    0.0416417
h     5.8735513   -1.2533793   -1.2251072  0.00    0.0052591    0.0068158    0.0130584
h     4.4808142   -1.9871086   -0.6967930  0.00   -0.0050548   -0.0129044    0.0041666
h    -2.2815192    3.1436093    0.1028853  0.00   -0.0004336    0.0000362    0.0000190
h    -2.1198503    0.6751138    0.1267765  0.00   -0.0021227    0.0003530    0.0000717
h    -0.2476275    4.5134139   -0.0677952  0.00    0.0004163    0.0006311    0.0001032
h     1.9616618    3.4427813   -0.2304295  0.00    0.0006331    0.0011784    0.0002172
h     2.2882941   -1.5894063   -0.2633870  0.00   -0.0127774   -0.0059148    0.0010807
o     6.7894654    1.2002641   -0.6846094  0.00   -0.0535119   -0.0451196    0.0686612
o     6.5148958    0.6081445    1.5846952  0.00   -0.0176205   -0.0109347   -0.0047009
h     5.8132428    0.1214270    2.1222512  0.00   -0.0690095   -0.0260199   -0.0742904
    27
 Energy =       0.2141969143
c    -1.3186062    2.6284943    0.0242580  0.00   -0.0133533    0.0107276    0.0007553
c    -1.2303494    1.2584922   -0.0005706  0.00   -0.0238615   -0.0105907    0.0006217
c     0.0094143    0.6975680   -0.0740817  0.00   -0.0235616   -0.0482658    0.0001709
c    -0.1829484    3.4025400   -0.0281596  0.00   -0.0055046    0.0200874    0.0006678
c     1.0566728    2.8149352   -0.1072181  0.00    0.0036542    0.0191223    0.0001143
c     1.1357729    1.4440392   -0.1274780  0.00    0.0148891    0.0157407    0.0003036
n     0.3319292   -0.6717510   -0.1240389  0.00    0.0372579    0.0257302   -0.0013806
c     2.2187543    0.6088696   -0.2115319  0.00    0.0396436   -0.0129861   -0.0046300
c     1.7457019   -0.6665750   -0.2276239  0.00   -0.0258166   -0.0255669    0.0013153
h    -0.3136431   -1.4859821   -0.0944295  0.00    0.0066302    0.0085217    0.0000404
c     3.6633740    1.0563017   -0.3410070  0.00   -0.0030836    0.0048687    0.0052316
c     4.7115969   -0.0160912    0.0489792  0.00   -0.0094321    0.0128615    0.0564346
h     3.8055266    1.9532835    0.3081336  0.00   -0.0001877    0.0035320    0.0019774
h     3.8432804    1.3805521   -1.3946487  0.00   -0.0010043    0.0033496   -0.0034250
c     6.0641103    0.6401357    0.3101689  0.00    0.0671236    0.0400824   -0.0732990
n     4.8119993   -1.0495434   -1.0248261  0.00   -0.0154234    0.0132302   -0.0260573
h     4.4362746   -0.4924190    1.0185002  0.00    0.0515498    0.0190155    0.0356093
h     5.8238481   -1.1093321   -1.3781776  0.00    0.0403082    0.0042280   -0.0017840
h     4.6008525   -2.0090445   -0.6042612  0.00   -0.0109379   -0.0324064    0.0160793
h    -2.2946945    3.1041788    0.0836663  0.00   -0.0004554   -0.0000027    0.0000231
h    -2.1208495    0.6370169    0.0360542  0.00   -0.0024308   -0.0003295    0.0000911
h    -0.2650324    4.4875169   -0.0099175  0.00    0.0004789    0.0009436    0.0000755
h     1.9506807    3.4317652   -0.1552331  0.00    0.0010160    0.0014184    0.0001480
h     2.3212880   -1.5794924   -0.3257609  0.00   -0.0101070   -0.0052804    0.0007004
o     6.7727682    1.2205103   -0.6714409  0.00   -0.0445439   -0.0371680    0.0566322
o     6.5289324    0.6283047    1.6090904  0.00   -0.0139975   -0.0086612   -0.0041552
h     5.8280078    0.1647131    2.1680608  0.00   -0.0588501   -0.0222022   -0.0622607
    27
 Energy =       0.1987840986
c    -1.2893467    2.6083711    0.0174560  0.00   -0.0021005    0.0016686   -0.0000053
c    -1.2096595    1.2468506   -0.0236397  0.00   -0.0037798   -0.0018108    0.0001207
c     0.0143347    0.6795888   -0.1046778  0.00   -0.0036908   -0.0072747    0.0007260
c    -0.1520926    3.3680217   -0.0294671  0.00   -0.0010767    0.0032330   -0.0000652
c     1.0734994    2.7715192   -0.1159503  0.00    0.0007106    0.0032062   -0.0001503
c     1.1326549    1.4114940   -0.1485298  0.00    0.0021412    0.0029053   -0.0001545
n     0.3125077   -0.7029946   -0.1901729  0.00    0.0062470    0.0034114   -0.0007356
c     2.1996257    0.5910141   -0.2455527  0.00    0.0067424   -0.0016680   -0.0001281
c     1.7393687   -0.6780338   -0.2930390  0.00   -0.0049184   -0.0037912    0.0006383
h    -0.3379821   -1.5207193   -0.1796763  0.00    0.0009349    0.0011718   -0.0001373
c     3.6465574    1.0349862   -0.3893226  0.00   -0.0031967    0.0003296    0.0011656
c     4.6885617    0.0003420    0.0998179  0.00    0.0034075    0.0014130    0.0147748
h     3.7817666    1.9777079    0.1925126  0.00   -0.0006205    0.0036364    0.0022654
h     3.8446457    1.2759297   -1.4621828  0.00    0.0000720    0.0016056   -0.0039604
c     6.0226235    0.6891225    0.3763437  0.00    0.0106236    0.0037645   -0.0140532
n     4.8083985   -1.0768544   -0.9126420  0.00   -0.0077439    0.0086278   -0.0107167
h     4.3630386   -0.4174490    1.0852412  0.00    0.0213414    0.0088688    0.0197618
h     5.7770365   -1.0838614   -1.3396397  0.00    0.0149241    0.0008303    0.0003494
h     4.6921040   -2.0165721   -0.4455081  0.00   -0.0056456   -0.0138395    0.0050688
h    -2.2613116    3.0913092    0.0825752  0.00   -0.0001235    0.0000191    0.0000025
h    -2.1023173    0.6305057    0.0029054  0.00   -0.0004245   -0.0001466    0.0000144
h    -0.2245819    4.4530044   -0.0016412  0.00    0.0000457    0.0002528    0.0000015
h     1.9713744    3.3805300   -0.1629125  0.00    0.0006005   -0.0000588    0.0000365
h     2.3437569   -1.5694383   -0.4282836  0.00   -0.0010215   -0.0016867   -0.0000487
o     6.7211100    1.2993260   -0.6485008  0.00   -0.0081830   -0.0049676    0.0084652
o     6.5144000    0.7492714    1.6745528  0.00    0.0022911    0.0017968   -0.0010174
h     5.8645885    0.2860151    2.2964405  0.00   -0.0275564   -0.0114969   -0.0222183
    27
 Energy =       0.1971010088
c    -1.2466891    2.6894362    0.0565368  0.00   -0.0021682    0.0015025    0.0000324
c    -1.1991652    1.3265229    0.0138767  0.00   -0.0034642   -0.0016358    0.0001148
c     0.0100219    0.7308410   -0.0836393  0.00   -0.0029827   -0.0058138    0.0005869
c    -0.0925445    3.4222777   -0.0052751  0.00   -0.0009176    0.0030757   -0.0000340
c     1.1176539    2.7972802   -0.1083833  0.00    0.0010166    0.0027642   -0.0001438
c     1.1445102    1.4362370   -0.1421401  0.00    0.0018783    0.0023290   -0.0001221
n     0.2736287   -0.6590975   -0.1728183  0.00    0.0045325    0.0023820   -0.0005399
c     2.1904050    0.5910922   -0.2537325  0.00    0.0055201   -0.0013949    0.0001163
c     1.7001066   -0.6669741   -0.2958130  0.00   -0.0034282   -0.0033570    0.0004344
h    -0.3959918   -1.4617122   -0.1532645  0.00    0.0003767    0.0005069   -0.0000965
c     3.6470733    0.9978969   -0.4186279  0.00   -0.0022161    0.0003611    0.0010126
c     4.6640502   -0.0499945    0.0921389  0.00    0.0022358    0.0018590    0.0130481
h     3.8110868    1.9509655    0.1376864  0.00   -0.0004594    0.0035500    0.0021294
h     3.8442861    1.2052633   -1.4982462  0.00    0.0003090    0.0014107   -0.0036412
c     6.0240330    0.6075385    0.3296140  0.00    0.0068614    0.0023836   -0.0093248
n     4.7383518   -1.1629699   -0.8857404  0.00   -0.0104886    0.0077293   -0.0108191
h     4.3302869   -0.4270739    1.0918518  0.00    0.0164680    0.0067801    0.0166638
h     5.6715084   -1.1579508   -1.3886277  0.00    0.0168762    0.0014367   -0.0022219
h     4.6827312   -2.0861292   -0.3743153  0.00   -0.0054724   -0.0147408    0.0068671
h    -2.2065069    3.1950012    0.1348391  0.00   -0.0004965    0.0002042    0.0000333
h    -2.1057101    0.7309240    0.0522297  0.00   -0.0006857   -0.0003210    0.0000262
h    -0.1393618    4.5089012    0.0238970  0.00    0.0000084    0.0005545    0.0000119
h     2.0285357    3.3859035   -0.1672478  0.00    0.0007977    0.0001674    0.0000030
h     2.2831164   -1.5719408   -0.4398404  0.00   -0.0003792   -0.0016724   -0.0001352
o     6.7380818    1.1405729   -0.7327901  0.00   -0.0038653   -0.0021997    0.0030656
o     6.5337563    0.7133468    1.6194616  0.00    0.0034543    0.0023007   -0.0008356
h     5.8874067    0.2928284    2.2748761  0.00   -0.0233111   -0.0101622   -0.0162316
    27
 Energy =       0.1961127204
c    -1.2409591    2.6919644    0.1391082  0.00   -0.0022713    0.0009640    0.0000664
c    -1.1974660    1.3289181    0.1084195  0.00   -0.0032508   -0.0013756    0.0001158
c     0.0072963    0.7297681   -0.0169432  0.00   -0.0025566   -0.0048638    0.0004636
c    -0.0872244    3.4214617    0.0378856  0.00   -0.0005140    0.0027790   -0.0000401
c     1.1183278    2.7929632   -0.0934012  0.00    0.0012740    0.0022626   -0.0001506
c     1.1412493    1.4318459   -0.1146146  0.00    0.0017760    0.0019820   -0.0001074
n     0.2648416   -0.6618367   -0.0994842  0.00    0.0028044    0.0020913   -0.0003043
c     2.1816964    0.5838494   -0.2489375  0.00    0.0043903   -0.0012199    0.0001825
c     1.6879247   -0.6732780   -0.2650921  0.00   -0.0022015   -0.0027577    0.0002477
h    -0.4057573   -1.4630447   -0.0520196  0.00   -0.0001450   -0.0000479   -0.0000412
c     3.6342373    0.9850376   -0.4650284  0.00   -0.0012383    0.0000136    0.0008188
c     4.6643659   -0.0480206    0.0476653  0.00    0.0008645    0.0018451    0.0108845
h     3.8155042    1.9525449    0.0596057  0.00   -0.0000472    0.0033996    0.0020913
h     3.8022195    1.1619238   -1.5550929  0.00    0.0003786    0.0013185   -0.0037916
c     6.0348532    0.6158910    0.2166820  0.00    0.0043860    0.0016894   -0.0075055
n     4.7046599   -1.1912327   -0.8965456  0.00   -0.0113976    0.0066910   -0.0104507
h     4.3569612   -0.3939253    1.0679537  0.00    0.0127734    0.0050438    0.0144401
h     5.6051965   -1.1835494   -1.4554895  0.00    0.0163916    0.0015829   -0.0034090
h     4.6985597   -2.0973396   -0.3531752  0.00   -0.0048656   -0.0141578    0.0073323
h    -2.1974156    3.2003214    0.2393201  0.00   -0.0006908    0.0001745    0.0000520
h    -2.1040708    0.7356516    0.1779565  0.00   -0.0010077   -0.0004885    0.0000535
h    -0.1308688    4.5083798    0.0577956  0.00    0.0000737    0.0005058    0.0000053
h     2.0282018    3.3795933   -0.1839610  0.00    0.0011043    0.0003816   -0.0000450
h     2.2653953   -1.5801014   -0.4193431  0.00   -0.0001610   -0.0013781   -0.0001342
o     6.7109854    1.1102893   -0.8915432  0.00   -0.0015404   -0.0006240   -0.0000901
o     6.5958546    0.7680141    1.4826307  0.00    0.0058415    0.0033261    0.0004189
h     5.9800932    0.3728974    2.1821548  0.00   -0.0201704   -0.0091372   -0.0111026
    27
 Energy =       0.1945268570
c    -1.2141800    2.7106006    0.2468526  0.00   -0.0019749    0.0021230    0.0001893
c    -1.1844325    1.3489518    0.1586305  0.00   -0.0027939   -0.0014809    0.0001546
c     0.0110522    0.7433872   -0.0184848  0.00   -0.0016243   -0.0032946    0.0004462
c    -0.0560785    3.4327381    0.1504962  0.00   -0.0012833    0.0030045    0.0001289
c     1.1400951    2.7981685   -0.0326928  0.00    0.0013380    0.0022327   -0.0001386
c     1.1494445    1.4380521   -0.1110036  0.00    0.0011648    0.0010735   -0.0001099
n     0.2520718   -0.6477261   -0.1638799  0.00    0.0025535   -0.0000380   -0.0003507
c     2.1778166    0.5849687   -0.3008199  0.00    0.0039337   -0.0012908    0.0004768
c     1.6716187   -0.6660227   -0.3594674  0.00   -0.0013151   -0.0030307    0.0000627
h    -0.4253621   -1.4443748   -0.1364271  0.00   -0.0002520   -0.0004334    0.0000074
c     3.6332448    0.9716652   -0.5237317  0.00   -0.0011002   -0.0001287    0.0002983
c     4.6454048   -0.0634115    0.0184016  0.00    0.0009294    0.0012091    0.0075456
h     3.8257053    1.9478304   -0.0221909  0.00    0.0000302    0.0026828    0.0016777
h     3.8062752    1.1217116   -1.6160674  0.00    0.0003433    0.0010053   -0.0030394
c     6.0181775    0.5870120    0.2209023  0.00    0.0031221    0.0009547   -0.0051345