    13
 Energy =       0.0777750966
c    -3.7133889    1.6950595    0.3173519  0.00   -0.1161858    0.0662546    0.0671174
c    -2.4962693    2.6345192    0.2419999  0.00    0.3796943   -0.0511939   -0.1623320
c    -4.9565486    2.3924193   -0.2155699  0.00    0.0218458    0.0155496    0.0086331
h    -5.2099685    3.2528291    0.4143399  0.00    0.0033042   -0.0135207   -0.0108958
h    -5.8205883    1.7190695   -0.2147749  0.00    0.0083137    0.0148955   -0.0008278
h    -4.8083986    2.7651692   -1.2348596  0.00   -0.0060030   -0.0027111    0.0159669
n    -3.4097890    0.4519539   -0.4549189  0.00    0.0841240   -0.0349317   -0.0366032
h    -3.8575589    1.4177196    1.3669296  0.00    0.0005425   -0.0049400   -0.0230184
h    -3.4845290    0.6754588   -1.4528996  0.00    0.0014320   -0.0018883    0.0385829
h    -2.4188593    0.2248379   -0.3273229  0.00   -0.0349863    0.0326788   -0.0070448
o    -1.4178396    2.3555893   -0.2533479  0.00   -0.2720665    0.0588108    0.1208413
o    -2.7764392    3.8468189    0.7908148  0.00   -0.0465196   -0.0408174   -0.0043022
h    -1.9782694    4.4042887    0.6111318  0.00   -0.0234952   -0.0381863   -0.0061175
    13
 Energy =       0.0730820455
c    -3.7235048    1.7116139    0.3286027  0.00   -0.1076449    0.0644392    0.0636176
c    -2.5063185    2.6481349    0.2457739  0.00    0.3555815   -0.0476706   -0.1526145
c    -4.9474652    2.3937640   -0.2690895  0.00    0.0227505    0.0151005    0.0097159
h    -5.2738034    3.2171092    0.3839257  0.00    0.0028055   -0.0103726   -0.0073225
h    -5.7905742    1.6918452   -0.3735281  0.00    0.0031319    0.0104223   -0.0015627
h    -4.7251663    2.8227502   -1.2585640  0.00   -0.0038397   -0.0012787    0.0109018
n    -3.4090323    0.4323256   -0.3807997  0.00    0.0795229   -0.0365147   -0.0306398
h    -3.8994867    1.4832788    1.3876343  0.00    0.0002739   -0.0048924   -0.0199415
h    -3.5214762    0.5820816   -1.3935314  0.00    0.0006204   -0.0009373    0.0305628
h    -2.4099199    0.2281284   -0.2624117  0.00   -0.0321720    0.0307380   -0.0061960
o    -1.4222403    2.3548402   -0.2560828  0.00   -0.2548945    0.0549579    0.1131984
o    -2.7726052    3.8679631    0.7874244  0.00   -0.0462907   -0.0394791   -0.0037497
h    -1.9468538    4.4018980    0.6495203  0.00   -0.0198450   -0.0345126   -0.0059697
    13
 Energy =       0.0629613999
c    -3.7059243    1.7046475    0.3129341  0.00   -0.0913243    0.0562669    0.0548747
c    -2.5114251    2.6646870    0.2230458  0.00    0.3056233   -0.0411961   -0.1315441
c    -4.9707730    2.3727048   -0.2188026  0.00    0.0211813    0.0138347    0.0103415
h    -5.2349124    3.2360668    0.4179620  0.00    0.0025334   -0.0070238   -0.0040599
h    -5.8283179    1.6704212   -0.2147749  0.00   -0.0019810    0.0056429   -0.0013305
h    -4.8232052    2.7439198   -1.2511895  0.00   -0.0021847    0.0000126    0.0044716
n    -3.4040103    0.4490834   -0.4368771  0.00    0.0689072   -0.0326512   -0.0257852
h    -3.8373257    1.4488056    1.3760328  0.00    0.0000328   -0.0045415   -0.0158391
h    -3.5232728    0.6337743   -1.4463528  0.00    0.0003972   -0.0005761    0.0251803
h    -2.4017561    0.2349136   -0.3339406  0.00   -0.0273315    0.0264460   -0.0054020
o    -1.4036692    2.3783771   -0.2864176  0.00   -0.2189372    0.0473414    0.0973527
o    -2.7701096    3.8842226    0.7781386  0.00   -0.0405280   -0.0343028   -0.0032319
h    -1.9337452    4.4141093    0.6691160  0.00   -0.0163884   -0.0292530   -0.0050280
    13
 Energy =       0.0566199270
c    -3.7127276    1.7263862    0.3151476  0.00   -0.0765882    0.0501592    0.0479422
c    -2.5235742    2.6902757    0.2276098  0.00    0.2596331   -0.0356358   -0.1133302
c    -4.9644383    2.3671215   -0.2860531  0.00    0.0187309    0.0087621    0.0105867
h    -5.2140752    3.3041715    0.2592089  0.00    0.0007183   -0.0002288   -0.0004091
h    -5.8343779    1.6798496   -0.2084248  0.00   -0.0032523    0.0023940   -0.0004802
h    -4.8062921    2.6270477   -1.3573654  0.00   -0.0010033    0.0015847   -0.0026039
n    -3.3949233    0.4303910   -0.3596105  0.00    0.0583438   -0.0335247   -0.0115838
h    -3.8784707    1.5283979    1.3896377  0.00   -0.0000840   -0.0040948   -0.0113021
h    -3.5960495    0.5120423   -1.3798933  0.00   -0.0026058    0.0009851    0.0078842
h    -2.3750707    0.2606875   -0.3041542  0.00   -0.0193254    0.0230093   -0.0034068
o    -1.3949634    2.3956531   -0.2822677  0.00   -0.1863035    0.0400948    0.0831517
o    -2.7590078    3.9052737    0.8102586  0.00   -0.0382140   -0.0310917   -0.0024563
h    -1.8944762    4.4084354    0.7647804  0.00   -0.0100494   -0.0224136   -0.0039924
    13
 Energy =       0.0508378418
c    -3.6899450    1.7057716    0.3010373  0.00   -0.0626799    0.0443157    0.0406775
c    -2.5154248    2.6861091    0.2191592  0.00    0.2176258   -0.0297740   -0.0948290
c    -4.9836575    2.3617474   -0.2001845  0.00    0.0130717    0.0071047    0.0094049
h    -5.2271692    3.2579869    0.4179620  0.00   -0.0007742    0.0024856    0.0013579
h    -5.8344770    1.6497895   -0.1295392  0.00   -0.0030095    0.0015719   -0.0000332
h    -4.8778832    2.6939828   -1.2613138  0.00   -0.0005631    0.0026348   -0.0058602
n    -3.4025724    0.4503096   -0.4578375  0.00    0.0498849   -0.0326752   -0.0078179
h    -3.7992299    1.4467632    1.3747393  0.00   -0.0002950   -0.0041057   -0.0061269
h    -3.6362983    0.5945746   -1.4676070  0.00   -0.0029052    0.0010217    0.0023764
h    -2.3801578    0.2667219   -0.4503152  0.00   -0.0143325    0.0182631   -0.0033574
o    -1.3677418    2.3969559   -0.2992425  0.00   -0.1556966    0.0339410    0.0696213
o    -2.7461030    3.9047746    0.8038243  0.00   -0.0323200   -0.0262744   -0.0019670
h    -1.8877870    4.4202461    0.7381916  0.00   -0.0080064   -0.0185093   -0.0034463
    13
 Energy =       0.0482383999
c    -3.6705560    1.6932259    0.2916326  0.00   -0.0533982    0.0391455    0.0354037
c    -2.5037663    2.6832340    0.2130102  0.00    0.1880502   -0.0254227   -0.0818071
c    -4.9883556    2.3592596   -0.1377479  0.00    0.0098642    0.0061483    0.0082874
h    -5.2161408    3.2305939    0.5220097  0.00   -0.0011852    0.0031011    0.0018738
h    -5.8307457    1.6377262   -0.0643715  0.00   -0.0026876    0.0013073    0.0000501
h    -4.9209474    2.7316125   -1.1893645  0.00   -0.0004664    0.0027947   -0.0065186
n    -3.4125035    0.4633198   -0.5174729  0.00    0.0383877   -0.0298149    0.0002607
h    -3.7403573    1.3968721    1.3610526  0.00   -0.0002869   -0.0038474   -0.0038288
h    -3.7398836    0.6162660   -1.5045154  0.00   -0.0048077    0.0020268   -0.0050827
h    -2.3838896    0.3012830   -0.6090684  0.00   -0.0044167    0.0135783   -0.0041195
o    -1.3427456    2.3965518   -0.3107093  0.00   -0.1342738    0.0296501    0.0601339
o    -2.7278843    3.9033907    0.8027228  0.00   -0.0279045   -0.0226949   -0.0016648
h    -1.8706712    4.4223974    0.7316961  0.00   -0.0068750   -0.0159722   -0.0029882
    13
 Energy =       0.0467553002
c    -3.6891961    1.7005055    0.2904932  0.00   -0.0521939    0.0391188    0.0352687
c    -2.5224775    2.6886698    0.2229145  0.00    0.1869055   -0.0249456   -0.0813554
c    -4.9953153    2.3561876   -0.1860658  0.00    0.0091037    0.0060312    0.0082334
h    -5.2423375    3.2378547    0.4533228  0.00   -0.0013504    0.0034032    0.0021301
h    -5.8374457    1.6332632   -0.1233464  0.00   -0.0027571    0.0012868    0.0000262
h    -4.9019624    2.7103190   -1.2423410  0.00   -0.0005111    0.0029555   -0.0069637
n    -3.4076410    0.4647810   -0.4983984  0.00    0.0234744   -0.0303288    0.0155613
h    -3.7874093    1.4186674    1.3621836  0.00   -0.0002557   -0.0038821   -0.0032628
h    -3.5963236    0.6578452   -1.5252290  0.00   -0.0081160    0.0059079   -0.0222269
h    -2.3764533    0.2421736   -0.4503152  0.00    0.0136106    0.0092383   -0.0024617
o    -1.3592303    2.3996785   -0.2958313  0.00   -0.1333817    0.0295927    0.0596451
o    -2.7463881    3.9049664    0.8204689  0.00   -0.0278065   -0.0225943   -0.0016268
h    -1.8862665    4.4208213    0.7610181  0.00   -0.0067217   -0.0157836   -0.0029674
    13
 Energy =       0.0359739549
c    -3.7017331    1.6987613    0.2531576  0.00   -0.0080992    0.0078297    0.0057687
c    -2.5592853    2.7103283    0.2676612  0.00    0.0309115   -0.0056209   -0.0180916
c    -5.0167298    2.3320313   -0.2202428  0.00    0.0025992    0.0016610    0.0012566
h    -5.2903235    3.1900407    0.4358892  0.00   -0.0001584    0.0013086    0.0007815
h    -5.8348699    1.5797094   -0.1865876  0.00   -0.0011542   -0.0005081    0.0000949
h    -4.9181014    2.7082126   -1.2625411  0.00   -0.0000188    0.0005753   -0.0015274
n    -3.4179411    0.5101379   -0.5773933  0.00   -0.0176785   -0.0086805    0.0215872
h    -3.8185892    1.3785483    1.3153999  0.00   -0.0002771   -0.0009289    0.0004203
h    -3.4375705    0.7813776   -1.6086812  0.00   -0.0055878    0.0072459   -0.0303143
h    -2.4211066    0.1878724   -0.3818811  0.00    0.0271708   -0.0016410    0.0062816
o    -1.3230175    2.4092283   -0.2558376  0.00   -0.0222620    0.0045229    0.0123897
o    -2.7412593    3.9199961    0.9200364  0.00   -0.0052098   -0.0029709    0.0013618
h    -1.8679195    4.4294888    0.8898945  0.00   -0.0002358   -0.0027931   -0.0000090
    13
 Energy =       0.0348248778
c    -3.6911760    1.6786877    0.2305399  0.00   -0.0038993    0.0036787    0.0032873
c    -2.5923719    2.7373278    0.3327019  0.00    0.0038612   -0.0013849   -0.0047865
c    -5.0196162    2.2771351   -0.2522546  0.00    0.0022505    0.0001888    0.0002262
h    -5.3536863    3.0879413    0.4383555  0.00   -0.0010099    0.0027882    0.0021990
h    -5.8041616    1.4866624   -0.2868306  0.00   -0.0027003   -0.0023568   -0.0000637
h    -4.9023663    2.7120071   -1.2704573  0.00    0.0007548    0.0009533   -0.0022934
n    -3.3412271    0.5487166   -0.6549201  0.00   -0.0050977   -0.0080482    0.0086572
h    -3.8277594    1.2997478    1.2723993  0.00   -0.0010071   -0.0006958    0.0019725
h    -3.2788174    0.8819653   -1.6560571  0.00   -0.0021257    0.0020633   -0.0152744
h    -2.3737518    0.2077271   -0.4115714  0.00    0.0084532    0.0002564    0.0012706
o    -1.2984878    2.4807273   -0.1108818  0.00    0.0031893   -0.0001953    0.0014231
o    -2.8588806    3.9441074    0.9703665  0.00   -0.0055382    0.0014752    0.0029803
h    -2.0061445    4.4929800    0.9874839  0.00    0.0028691    0.0012771    0.0004019
    13
 Energy =       0.0342383455
c    -3.6862700    1.6845618    0.2372574  0.00   -0.0024648    0.0019709    0.0018479
c    -2.6001136    2.7566824    0.2996801  0.00   -0.0049281    0.0000244    0.0003298
c    -5.0282111    2.2581145   -0.2353372  0.00    0.0010989    0.0002205    0.0002471
h    -5.3611251    3.0754144    0.4453514  0.00   -0.0004580    0.0014413    0.0011665
h    -5.8020665    1.4582504   -0.2441800  0.00   -0.0016372   -0.0014566   -0.0000903
h    -4.9330822    2.6743095   -1.2628172  0.00    0.0003744    0.0006706   -0.0015252
n    -3.3384964    0.5483464   -0.6362585  0.00   -0.0044817   -0.0045314    0.0058365
h    -3.8007031    1.3220225    1.2870604  0.00   -0.0004865   -0.0005322    0.0013008
h    -3.2242074    0.8899875   -1.6269095  0.00   -0.0010961    0.0019743   -0.0095194
h    -2.3919491    0.1804751   -0.3584768  0.00    0.0059724   -0.0004117    0.0011257
o    -1.3411249    2.5457906   -0.2696349  0.00    0.0121320   -0.0027038   -0.0043287
o    -2.8408705    3.9371018    0.9947163  0.00   -0.0080840    0.0016821    0.0037958
h    -2.0002268    4.5046762    0.9584227  0.00    0.0040588    0.0016516   -0.0001865
    13
 Energy =       0.0337945241
c    -3.6897930    1.6972163    0.2466308  0.00    0.0007200    0.0000018   -0.0000348
c    -2.6175705    2.7803871    0.2791894  0.00   -0.0025539    0.0008709    0.0012715
c    -5.0311692    2.2390885   -0.2594775  0.00   -0.0003760   -0.0003531   -0.0000565
h    -5.3767886    3.0794981    0.3833556  0.00   -0.0000545    0.0003474    0.0003063
h    -5.7951139    1.4330269   -0.2409905  0.00    0.0002957    0.0000312   -0.0000779
h    -4.9331896    2.6099742   -1.3029173  0.00   -0.0002387    0.0002734   -0.0005611
n    -3.3241977    0.5407714   -0.5876725  0.00   -0.0081724    0.0000773    0.0043494
h    -3.8097663    1.3700599    1.3064708  0.00    0.0002355   -0.0001203    0.0002551
h    -3.0972869    0.8779719   -1.5595387  0.00    0.0014831    0.0032745   -0.0064792
h    -2.4263851    0.1265627   -0.2237602  0.00    0.0067760   -0.0031010    0.0024433
o    -1.4011872    2.6054941   -0.3739554  0.00    0.0019608   -0.0009626   -0.0007960
o    -2.8339690    3.9446463    1.0019478  0.00   -0.0010182   -0.0007668   -0.0005431
h    -2.0120298    4.5310358    0.9195918  0.00    0.0009425    0.0004272   -0.0000771
    13
 Energy =       0.0337197144
c    -3.6986278    1.6986224    0.2409888  0.00    0.0009676   -0.0003480   -0.0002775
c    -2.6193726    2.7737949    0.2929769  0.00   -0.0035188   -0.0005172    0.0009026
c    -5.0271237    2.2529493   -0.2853718  0.00   -0.0004953   -0.0002334   -0.0000299
h    -5.3756705    3.0948692    0.3538412  0.00   -0.0000573    0.0003214    0.0002942
h    -5.7982725    1.4533515   -0.2803806  0.00    0.0001544   -0.0000498   -0.0000595
h    -4.9094579    2.6246282   -1.3266787  0.00   -0.0002069    0.0003116   -0.0006771
n    -3.3283988    0.5404234   -0.5889230  0.00   -0.0073981    0.0000388    0.0039160
h    -3.8384715    1.3706580    1.2983959  0.00    0.0001939   -0.0001584    0.0004070
h    -3.0935703    0.8755750   -1.5592496  0.00    0.0013552    0.0029708   -0.0058797
h    -2.4344779    0.1253717   -0.2179384  0.00    0.0061517   -0.0027970    0.0022113
o    -1.4294472    2.6312485   -0.4178440  0.00    0.0041822   -0.0023124   -0.0028189
o    -2.8078164    3.9026825    1.0808320  0.00   -0.0021991    0.0023257    0.0020576
h    -1.9877398    4.4915586    0.9982254  0.00    0.0008705    0.0004478   -0.0000459
    13
 Energy =       0.0335791926
c    -3.7165910    1.7133890    0.2487777  0.00    0.0014187    0.0016527    0.0007463
c    -2.6327397    2.7829896    0.3063169  0.00   -0.0041311   -0.0009267    0.0015110
c    -5.0145173    2.2574531   -0.3635834  0.00   -0.0020645   -0.0003190    0.0001065
h    -5.3860526    3.1284375    0.2242586  0.00   -0.0009222    0.0015481    0.0011020
h    -5.7932495    1.4650331   -0.3620341  0.00   -0.0000970   -0.0000318    0.0000728
h    -4.8433634    2.5842337   -1.4145017  0.00    0.0000971    0.0008065   -0.0024828
n    -3.3155959    0.5160530   -0.5130335  0.00   -0.0028987   -0.0031333    0.0007852
h    -3.9101597    1.4319755    1.3134385  0.00   -0.0002662   -0.0004516    0.0025514
h    -3.0512834    0.8028158   -1.4900435  0.00    0.0009576    0.0015738   -0.0043073
h    -2.4355172    0.1217385   -0.0943698  0.00    0.0038511   -0.0019447    0.0013491
o    -1.4866543    2.6897766   -0.4836289  0.00    0.0064532   -0.0025972   -0.0050768
o    -2.7868872    3.8715486    1.1572878  0.00   -0.0030407    0.0035961    0.0038123
h    -1.9758356    4.4702892    1.0599895  0.00    0.0006428    0.0002272   -0.0001697
    13
 Energy =       0.0333512210
c    -3.7399430    1.7312009    0.2505246  0.00    0.0006349    0.0005919   -0.0000890
c    -2.6474221    2.7902424    0.3214262  0.00   -0.0023867   -0.0020913    0.0008359
c    -4.9962798    2.2637373   -0.4482526  0.00   -0.0011102    0.0001906    0.0001658
h    -5.3889046    3.1567843    0.0877669  0.00   -0.0003882    0.0004686    0.0004716
h    -5.7827827    1.4789492   -0.4611882  0.00   -0.0002499    0.0000022    0.0000501
h    -4.7650873    2.5508746   -1.4980831  0.00    0.0001021    0.0003374   -0.0011320
n    -3.3146248    0.5012670   -0.4402372  0.00   -0.0002228   -0.0010802   -0.0001475
h    -3.9920648    1.4938650    1.3127750  0.00   -0.0002220   -0.0002391    0.0012911
h    -3.0035769    0.7412128   -1.4141230  0.00    0.0003385   -0.0000131   -0.0012708
h    -2.4614488    0.1188854    0.0357016  0.00    0.0009667   -0.0004532    0.0002638
o    -1.5666172    2.7676609   -0.5588614  0.00    0.0048106   -0.0020346   -0.0049729
o    -2.7452972    3.8157321    1.2555149  0.00   -0.0023730    0.0043501    0.0046256
h    -1.9443976    4.4253211    1.1459105  0.00    0.0001000   -0.0000294   -0.0000916
    13
 Energy =       0.0332398704
c    -3.7598245    1.7508452    0.2581004  0.00    0.0010849    0.0027950    0.0012497
c    -2.6661881    2.8080113    0.3275103  0.00   -0.0012442   -0.0009251    0.0009516
c    -4.9779672    2.2528528   -0.5296363  0.00   -0.0024459   -0.0004342   -0.0002394
h    -5.3951065    3.1726708   -0.0576454  0.00   -0.0013218    0.0021476    0.0011948
h    -5.7656554    1.4694183   -0.5450706  0.00   -0.0001716    0.0000158    0.0000279
h    -4.6920753    2.4879834   -1.5808817  0.00    0.0004079    0.0006438   -0.0029185
n    -3.3058310    0.4849554   -0.3489778  0.00   -0.0021423   -0.0036282   -0.0002847
h    -4.0653240    1.5679652    1.3190481  0.00   -0.0006197   -0.0002827    0.0030805
h    -2.9446592    0.6750129   -1.3186548  0.00    0.0014832    0.0003243   -0.0042019
h    -2.4801917    0.1212763    0.1899099  0.00    0.0034359   -0.0018467    0.0019301
o    -1.6218801    2.8219762   -0.5934602  0.00    0.0028887   -0.0008883   -0.0029651
o    -2.7340705    3.8031460    1.2937293  0.00   -0.0015382    0.0020341    0.0022744
h    -1.9396733    4.4196193    1.1749029  0.00    0.0001831    0.0000447   -0.0000993
    13
 Energy =       0.0331233177
c    -3.7704454    1.7607681    0.2554678  0.00    0.0001979    0.0005052    0.0000420
c    -2.6737801    2.8142798    0.3254469  0.00   -0.0022039   -0.0027038    0.0001424
c    -4.9720964    2.2530213   -0.5575417  0.00   -0.0004383   -0.0000226   -0.0000143
h    -5.3945141    3.1780165   -0.1061336  0.00   -0.0002295    0.0003673    0.0002705
h    -5.7605953    1.4705098   -0.5770225  0.00   -0.0000383    0.0000026    0.0000105
h    -4.6673284    2.4738847   -1.6043476  0.00    0.0000597    0.0001373   -0.0005535
n    -3.3122644    0.4872841   -0.3251706  0.00   -0.0005575   -0.0006679    0.0000493
h    -4.0932785    1.5933960    1.3115784  0.00   -0.0000860   -0.0000907    0.0005834
h    -2.9319345    0.6635112   -1.2880314  0.00    0.0002536    0.0001143   -0.0009079
h    -2.5014854    0.1269445    0.2341399  0.00    0.0007863   -0.0003856    0.0003387
o    -1.6853792    2.8847669   -0.6547822  0.00    0.0041326   -0.0012672   -0.0054413
o    -2.6860742    3.7525388    1.3518663  0.00   -0.0021296    0.0039559    0.0056464
h    -1.8992710    4.3768113    1.2234045  0.00    0.0002531    0.0000552   -0.0001660
    13
 Energy =       0.0330610272
c    -3.7874410    1.7778702    0.2594405  0.00    0.0006822    0.0020840    0.0009716
c    -2.6910855    2.8314073    0.3294645  0.00   -0.0005087   -0.0009755    0.0001618
c    -4.9537197    2.2374413   -0.6247339  0.00   -0.0017140   -0.0004232   -0.0003438
h    -5.3945213    3.1813644   -0.2304491  0.00   -0.0010193    0.0016569    0.0007276
h    -5.7420096    1.4547633   -0.6457147  0.00   -0.0000941    0.0000115   -0.0000107
h    -4.6037119    2.4143522   -1.6673629  0.00    0.0004133    0.0003239   -0.0020634
n    -3.3070904    0.4798189   -0.2485089  0.00   -0.0020404   -0.0023824   -0.0001761
h    -4.1548488    1.6551422    1.3087347  0.00   -0.0005513   -0.0000644    0.0021159
h    -2.8804129    0.6161752   -1.2000088  0.00    0.0013933    0.0000991   -0.0032135
h    -2.5258430    0.1376015    0.3644649  0.00    0.0027051   -0.0014584    0.0018878
o    -1.7202931    2.9193536   -0.6634535  0.00    0.0015353   -0.0004462   -0.0020212
o    -2.6858235    3.7517415    1.3689216  0.00   -0.0009027    0.0015525    0.0020249
h    -1.9016460    4.3787014    1.2380798  0.00    0.0001013    0.0000225   -0.0000607
    13
 Energy =       0.0330022429
c    -3.7948159    1.7864440    0.2573824  0.00   -0.0000186    0.0001885    0.0000837
c    -2.6983554    2.8399082    0.3236210  0.00   -0.0011132   -0.0017814   -0.0003892
c    -4.9513135    2.2331276   -0.6419421  0.00   -0.0000789   -0.0000054   -0.0000253
h    -5.3956235    3.1801262   -0.2646982  0.00   -0.0000601    0.0001069    0.0000840
h    -5.7385968    1.4494105   -0.6616647  0.00   -0.0000014   -0.0000042   -0.0000017
h    -4.5909755    2.3978218   -1.6811975  0.00    0.0000156    0.0000343   -0.0001222
n    -3.3107477    0.4844387   -0.2297960  0.00   -0.0002327   -0.0001641    0.0000197
h    -4.1718671    1.6757819    1.3027338  0.00   -0.0000100   -0.0000395    0.0001291
h    -2.8695927    0.6112704   -1.1740084  0.00    0.0000743    0.0000347   -0.0002843
h    -2.5420731    0.1470516    0.3982656  0.00    0.0002647   -0.0001335    0.0001161
o    -1.7744376    2.9735746   -0.7090622  0.00    0.0020907   -0.0004957   -0.0032633
o    -2.6437030    3.7115252    1.4040871  0.00   -0.0010910    0.0022191    0.0037824
h    -1.8663449    4.3452523    1.2651533  0.00    0.0001607    0.0000405   -0.0001289
    13
 Energy =       0.0329836086
c    -3.8053312    1.7975963    0.2591768  0.00    0.0002411    0.0009938    0.0005052
c    -2.7108894    2.8531023    0.3247862  0.00   -0.0004432   -0.0008640   -0.0001510
c    -4.9376160    2.2175675   -0.6844764  0.00   -0.0007197   -0.0002327   -0.0002192
h    -5.3931305    3.1749739   -0.3469599  0.00   -0.0004658    0.0007788    0.0002859
h    -5.7236273    1.4325582   -0.7034762  0.00   -0.0000303   -0.0000055   -0.0000168
h    -4.5487779    2.3527027   -1.7185257  0.00    0.0002009    0.0000989   -0.0008791
n    -3.3068245    0.4824157   -0.1779849  0.00   -0.0009094   -0.0010727   -0.0001863
h    -4.2108752    1.7161706    1.2973405  0.00   -0.0002547    0.0000134    0.0008891
h    -2.8362465    0.5837777   -1.1118016  0.00    0.0006576   -0.0000185   -0.0013499
h    -2.5585779    0.1611150    0.4835573  0.00    0.0011702   -0.0006231    0.0009400
o    -1.7919305    2.9918464   -0.7102331  0.00    0.0010522   -0.0002442   -0.0016674
o    -2.6504205    3.7184881    1.4084899  0.00   -0.0005833    0.0011534    0.0019147
h    -1.8741994    4.3534187    1.2689812  0.00    0.0000846    0.0000222   -0.0000651
    13
 Energy =       0.0329657435
c    -3.8134555    1.8067332    0.2576730  0.00   -0.0001139   -0.0003219   -0.0001392
c    -2.7195354    2.8628306    0.3208266  0.00   -0.0001761   -0.0004471   -0.0003658
c    -4.9325223    2.2100367   -0.7064116  0.00    0.0002703    0.0000882    0.0000811
h    -5.3921611    3.1716785   -0.3914299  0.00    0.0001583   -0.0002600   -0.0000725
h    -5.7178030    1.4242610   -0.7234129  0.00    0.0000137   -0.0000033    0.0000069
h    -4.5299250    2.3288326   -1.7360657  0.00   -0.0000760   -0.0000193    0.0003012
n    -3.3092699    0.4866645   -0.1522233  0.00    0.0002218    0.0003897    0.0000787
h    -4.2326785    1.7407003    1.2903473  0.00    0.0000999   -0.0000343   -0.0003080
h    -2.8211457    0.5757671   -1.0770135  0.00   -0.0002184    0.0000285    0.0003941
h    -2.5757417    0.1736139    0.5275860  0.00   -0.0003285    0.0001722   -0.0003077
o    -1.8337823    3.0339810   -0.7370021  0.00    0.0002821   -0.0000971   -0.0005296
o    -2.6211239    3.6906951    1.4299365  0.00   -0.0001479    0.0005035    0.0008764
h    -1.8493024    4.3299387    1.2860636  0.00    0.0000146    0.0000008   -0.0000156
    13
 Energy =       0.0329643612
c    -3.8103365    1.8044404    0.2570379  0.00   -0.0000046    0.0000633    0.0000375
c    -2.7204330    2.8647918    0.3185086  0.00   -0.0001443   -0.0001505    0.0000214
c    -4.9393966    2.2096115   -0.6953317  0.00   -0.0000557    0.0000031    0.0000060
h    -5.4008345    3.1673366   -0.3700530  0.00   -0.0000352    0.0000487    0.0000136
h    -5.7213843    1.4205235   -0.7111896  0.00   -0.0000106   -0.0000067    0.0000073
h    -4.5457817    2.3370630   -1.7278147  0.00    0.0000243    0.0000158   -0.0000736
n    -3.3033507    0.4892337   -0.1663108  0.00   -0.0000372   -0.0000876    0.0000317
h    -4.2208241    1.7294202    1.2930069  0.00   -0.0000303   -0.0000104    0.0000755
h    -2.8225532    0.5870521   -1.0944203  0.00    0.0000523    0.0000085   -0.0001031
h    -2.5633049    0.1742234    0.5059983  0.00    0.0000627   -0.0000371    0.0000440
o    -1.8519615    3.0553272   -0.7502347  0.00    0.0002807   -0.0000122   -0.0004327
o    -2.6075694    3.6760290    1.4380724  0.00   -0.0001482    0.0001443    0.0004068
h    -1.8407164    4.3206807    1.2916048  0.00    0.0000461    0.0000207   -0.0000342
    13
 Energy =       0.0329639259
c    -3.8127268    1.8074432    0.2575858  0.00   -0.0000016    0.0000239    0.0000008
c    -2.7212329    2.8662681    0.3165985  0.00    0.0000065   -0.0000037   -0.0000235
c    -4.9378583    2.2086919   -0.7009969  0.00   -0.0000049   -0.0000070    0.0000009
h    -5.3988348    3.1690663   -0.3831330  0.00   -0.0000104    0.0000205    0.0000063
h    -5.7210215    1.4207467   -0.7148944  0.00   -0.0000002   -0.0000032    0.0000014
h    -4.5405024    2.3293272   -1.7328200  0.00    0.0000056    0.0000028   -0.0000206
n    -3.3063471    0.4891076   -0.1564160  0.00   -0.0000151   -0.0000320    0.0000023
h    -4.2268788    1.7390523    1.2925048  0.00   -0.0000069   -0.0000017    0.0000198
h    -2.8213661    0.5810409   -1.0828978  0.00    0.0000153    0.0000005   -0.0000304
h    -2.5699853    0.1763685    0.5209350  0.00    0.0000190   -0.0000122    0.0000167
o    -1.8581599    3.0586812   -0.7557852  0.00   -0.0000134   -0.0000034    0.0000155
o    -2.6003477    3.6730689    1.4382770  0.00    0.0000073    0.0000147    0.0000072
h    -1.8331853    4.3168703    1.2899162  0.00   -0.0000012    0.0000009    0.0000035
    13
 Energy =       0.0329639223
c    -3.8127886    1.8075327    0.2575623  0.00   -0.0000000    0.0000000    0.0000000
c    -2.7213298    2.8663926    0.3165262  0.00   -0.0000001   -0.0000002   -0.0000001
c    -4.9378792    2.2086032   -0.7011224  0.00   -0.0000000   -0.0000000   -0.0000000
h    -5.3989016    3.1689821   -0.3834204  0.00   -0.0000000    0.0000000    0.0000000
h    -5.7210134    1.4206314   -0.7149735  0.00   -0.0000000   -0.0000000   -0.0000000
h    -4.5404700    2.3291245   -1.7329176  0.00    0.0000000    0.0000000   -0.0000000
n    -3.3063323    0.4891998   -0.1562568  0.00   -0.0000000   -0.0000000   -0.0000000
h    -4.2269980    1.7392364    1.2924449  0.00   -0.0000000   -0.0000000    0.0000000
h    -2.8212563    0.5810693   -1.0826733  0.00    0.0000000    0.0000000   -0.0000000
h    -2.5700510    0.1765589    0.5212029  0.00    0.0000000   -0.0000000    0.0000000
o    -1.8587953    3.0593591   -0.7562070  0.00    0.0000002   -0.0000000   -0.0000004
o    -2.5998521    3.6725758    1.4385725  0.00   -0.0000001    0.0000003    0.0000005
h    -1.8327791    4.3164673    1.2901363  0.00    0.0000000    0.0000000   -0.0000000
