    27
 Energy =       0.3559055537
c    -1.4235396    2.6054793   -0.0667700  0.00   -0.0462274    0.0382676    0.0029634
c    -1.3072796    1.2134697   -0.1072300  0.00   -0.0852390   -0.0325910    0.0022459
c    -0.0178900    0.6711998   -0.1697000  0.00   -0.0895739   -0.1873890   -0.0021157
c    -0.2940599    3.4190890   -0.0891300  0.00   -0.0231328    0.0690191    0.0031438
c     0.9872197    2.8590292   -0.1560400  0.00    0.0105969    0.0639851    0.0013367
c     1.1340797    1.4562096   -0.1970299  0.00    0.0530067    0.0521727    0.0014955
n     0.3879399   -0.6395298   -0.2140799  0.00    0.1483162    0.1083417    0.0019492
c     2.2666594    0.5727398   -0.2659299  0.00    0.1522618   -0.0705702   -0.0020375
c     1.7555995   -0.7123598   -0.2706899  0.00   -0.0443413   -0.1119122    0.0692953
h    -0.2400399   -1.4313496   -0.2047299  0.00    0.0354205    0.0477199   -0.0022896
c     3.7030089    1.0223397   -0.3320099  0.00   -0.0125470   -0.0197273    0.0188603
c     4.7465686   -0.0024900    0.1378100  0.00    0.0098070    0.0326679   -0.0776402
h     3.7978489    1.9290294    0.2803699  0.00    0.0000005   -0.0095875   -0.0126419
h     3.9233889    1.3348996   -1.3618196  0.00   -0.0048740    0.0013180    0.0132921
c     4.2682788   -0.6309508    1.4598596  0.00   -0.2928651   -0.1731249    0.1099844
n     6.1061283    0.5956748    0.3870399  0.00    0.0639112    0.0015095    0.1059055
h     4.8578986   -0.8184518   -0.5859768  0.00    0.0067456    0.0122119    0.0124733
h     6.0567283    1.5811395    0.1086060  0.00   -0.0213736   -0.0330129    0.0096618
h     6.2469182    0.6340138    1.4027096  0.00   -0.2285520   -0.2226212    0.1525762
h    -2.4108593    3.0588691   -0.0157800  0.00   -0.0009523    0.0003219   -0.0000945
h    -2.1896094    0.5822398   -0.0890100  0.00   -0.0036427    0.0037303   -0.0001696
h    -0.4052699    4.5000487   -0.0535400  0.00    0.0008418    0.0004042    0.0001362
h     1.8590495    3.5066790   -0.1715100  0.00   -0.0005113    0.0027342    0.0004484
h     2.2327294   -1.6813195   -0.3062999  0.00   -0.0278763   -0.0046762    0.0239844
o     3.2003091   -1.1944397    1.6325595  0.00    0.1870362    0.1659290   -0.1316321
o     5.2000885   -0.4831479    2.4398893  0.00    0.2177459    0.2394111   -0.2705098
h     5.4513284   -1.4082496    2.6961392  0.00   -0.0039814    0.0254685   -0.0306213
    27
 Energy =       0.2976809127
c    -1.3756872    2.6551341   -0.0924835  0.00   -0.0325887    0.0269412    0.0020433
c    -1.2703445    1.2725141   -0.1179567  0.00   -0.0605759   -0.0236232    0.0014536
c    -0.0018197    0.7230795   -0.1950007  0.00   -0.0607261   -0.1283926   -0.0053314
c    -0.2441546    3.4526770   -0.1312793  0.00   -0.0165592    0.0488872    0.0023372
c     1.0207118    2.8816239   -0.2030217  0.00    0.0074653    0.0455697    0.0010584
c     1.1393922    1.4922840   -0.2396867  0.00    0.0372338    0.0376334    0.0008255
n     0.3721282   -0.6119584   -0.1627950  0.00    0.0971094    0.0734013    0.0085073
c     2.2501729    0.6258118   -0.3072002  0.00    0.1070437   -0.0520237   -0.0012106
c     1.7535863   -0.6509022   -0.3389870  0.00   -0.0226816   -0.0757254    0.0445655
h    -0.2578195   -1.4140432   -0.0810359  0.00    0.0226424    0.0306910   -0.0000329
c     3.6971181    1.0531418   -0.2879754  0.00   -0.0098820   -0.0139048    0.0133789
c     4.6753897   -0.0378384    0.1861089  0.00    0.0039797    0.0207558   -0.0532294
h     3.7949394    1.9216216    0.3882435  0.00    0.0014454   -0.0051751   -0.0068982
h     3.9790631    1.4059086   -1.2964951  0.00   -0.0028422    0.0024425    0.0070032
c     4.1978555   -0.6531844    1.5117539  0.00   -0.2142589   -0.1217149    0.0731559
n     6.0642749    0.4863777    0.3948187  0.00    0.0479444   -0.0069120    0.0787002
h     4.7242397   -0.8594217   -0.5474216  0.00    0.0043074    0.0070920    0.0077320
h     6.1122954    1.4657883    0.0581723  0.00   -0.0136224   -0.0140226    0.0036364
h     6.2299183    0.5326982    1.4170630  0.00   -0.1720628   -0.1675579    0.1181134
h    -2.3582711    3.1172508   -0.0310759  0.00   -0.0008032    0.0002131   -0.0000711
h    -2.1545199    0.6449464   -0.0668665  0.00   -0.0030174    0.0022787   -0.0000372
h    -0.3441512    4.5350030   -0.1019838  0.00    0.0005746    0.0003745    0.0001074
h     1.9025107    3.5153229   -0.2298858  0.00   -0.0002407    0.0020666    0.0003224
h     2.2773172   -1.5951811   -0.4095285  0.00   -0.0182889   -0.0039382    0.0148803
o     3.0843023   -1.2431716    1.6810460  0.00    0.1315381    0.1170705   -0.0920926
o     5.1626173   -0.6086185    2.4869322  0.00    0.1637428    0.1982201   -0.1983680
h     5.4621575   -1.5670027    2.6042480  0.00    0.0031230   -0.0006472   -0.0205492
    27
 Energy =       0.2924670384
c    -1.4013834    2.5999324   -0.1079350  0.00   -0.0322971    0.0265714    0.0020273
c    -1.2790053    1.2190561   -0.1590623  0.00   -0.0597559   -0.0237292    0.0014780
c    -0.0027165    0.6861836   -0.2231823  0.00   -0.0587462   -0.1237645   -0.0051449
c    -0.2793800    3.4120414   -0.1145789  0.00   -0.0160359    0.0484349    0.0023034
c     0.9927338    2.8578818   -0.1742433  0.00    0.0076013    0.0450468    0.0010314
c     1.1283544    1.4713154   -0.2309924  0.00    0.0367499    0.0375369    0.0008426
n     0.3867024   -0.6484141   -0.2535290  0.00    0.0913437    0.0707384    0.0083685
c     2.2521135    0.6249423   -0.2888278  0.00    0.1056403   -0.0509500   -0.0012135
c     1.7807838   -0.6602883   -0.3410471  0.00   -0.0176514   -0.0732886    0.0436318
h    -0.2346851   -1.4644647   -0.2397891  0.00    0.0197918    0.0270454    0.0000017
c     3.6890239    1.0831245   -0.2514082  0.00   -0.0094814   -0.0136989    0.0130621
c     4.6832436    0.0028008    0.2059825  0.00    0.0037970    0.0201746   -0.0523972
h     3.7656047    1.9399068    0.4432367  0.00    0.0013966   -0.0047212   -0.0065165
h     3.9699875    1.4610929   -1.2516968  0.00   -0.0025974    0.0025205    0.0066088
c     4.2212871   -0.6136657    1.5353230  0.00   -0.2106175   -0.1195758    0.0719393
n     6.0672653    0.5417501    0.3983889  0.00    0.0474395   -0.0071568    0.0772658
h     4.7325798   -0.8177481   -0.5289628  0.00    0.0042252    0.0069640    0.0075923
h     6.0973076    1.5272723    0.0758201  0.00   -0.0133999   -0.0133563    0.0033926
h     6.2468350    0.5776105    1.4173312  0.00   -0.1690193   -0.1645623    0.1161875
h    -2.3907638    3.0489708   -0.0569826  0.00   -0.0009831    0.0002162   -0.0000613
h    -2.1569898    0.5798490   -0.1451320  0.00   -0.0035926    0.0017165   -0.0000234
h    -0.3931606    4.4926398   -0.0685775  0.00    0.0006194    0.0006276    0.0001142
h     1.8672454    3.5028857   -0.1742745  0.00    0.0001395    0.0023209    0.0003202
h     2.3262083   -1.5934045   -0.3957150  0.00   -0.0176679   -0.0042293    0.0146017
o     3.1119299   -1.2163259    1.7064007  0.00    0.1291304    0.1150552   -0.0904786
o     5.1924508   -0.5612643    2.5070090  0.00    0.1605740    0.1956436   -0.1948500
h     5.5196507   -1.5138191    2.6041518  0.00    0.0033971   -0.0015798   -0.0200838
    27
 Energy =       0.2833678374
c    -1.4212571    2.5481293   -0.1306944  0.00   -0.0302341    0.0247610    0.0019088
c    -1.2832599    1.1709330   -0.2065714  0.00   -0.0557090   -0.0224947    0.0014616
c    -0.0023824    0.6530613   -0.2566139  0.00   -0.0538622   -0.1129018   -0.0041740
c    -0.3087886    3.3714863   -0.1045204  0.00   -0.0146305    0.0453506    0.0021254
c     0.9678950    2.8320254   -0.1503612  0.00    0.0073635    0.0420607    0.0009131
c     1.1166355    1.4503682   -0.2264590  0.00    0.0342542    0.0354238    0.0007931
n     0.4008710   -0.6798676   -0.3453501  0.00    0.0812467    0.0646031    0.0069945
c     2.2494329    0.6249246   -0.2718781  0.00    0.0986057   -0.0471339   -0.0011978
c     1.8032025   -0.6664939   -0.3471628  0.00   -0.0122274   -0.0670118    0.0411585
h    -0.2102888   -1.5065516   -0.3985422  0.00    0.0160814    0.0221000   -0.0003188
c     3.6769459    1.1102736   -0.2105630  0.00   -0.0084858   -0.0127333    0.0120369
c     4.6837653    0.0406367    0.2393376  0.00    0.0033480    0.0186412   -0.0487314
h     3.7311493    1.9576502    0.4990562  0.00    0.0012844   -0.0040777   -0.0058083
h     3.9618877    1.5073183   -1.2031564  0.00   -0.0022616    0.0024161    0.0059714
c     4.2358042   -0.5745142    1.5721278  0.00   -0.1957023   -0.1110661    0.0669353
n     6.0619748    0.5943970    0.4139268  0.00    0.0442962   -0.0069264    0.0716263
h     4.7341081   -0.7814518   -0.4948946  0.00    0.0038932    0.0064552    0.0070419
h     6.0773485    1.5859331    0.1055777  0.00   -0.0124801   -0.0120548    0.0029958
h     6.2595629    0.6186643    1.4300878  0.00   -0.1573979   -0.1533801    0.1084983
h    -2.4163277    2.9858036   -0.0910327  0.00   -0.0010884    0.0001983   -0.0000507
h    -2.1545923    0.5220359   -0.2293193  0.00   -0.0039332    0.0010970   -0.0000355
h    -0.4346782    4.4501037   -0.0424484  0.00    0.0006367    0.0008103    0.0001155
h     1.8359511    3.4856873   -0.1229800  0.00    0.0005026    0.0024237    0.0003083
h     2.3719507   -1.5868903   -0.3845808  0.00   -0.0160028   -0.0042934    0.0136365
o     3.1258279   -1.1943556    1.7414601  0.00    0.1197638    0.1067175   -0.0842441
o     5.2117437   -0.5225097    2.5427511  0.00    0.1455943    0.1925014   -0.1812822
h     5.6187407   -1.4569354    2.5605108  0.00    0.0071446   -0.0114861   -0.0186782
    27
 Energy =       0.2779398198
c    -1.4169121    2.5429184   -0.1456351  0.00   -0.0295326    0.0241735    0.0018651
c    -1.2764898    1.1667456   -0.2266581  0.00   -0.0544012   -0.0219795    0.0014332
c     0.0046273    0.6511109   -0.2731090  0.00   -0.0525778   -0.1101947   -0.0040455
c    -0.3060374    3.3675003   -0.1114544  0.00   -0.0142705    0.0442939    0.0020738
c     0.9709772    2.8300686   -0.1532521  0.00    0.0072060    0.0410755    0.0008881
c     1.1212433    1.4497080   -0.2338209  0.00    0.0334430    0.0346081    0.0007728
n     0.4098435   -0.6814758   -0.3708344  0.00    0.0791806    0.0630671    0.0067883
c     2.2548287    0.6279244   -0.2745307  0.00    0.0962763   -0.0460398   -0.0011730
c     1.8129531   -0.6642378   -0.3552593  0.00   -0.0118059   -0.0653858    0.0401947
h    -0.1994405   -1.5092151   -0.4365710  0.00    0.0156182    0.0214744   -0.0003259
c     3.6806232    1.1169814   -0.2009757  0.00   -0.0082957   -0.0124736    0.0117623
c     4.6877185    0.0442913    0.2402960  0.00    0.0032580    0.0183422   -0.0473516
h     3.7304762    1.9561502    0.5190417  0.00    0.0012747   -0.0039105   -0.0056081
h     3.9683924    1.5257504   -1.1882551  0.00   -0.0021765    0.0023932    0.0057556
c     4.2453058   -0.5750765    1.5719552  0.00   -0.1909494   -0.1091404    0.0653556
n     6.0659247    0.5962388    0.4110200  0.00    0.0431672   -0.0071734    0.0698961
h     4.7350012   -0.7748619   -0.4975555  0.00    0.0038164    0.0062928    0.0068634
h     6.0885570    1.5814930    0.0826939  0.00   -0.0121625   -0.0114069    0.0027847
h     6.2565764    0.6360129    1.4286436  0.00   -0.1537352   -0.1503841    0.1063751
h    -2.4127800    2.9790035   -0.1089347  0.00   -0.0010706    0.0001925   -0.0000492
h    -2.1466251    0.5166065   -0.2571615  0.00   -0.0038661    0.0010503   -0.0000352
h    -0.4336774    4.4456975   -0.0458227  0.00    0.0006255    0.0008005    0.0001130
h     1.8382132    3.4845100   -0.1188382  0.00    0.0005119    0.0023825    0.0003010
h     2.3859493   -1.5824090   -0.3847623  0.00   -0.0155801   -0.0042183    0.0133148
o     3.1238811   -1.1781936    1.7512986  0.00    0.1169352    0.1037960   -0.0822135
o     5.2171834   -0.5125324    2.5469252  0.00    0.1333801    0.2250245   -0.1826186
h     5.4869099   -1.5008478    2.7192639  0.00    0.0157309   -0.0466597   -0.0131172
    27
 Energy =       0.2547057271
c    -1.4116196    2.5118516   -0.1935261  0.00   -0.0235588    0.0190376    0.0015149
c    -1.2619746    1.1428201   -0.2999687  0.00   -0.0431588   -0.0177506    0.0013740
c     0.0159683    0.6359788   -0.3293398  0.00   -0.0413410   -0.0862803   -0.0020276
c    -0.3077754    3.3383124   -0.1207976  0.00   -0.0109154    0.0353117    0.0015583
c     0.9673318    2.8078476   -0.1441877  0.00    0.0060816    0.0326602    0.0005469
c     1.1193470    1.4362212   -0.2463887  0.00    0.0264540    0.0278702    0.0005203
n     0.4234785   -0.6984288   -0.4709885  0.00    0.0601978    0.0495603    0.0038370
c     2.2519941    0.6343005   -0.2690936  0.00    0.0766347   -0.0361481   -0.0011127
c     1.8320020   -0.6586291   -0.3836318  0.00   -0.0065734   -0.0512435    0.0334422
h    -0.1780665   -1.5313466   -0.5953241  0.00    0.0106604    0.0147022   -0.0008574
c     3.6721857    1.1377086   -0.1512142  0.00   -0.0060424   -0.0099470    0.0093252
c     4.6821119    0.0634724    0.2839633  0.00    0.0023041    0.0144093   -0.0374143
h     3.7001076    1.9605413    0.5913502  0.00    0.0010932   -0.0026806   -0.0039910
h     3.9759657    1.5690328   -1.1258032  0.00   -0.0014536    0.0020696    0.0041821
c     4.2563628   -0.5603264    1.6152588  0.00   -0.1504100   -0.0866137    0.0511999
n     6.0562743    0.6204459    0.4320226  0.00    0.0339924   -0.0061611    0.0554251
h     4.7231921   -0.7548283   -0.4576984  0.00    0.0029278    0.0049344    0.0053710
h     6.0872898    1.6004676    0.0835828  0.00   -0.0095957   -0.0086376    0.0020191
h     6.2598384    0.6722284    1.4505380  0.00   -0.1248522   -0.1221868    0.0871870
h    -2.4102410    2.9424077   -0.1703668  0.00   -0.0009968    0.0001158   -0.0000331
h    -2.1268171    0.4880630   -0.3676062  0.00   -0.0036256    0.0003559   -0.0000601
h    -0.4413070    4.4146543   -0.0376696  0.00    0.0005902    0.0008311    0.0000955
h     1.8320007    3.4635672   -0.0774944  0.00    0.0008643    0.0021844    0.0002572
h     2.4309162   -1.5616744   -0.3937412  0.00   -0.0115440   -0.0035773    0.0109232
o     3.1070419   -1.1577618    1.8013414  0.00    0.0909390    0.0826387   -0.0657071
o     5.2194719   -0.4958424    2.6036217  0.00    0.1064738    0.1905814   -0.1488930
h     5.4181433   -1.4812221    2.8608691  0.00    0.0148543   -0.0460363   -0.0086828
    27
 Energy =       0.2320015668
c    -1.3708192    2.5621558   -0.2353067  0.00   -0.0168666    0.0128927    0.0010620
c    -1.2372883    1.1993444   -0.3666538  0.00   -0.0302178   -0.0128291    0.0012276
c     0.0258679    0.6769865   -0.3803420  0.00   -0.0286669   -0.0599594   -0.0005754
c    -0.2590862    3.3674711   -0.1230060  0.00   -0.0073544    0.0248955    0.0009736
c     1.0032421    2.8187736   -0.1291146  0.00    0.0045014    0.0230983    0.0001960
c     1.1305014    1.4543292   -0.2554678  0.00    0.0185861    0.0195469    0.0001324
n     0.4044907   -0.6678019   -0.5457862  0.00    0.0413896    0.0342795    0.0018216
c     2.2440829    0.6482023   -0.2648994  0.00    0.0535800   -0.0245358   -0.0009730
c     1.8174449   -0.6342482   -0.4212472  0.00   -0.0036934   -0.0362502    0.0245102
h    -0.2082759   -1.4912014   -0.7071703  0.00    0.0065485    0.0092231   -0.0009373
c     3.6724989    1.1262818   -0.1001401  0.00   -0.0042618   -0.0066023    0.0065599
c     4.6614446    0.0185289    0.3162834  0.00    0.0008008    0.0095824   -0.0253077
h     3.7015794    1.9245689    0.6715194  0.00    0.0011160   -0.0014108   -0.0022226
h     3.9989768    1.5808586   -1.0586148  0.00   -0.0008747    0.0017985    0.0023151
c     4.2452825   -0.6136927    1.6434420  0.00   -0.1003033   -0.0610462    0.0340232
n     6.0459121    0.5450726    0.4409112  0.00    0.0237849   -0.0090158    0.0392768
h     4.6726315   -0.7921111   -0.4380245  0.00    0.0018621    0.0030151    0.0033053
h     6.1227754    1.5034042    0.0310200  0.00   -0.0059039   -0.0013995   -0.0006399
h     6.2541119    0.6370593    1.4621643  0.00   -0.0920839   -0.0903010    0.0674820
h    -2.3635177    3.0065632   -0.2242200  0.00   -0.0009253    0.0000528   -0.0000208
h    -2.1080859    0.5568274   -0.4665134  0.00   -0.0029927   -0.0001910   -0.0000771
h    -0.3779628    4.4440210   -0.0209541  0.00    0.0004817    0.0008967    0.0000841
h     1.8775455    3.4577639   -0.0299627  0.00    0.0011689    0.0019774    0.0002145
h     2.4213608   -1.5347544   -0.4247669  0.00   -0.0075136   -0.0022527    0.0081390
o     3.0459114   -1.1662769    1.8447990  0.00    0.0585485    0.0580869   -0.0460287
o     5.1931137   -0.5600450    2.6501362  0.00    0.0761439    0.1572855   -0.1144104
h     5.2794847   -1.5282197    3.0196223  0.00    0.0131458   -0.0508377   -0.0001306
    27
 Energy =       0.2247120757
c    -1.4021449    2.4486715   -0.3181150  0.00   -0.0150344    0.0114637    0.0009593
c    -1.2323657    1.0894887   -0.4359875  0.00   -0.0265396   -0.0113264    0.0010229
c     0.0421181    0.5992842   -0.4321067  0.00   -0.0251820   -0.0512725   -0.0005613
c    -0.3131000    3.2821269   -0.2008923  0.00   -0.0063912    0.0220588    0.0009235
c     0.9607708    2.7655042   -0.1891717  0.00    0.0044068    0.0202098    0.0002436
c     1.1218303    1.4054498   -0.3019363  0.00    0.0158860    0.0171701    0.0001202
n     0.4572653   -0.7423422   -0.5664982  0.00    0.0352511    0.0287756    0.0014680
c     2.2544121    0.6342680   -0.2846669  0.00    0.0462048   -0.0208532   -0.0013829
c     1.8704784   -0.6621158   -0.4278118  0.00   -0.0032589   -0.0314228    0.0204698
h    -0.1298084   -1.5875136   -0.7198590  0.00    0.0051471    0.0071144   -0.0009277
c     3.6646678    1.1619952   -0.1002721  0.00   -0.0047969   -0.0050559    0.0044424
c     4.6816477    0.1055481    0.3847655  0.00    0.0007781    0.0072128   -0.0205356
h     3.6492070    1.9903682    0.6421472  0.00    0.0009077    0.0002098   -0.0007187
h     4.0026140    1.5893624   -1.0680223  0.00   -0.0010093    0.0016810    0.0013916
c     4.2590292   -0.5045975    1.7204942  0.00   -0.0859381   -0.0526705    0.0299433
n     6.0452666    0.6859861    0.5123143  0.00    0.0222290   -0.0093497    0.0345783
h     4.7375304   -0.7314684   -0.3414006  0.00    0.0016401    0.0012571    0.0017909
h     6.0827881    1.6621573    0.1360095  0.00   -0.0042935    0.0011078   -0.0013818
h     6.2672282    0.7562223    1.5338169  0.00   -0.0802798   -0.0785077    0.0594923
h    -2.4061488    2.8679542   -0.3203980  0.00   -0.0012501    0.0002581   -0.0000143
h    -2.0853722    0.4234732   -0.5360709  0.00   -0.0029440   -0.0004353   -0.0001039
h    -0.4601589    4.3564266   -0.1089248  0.00    0.0003486    0.0012435    0.0001147
h     1.8174395    3.4274431   -0.0855396  0.00    0.0014229    0.0019416    0.0002434
h     2.5068730   -1.5414468   -0.3929575  0.00   -0.0055560   -0.0032381    0.0070825
o     3.0538212   -1.0634814    1.9188994  0.00    0.0505567    0.0499948   -0.0391812
o     5.2038330   -0.4629625    2.7312651  0.00    0.0660941    0.1390861   -0.1003037
h     5.2435013   -1.4159402    3.1386265  0.00    0.0116009   -0.0466530    0.0008243
    27
 Energy =       0.2159653871
c    -1.4033236    2.3797121   -0.4117362  0.00   -0.0119685    0.0090755    0.0008104
c    -1.2126584    1.0247825   -0.5199766  0.00   -0.0209972   -0.0088215    0.0008595
c     0.0650470    0.5524621   -0.4926450  0.00   -0.0199972   -0.0397521   -0.0004641
c    -0.3288793    3.2267552   -0.2802209  0.00   -0.0050485    0.0174415    0.0007782
c     0.9488708    2.7274040   -0.2448469  0.00    0.0037648    0.0157741    0.0002197
c     1.1273608    1.3720635   -0.3478490  0.00    0.0122325    0.0135372    0.0000499
n     0.4970948   -0.7891717   -0.6008112  0.00    0.0271849    0.0220829    0.0010085
c     2.2666259    0.6226234   -0.3008059  0.00    0.0360995   -0.0161179   -0.0016029
c     1.9093373   -0.6798575   -0.4393245  0.00   -0.0026094   -0.0244405    0.0154910
h    -0.0752432   -1.6459231   -0.7542115  0.00    0.0038769    0.0052947   -0.0007539
c     3.6653287    1.1750015   -0.0890503  0.00   -0.0043302   -0.0036840    0.0028448
c     4.6854789    0.1503282    0.4606554  0.00    0.0013860    0.0055578   -0.0154628
h     3.6172810    2.0262028    0.6270554  0.00    0.0005230    0.0010146    0.0001708
h     4.0265640    1.5749111   -1.0609995  0.00   -0.0007751    0.0014453    0.0004223
c     4.2450372   -0.4275938    1.8052367  0.00   -0.0655919   -0.0414520    0.0234034
n     6.0362901    0.7569698    0.5899763  0.00    0.0176197   -0.0081512    0.0268165
h     4.7696609   -0.7103871   -0.2364868  0.00    0.0014017    0.0001483    0.0007011
h     6.0680134    1.7234727    0.1883067  0.00   -0.0032915    0.0014793   -0.0013070
h     6.2488056    0.8582230    1.6133606  0.00   -0.0641447   -0.0626953    0.0490353
h    -2.4127640    2.7853111   -0.4319154  0.00   -0.0012373    0.0003089   -0.0000085
h    -2.0541610    0.3460745   -0.6281727  0.00   -0.0024639   -0.0004262   -0.0000871
h    -0.4916769    4.2993025   -0.1954412  0.00    0.0002345    0.0011259    0.0001028
h     1.7945420    3.4009378   -0.1294250  0.00    0.0013390    0.0015829    0.0002167
h     2.5652989   -1.5436907   -0.3666048  0.00   -0.0034999   -0.0033102    0.0059233
o     3.0128026   -0.9519973    2.0080077  0.00    0.0379777    0.0390132   -0.0299041
o     5.1780968   -0.3959328    2.8282523  0.00    0.0529712    0.1176781   -0.0829834
h     5.1443925   -1.3181224    3.2973796  0.00    0.0093439   -0.0437092    0.0037195
    27
 Energy =       0.2106135368
c    -1.3961289    2.3178436   -0.5122180  0.00   -0.0098640    0.0075019    0.0007044
c    -1.1880357    0.9658076   -0.6033094  0.00   -0.0171639   -0.0070947    0.0007200
c     0.0921098    0.5085632   -0.5498465  0.00   -0.0163421   -0.0316814   -0.0004196
c    -0.3344031    3.1770909   -0.3712081  0.00   -0.0042329    0.0142632    0.0006776
c     0.9463839    2.6925061   -0.3096389  0.00    0.0032858    0.0127349    0.0002160
c     1.1399533    1.3401950   -0.3954487  0.00    0.0097028    0.0109761   -0.0000043
n     0.5377153   -0.8328576   -0.6262523  0.00    0.0217191    0.0173313    0.0007001
c     2.2839615    0.6078229   -0.3160443  0.00    0.0290929   -0.0127585   -0.0018154
c     1.9473924   -0.7001524   -0.4419260  0.00   -0.0021937   -0.0196788    0.0117972
h    -0.0226625   -1.6991559   -0.7758585  0.00    0.0030306    0.0040769   -0.0006222
c     3.6729106    1.1786466   -0.0817255  0.00   -0.0044308   -0.0027225    0.0016100
c     4.6838678    0.1837805    0.5417622  0.00    0.0024319    0.0047777   -0.0121387
h     3.5983375    2.0574924    0.5992164  0.00    0.0001520    0.0018539    0.0009580
h     4.0615888    1.5410334   -1.0588646  0.00   -0.0004978    0.0014232   -0.0007103
c     4.2123991   -0.3462341    1.8966394  0.00   -0.0499782   -0.0332996    0.0187409
n     6.0253405    0.8065091    0.6792231  0.00    0.0141462   -0.0108716    0.0195089
h     4.7940668   -0.7044263   -0.1181887  0.00    0.0014147   -0.0009284   -0.0003031
h     6.0697126    1.7468274    0.2160287  0.00   -0.0028395    0.0044911   -0.0028669
h     6.2035193    0.9728572    1.7047820  0.00   -0.0521507   -0.0508211    0.0449790
h    -2.4096372    2.7117652   -0.5525865  0.00   -0.0012624    0.0003754   -0.0000090
h    -2.0195286    0.2760456   -0.7161943  0.00   -0.0020972   -0.0004040   -0.0000759
h    -0.5104922    4.2484802   -0.2995447  0.00    0.0001202    0.0010820    0.0000944
h     1.7820500    3.3765811   -0.1863398  0.00    0.0012380    0.0013250    0.0001945
h     2.6159879   -1.5509354   -0.3303911  0.00   -0.0020873   -0.0033684    0.0051921
o     2.9470761   -0.8097715    2.1051004  0.00    0.0275604    0.0307373   -0.0225125
o     5.1299486   -0.3199657    2.9344084  0.00    0.0438510    0.1017694   -0.0706126
h     5.0297893   -1.2064877    3.4561327  0.00    0.0073949   -0.0410902    0.0059974
    27
 Energy =       0.2063246300
c    -1.4257099    2.2627336   -0.5486287  0.00   -0.0087800    0.0065204    0.0005780
c    -1.1941403    0.9148265   -0.6319566  0.00   -0.0150620   -0.0062362    0.0005896
c     0.0912204    0.4789161   -0.5577384  0.00   -0.0140988   -0.0273447   -0.0003902
c    -0.3805610    3.1390648   -0.3950098  0.00   -0.0037109    0.0125346    0.0005728
c     0.9059915    2.6755178   -0.3132765  0.00    0.0031488    0.0110456    0.0001822
c     1.1215217    1.3273642   -0.3912364  0.00    0.0084827    0.0094751   -0.0000526
n     0.5589455   -0.8565813   -0.6238695  0.00    0.0184680    0.0146789    0.0005363
c     2.2755901    0.6175164   -0.2958818  0.00    0.0251590   -0.0110694   -0.0014279
c     1.9651668   -0.6957937   -0.4253620  0.00   -0.0015842   -0.0170972    0.0102077
h     0.0156339   -1.7338762   -0.7767432  0.00    0.0024634    0.0031782   -0.0005824
c     3.6513845    1.2187345   -0.0534149  0.00   -0.0044191   -0.0022544    0.0012706
c     4.6961409    0.2431953    0.5465236  0.00    0.0008011    0.0049399   -0.0102425
h     3.5538950    2.0823324    0.6442655  0.00    0.0000275    0.0020851    0.0010499
h     4.0282726    1.6102853   -1.0245379  0.00   -0.0001450    0.0013942   -0.0010391
c     4.2607573   -0.3225860    1.9010639  0.00   -0.0464940   -0.0289143    0.0132350
n     6.0292915    0.8938717    0.6516847  0.00    0.0116194   -0.0307921    0.0001912
h     4.8117966   -0.6351761   -0.1254114  0.00    0.0014387   -0.0008906   -0.0002844
h     6.0002564    1.9055805    0.3269795  0.00   -0.0044498    0.0258666   -0.0112962
h     6.3135800    0.9182400    1.6806822  0.00   -0.0401496   -0.0445836    0.0633434
h    -2.4448720    2.6399532   -0.6057984  0.00   -0.0013825    0.0003815   -0.0000570
h    -2.0122361    0.2109401   -0.7551521  0.00   -0.0020041   -0.0005286   -0.0001071
h    -0.5749255    4.2077775   -0.3304330  0.00    0.0000410    0.0011034    0.0000489
h     1.7290458    3.3732155   -0.1815599  0.00    0.0012421    0.0012524    0.0001544
h     2.6513978   -1.5323977   -0.3141889  0.00   -0.0016357   -0.0031228    0.0045112
o     2.9964440   -0.7906163    2.1281339  0.00    0.0236895    0.0260641   -0.0191098
o     5.2136131   -0.3737666    2.9096711  0.00    0.0421383    0.0904832   -0.0581878
h     5.0557222   -1.2394100    3.4489023  0.00    0.0051961   -0.0381695    0.0063058
    27
 Energy =       0.2007910027
c    -1.4137630    2.2352348   -0.6479130  0.00   -0.0066109    0.0047967    0.0004624
c    -1.1727652    0.8899116   -0.7137276  0.00   -0.0112024   -0.0043527    0.0004682
c     0.1103847    0.4619607   -0.6045440  0.00   -0.0101919   -0.0194463   -0.0002917
c    -0.3779135    3.1170994   -0.4766710  0.00   -0.0029381    0.0091881    0.0004426
c     0.9072054    2.6610365   -0.3606018  0.00    0.0026250    0.0078535    0.0001673
c     1.1296905    1.3154822   -0.4214683  0.00    0.0061159    0.0067834   -0.0000899
n     0.5822243   -0.8743848   -0.6416785  0.00    0.0130604    0.0102163    0.0002483
c     2.2824062    0.6160425   -0.2921399  0.00    0.0182772   -0.0079638   -0.0013872
c     1.9843909   -0.6992288   -0.4151254  0.00   -0.0006888   -0.0124496    0.0072231
h     0.0457068   -1.7564964   -0.7955408  0.00    0.0017341    0.0022282   -0.0004221
c     3.6508722    1.2266764   -0.0262464  0.00   -0.0032985   -0.0015155    0.0007475
c     4.6896409    0.2661029    0.6095542  0.00    0.0011221    0.0038229   -0.0068926
h     3.5332976    2.0977772    0.6582373  0.00   -0.0000356    0.0016930    0.0009759
h     4.0477250    1.6071232   -0.9937496  0.00   -0.0000466    0.0010293   -0.0010008
c     4.2425117   -0.2794081    1.9687025  0.00   -0.0298473   -0.0211778    0.0062665
n     6.0197537    0.9226724    0.7062673  0.00    0.0081212   -0.0240618   -0.0017099
h     4.8138524   -0.6249861   -0.0435074  0.00    0.0010532   -0.0008574   -0.0003717
h     5.9781805    1.9448597    0.4308028  0.00   -0.0031835    0.0204285   -0.0090963
h     6.3429584    0.9016630    1.7215552  0.00   -0.0293463   -0.0332520    0.0497804
h    -2.4332557    2.6064493   -0.7322831  0.00   -0.0013710    0.0004121   -0.0000586
h    -1.9834856    0.1802599   -0.8489423  0.00   -0.0015756   -0.0004041   -0.0000815
h    -0.5791986    4.1851139   -0.4256658  0.00   -0.0000640    0.0009011    0.0000365
h     1.7233478    3.3636789   -0.2154362  0.00    0.0010388    0.0009300    0.0001177
h     2.6766983   -1.5267097   -0.2788087  0.00   -0.0007891   -0.0024172    0.0036618
o     2.9334451   -0.6318632    2.2268719  0.00    0.0062385    0.0171860   -0.0132381
o     5.2118452   -0.4296493    2.9554983  0.00    0.0422892    0.0792173   -0.0466084
h     4.9474669   -1.2365567    3.5442673  0.00   -0.0004859   -0.0387882    0.0106506
    27
 Energy =       0.2005402304
c    -1.4244392    2.1689352   -0.6988084  0.00   -0.0066108    0.0048858    0.0004266
c    -1.1654312    0.8254705   -0.7334632  0.00   -0.0108264   -0.0045662    0.0004094
c     0.1229466    0.4170369   -0.6119690  0.00   -0.0099042   -0.0183822   -0.0003122
c    -0.4008349    3.0683244   -0.5453597  0.00   -0.0028300    0.0092225    0.0004472
c     0.8897926    2.6320253   -0.4166635  0.00    0.0026016    0.0079523    0.0001917
c     1.1300827    1.2882897   -0.4465177  0.00    0.0058717    0.0065825   -0.0000886
n     0.6120019   -0.9147005   -0.6106943  0.00    0.0126470    0.0091212    0.0002248
c     2.2911341    0.6078207   -0.2957557  0.00    0.0175861   -0.0070869   -0.0015780
c     2.0112022   -0.7147161   -0.3834609  0.00   -0.0007288   -0.0124754    0.0066092
h     0.0872614   -1.8078545   -0.7427007  0.00    0.0013975    0.0015974   -0.0004687
c     3.6494861    1.2436262   -0.0350028  0.00   -0.0034917   -0.0012825    0.0002309
c     4.6932150    0.3145933    0.6390927  0.00    0.0015679    0.0034034   -0.0062006
h     3.5136995    2.1317298    0.6245223  0.00   -0.0000643    0.0021012    0.0012969
h     4.0522944    1.6023284   -1.0085277  0.00   -0.0000782    0.0010630   -0.0012568
c     4.2399764   -0.2045072    2.0061024  0.00   -0.0257437   -0.0195067    0.0050292