    27
 Energy =       0.2927072702
c    -1.4235396    2.6054793   -0.0667700  0.00   -0.0462464    0.0383090    0.0027859
c    -1.3072796    1.2134697   -0.1072300  0.00   -0.0852054   -0.0325743    0.0020449
c    -0.0178900    0.6711998   -0.1697000  0.00   -0.0884709   -0.1879261   -0.0012300
c    -0.2940599    3.4190890   -0.0891300  0.00   -0.0230400    0.0691186    0.0029680
c     0.9872197    2.8590292   -0.1560400  0.00    0.0104998    0.0643601    0.0010588
c     1.1340797    1.4562096   -0.1970299  0.00    0.0533940    0.0515580    0.0020889
n     0.3879399   -0.6395298   -0.2140799  0.00    0.1433357    0.1089413   -0.0028622
c     2.2666594    0.5727398   -0.2659299  0.00    0.1401782   -0.0569814   -0.0204389
c     1.7555995   -0.7123598   -0.2706899  0.00   -0.0951398   -0.0974777    0.0040613
h    -0.2400399   -1.4313496   -0.2047299  0.00    0.0367004    0.0477479   -0.0006985
c     3.7030089    1.0223397   -0.3320099  0.00    0.0560439    0.0271150    0.0213331
c     4.7465686   -0.0024900    0.1378100  0.00   -0.1122517    0.0881941    0.0168698
h     3.7978489    1.9290294    0.2803699  0.00    0.0208472   -0.0129413   -0.0141734
h     3.9233889    1.3348996   -1.3618196  0.00   -0.0022111   -0.0031832    0.0137716
c     6.0911583    0.7171698    0.3515799  0.00    0.3595546   -0.1344271    0.0727198
n     4.9813086   -1.1161597   -0.8485798  0.00    0.0647704   -0.0525249   -0.0562785
h     4.4627987   -0.4486599    1.0982597  0.00    0.0042342   -0.0023195   -0.0208474
h     4.3153288   -0.9829797   -1.6165895  0.00    0.0187273    0.0157327    0.0337988
h     5.8957383   -0.9560407   -1.2856796  0.00   -0.0315870    0.0232942    0.0347200
h    -2.4108593    3.0588691   -0.0157800  0.00   -0.0008294    0.0002479    0.0000094
h    -2.1896094    0.5822398   -0.0890100  0.00   -0.0036389    0.0037410    0.0000350
h    -0.4052699    4.5000487   -0.0535400  0.00    0.0008475    0.0001654    0.0002394
h     1.8590495    3.5066790   -0.1715100  0.00   -0.0009195    0.0025819    0.0006770
h     2.2327294   -1.6813195   -0.3062999  0.00   -0.0414259   -0.0101786    0.0017887
o     7.1078880    0.2061599    0.7909508  0.00   -0.2459789    0.1214708   -0.0987636
o     6.0134283    2.0241194   -0.0177607  0.00   -0.1011000   -0.0498072   -0.0080841
h     6.6727281    2.1222694   -0.7528048  0.00   -0.0310883   -0.0222366    0.0124062
    27
 Energy =       0.2350390376
c    -1.4083615    2.4907075   -0.0370045  0.00   -0.0242352    0.0208974    0.0014782
c    -1.2716794    1.1159975   -0.0786130  0.00   -0.0463741   -0.0174405    0.0011121
c     0.0021424    0.5968936   -0.1375047  0.00   -0.0486061   -0.1027132    0.0003260
c    -0.2980232    3.3108968   -0.0594482  0.00   -0.0122687    0.0373892    0.0016350
c     0.9723110    2.7698072   -0.1252130  0.00    0.0069738    0.0347103    0.0005345
c     1.1142770    1.3922684   -0.1619642  0.00    0.0270051    0.0300019    0.0012006
n     0.4024559   -0.7388214   -0.2039342  0.00    0.0740037    0.0584891   -0.0028277
c     2.2432291    0.5779037   -0.2313940  0.00    0.0774938   -0.0302618   -0.0109075
c     1.8020169   -0.7146379   -0.2484068  0.00   -0.0535284   -0.0486389    0.0032600
h    -0.2011683   -1.5703133   -0.2108845  0.00    0.0197757    0.0243040   -0.0008215
c     3.6656629    1.0828670   -0.3313721  0.00    0.0350087    0.0167827    0.0119176
c     4.7604958    0.0876948    0.1011594  0.00   -0.0603837    0.0476679    0.0091475
h     3.7457483    1.9839597    0.3045412  0.00    0.0127028   -0.0069014   -0.0079006
h     3.8525625    1.4225263   -1.3663014  0.00   -0.0007231   -0.0011410    0.0069815
c     6.0665804    0.8492421    0.3247317  0.00    0.1984696   -0.0764679    0.0338003
n     4.9789807   -1.0001582   -0.9003475  0.00    0.0373855   -0.0299009   -0.0275024
h     4.5060745   -0.3723296    1.0733479  0.00    0.0022740   -0.0015147   -0.0108730
h     4.2773451   -0.9176920   -1.6587829  0.00    0.0077289    0.0086871    0.0169711
h     5.8925833   -0.8491508   -1.3667838  0.00   -0.0166942    0.0143047    0.0194098
h    -2.4017550    2.9305928    0.0121337  0.00   -0.0005345    0.0002323    0.0000123
h    -2.1415223    0.4675965   -0.0664798  0.00   -0.0021766    0.0019704    0.0000002
h    -0.4220555    4.3907371   -0.0263171  0.00    0.0004996    0.0001733    0.0001331
h     1.8406029    3.4218047   -0.1451874  0.00   -0.0000831    0.0009657    0.0003978
h     2.3851420   -1.6299064   -0.3020513  0.00   -0.0183576   -0.0094511    0.0004662
o     7.1369750    0.3013729    0.8031881  0.00   -0.1354762    0.0672017   -0.0541326
o     6.0250614    2.1828725    0.0025845  0.00   -0.0855756   -0.0240153    0.0402501
h     6.5202398    2.2474203   -0.8974393  0.00    0.0056958   -0.0153312   -0.0340687
    27
 Energy =       0.2260045397
c    -1.4419657    2.3829321   -0.0500257  0.00   -0.0206446    0.0177649    0.0012754
c    -1.2753624    1.0141817   -0.1046909  0.00   -0.0392723   -0.0148715    0.0010253
c     0.0060815    0.5235448   -0.1560609  0.00   -0.0411926   -0.0860813    0.0006554
c    -0.3502867    3.2252866   -0.0536414  0.00   -0.0101561    0.0318410    0.0013579
c     0.9283404    2.7118614   -0.1109084  0.00    0.0063595    0.0293500    0.0003865
c     1.0954690    1.3418315   -0.1590000  0.00    0.0225659    0.0256369    0.0009821
n     0.4346724   -0.8085430   -0.2444724  0.00    0.0611063    0.0487646   -0.0028344
c     2.2397773    0.5640560   -0.2211236  0.00    0.0651244   -0.0255032   -0.0087335
c     1.8399120   -0.7376862   -0.2584391  0.00   -0.0444138   -0.0407881    0.0030312
h    -0.1463791   -1.6598514   -0.2775427  0.00    0.0159785    0.0192766   -0.0008397
c     3.6471636    1.1172938   -0.2926825  0.00    0.0291726    0.0140273    0.0104101
c     4.7821041    0.1440795    0.0902163  0.00   -0.0510624    0.0404331    0.0081234
h     3.6963304    1.9866101    0.3945339  0.00    0.0103311   -0.0040443   -0.0053592
h     3.8248094    1.5210066   -1.3097480  0.00    0.0001433   -0.0000085    0.0039882
c     6.0586995    0.9475983    0.3354451  0.00    0.1665827   -0.0652253    0.0270026
n     5.0224491   -0.8971630   -0.9543879  0.00    0.0314985   -0.0274751   -0.0238159
h     4.5513309   -0.3615157    1.0488832  0.00    0.0013862   -0.0020636   -0.0080317
h     4.3179731   -0.8044370   -1.7116999  0.00    0.0066535    0.0070935    0.0138385
h     5.9340149   -0.7096270   -1.4180614  0.00   -0.0130650    0.0122035    0.0155109
h    -2.4451744    2.8011995   -0.0071724  0.00   -0.0007489    0.0003128    0.0000256
h    -2.1307447    0.3462426   -0.1108449  0.00   -0.0022090    0.0013666    0.0000003
h    -0.4971115    4.3022449   -0.0117948  0.00    0.0004158    0.0004684    0.0001212
h     1.7837579    3.3815287   -0.1158771  0.00    0.0002453    0.0010128    0.0003269
h     2.4616503   -1.6278780   -0.3116895  0.00   -0.0148439   -0.0087373    0.0004176
o     7.1494114    0.4284686    0.8414236  0.00   -0.1127066    0.0568352   -0.0445372
o     5.9879212    2.2907127    0.0393944  0.00   -0.0777540   -0.0191270    0.0435109
h     6.5710777    2.4061734   -0.8037762  0.00    0.0105055   -0.0124618   -0.0378384
    27
 Energy =       0.2263289035
c    -1.4725148    2.2877889   -0.0659648  0.00   -0.0210000    0.0174565    0.0012855
c    -1.2788875    0.9236365   -0.1568672  0.00   -0.0389189   -0.0154963    0.0010012
c     0.0129007    0.4585661   -0.1917570  0.00   -0.0403090   -0.0827786    0.0010161
c    -0.3969534    3.1509693   -0.0207996  0.00   -0.0094377    0.0321021    0.0013856
c     0.8919103    2.6633002   -0.0607198  0.00    0.0068210    0.0295476    0.0004051
c     1.0851614    1.2984000   -0.1426542  0.00    0.0224848    0.0258111    0.0009810
n     0.4725837   -0.8619079   -0.3387199  0.00    0.0579062    0.0460005   -0.0032553
c     2.2461976    0.5485065   -0.1966768  0.00    0.0640337   -0.0249841   -0.0076953
c     1.8779890   -0.7598056   -0.2838412  0.00   -0.0415243   -0.0397410    0.0032230
h    -0.0870820   -1.7258056   -0.4349900  0.00    0.0135996    0.0157701   -0.0011949
c     3.6383038    1.1448163   -0.2109769  0.00    0.0276737    0.0130922    0.0109653
c     4.8098441    0.1834680    0.0897250  0.00   -0.0501607    0.0406001    0.0096096
h     3.6604883    1.9553984    0.5532871  0.00    0.0093334   -0.0002158   -0.0019920
h     3.8048450    1.6437184   -1.1928343  0.00    0.0014599    0.0024658   -0.0002893
c     6.0608357    1.0217981    0.3543128  0.00    0.1633365   -0.0642798    0.0263043
n     5.0615854   -0.7895868   -1.0194561  0.00    0.0321191   -0.0308298   -0.0244351
h     4.6149406   -0.3858785    1.0238432  0.00    0.0006437   -0.0036366   -0.0055457
h     4.3570998   -0.6516092   -1.7720355  0.00    0.0059870    0.0065283    0.0115234
h     5.9700925   -0.5594642   -1.4730655  0.00   -0.0116236    0.0120794    0.0138762
h    -2.4846722    2.6859418   -0.0366442  0.00   -0.0011238    0.0003202    0.0000292
h    -2.1215541    0.2399502   -0.2095209  0.00   -0.0031425    0.0004055   -0.0000660
h    -0.5650971    4.2239990    0.0470936  0.00    0.0004999    0.0010936    0.0001578
h     1.7353800    3.3487428   -0.0258599  0.00    0.0010312    0.0016900    0.0003527
h     2.5241988   -1.6323398   -0.3422137  0.00   -0.0143392   -0.0090819    0.0004057
o     7.1667400    0.5366967    0.8662073  0.00   -0.1096084    0.0554872   -0.0432128
o     5.9471495    2.3691151    0.0785295  0.00   -0.0765063   -0.0173825    0.0429228
h     6.5144368    2.5117369   -0.7711440  0.00    0.0107645   -0.0120236   -0.0377578
    27
 Energy =       0.2191652306
c    -1.4778861    2.2649519   -0.0853523  0.00   -0.0184123    0.0150282    0.0011199
c    -1.2760601    0.9020002   -0.1374834  0.00   -0.0334732   -0.0141326    0.0007061
c     0.0149421    0.4456806   -0.1844857  0.00   -0.0341265   -0.0683792    0.0003776
c    -0.4085391    3.1351954   -0.0864139  0.00   -0.0075175    0.0281130    0.0012916
c     0.8804677    2.6553783   -0.1389336  0.00    0.0061448    0.0259782    0.0004980
c     1.0791443    1.2920812   -0.1844905  0.00    0.0196336    0.0227648    0.0009103
n     0.4751406   -0.8844191   -0.2603753  0.00    0.0478230    0.0369735   -0.0021827
c     2.2410153    0.5530651   -0.2378857  0.00    0.0554397   -0.0211235   -0.0061682
c     1.8847064   -0.7598557   -0.2746905  0.00   -0.0335372   -0.0331670    0.0022869
h    -0.0825347   -1.7592106   -0.2878092  0.00    0.0095603    0.0102085   -0.0009641
c     3.6315862    1.1551420   -0.2981693  0.00    0.0211471    0.0108532    0.0090992
c     4.7991545    0.2210539    0.1107351  0.00   -0.0413699    0.0361409    0.0116611
h     3.6357585    2.0330553    0.3945339  0.00    0.0071392    0.0037268    0.0013430
h     3.8132153    1.5672165   -1.3207544  0.00    0.0017695    0.0041278   -0.0043168
c     6.0387328    1.0743526    0.3801057  0.00    0.1403342   -0.0548554    0.0223191
n     5.0934992   -0.8151668   -0.9317716  0.00    0.0329791   -0.0309383   -0.0200109
h     4.5674473   -0.2917833    1.0717544  0.00    0.0003803   -0.0040970   -0.0023937
h     4.3876814   -0.7684787   -1.7003995  0.00    0.0009887    0.0050283    0.0042422
h     6.0008224   -0.5897884   -1.3927244  0.00   -0.0099194    0.0103623    0.0116429
h    -2.4921221    2.6567302   -0.0457950  0.00   -0.0010892    0.0002082    0.0000214
h    -2.1141636    0.2095276   -0.1436457  0.00   -0.0035153   -0.0005110   -0.0000768
h    -0.5825070    4.2089651   -0.0462769  0.00    0.0005505    0.0013895    0.0001568
h     1.7191541    3.3480800   -0.1421699  0.00    0.0015631    0.0019572    0.0003372
h     2.5432887   -1.6237188   -0.3216783  0.00   -0.0123104   -0.0080869    0.0002242
o     7.1475942    0.5915198    0.9161338  0.00   -0.0937318    0.0475066   -0.0367275
o     5.9335265    2.4218817    0.0970231  0.00   -0.0725281   -0.0161041    0.0456710
h     6.5928568    2.5866958   -0.6827240  0.00    0.0160776   -0.0089723   -0.0410678
    27
 Energy =       0.2155767825
c    -1.5006425    2.1752521   -0.1235728  0.00   -0.0163871    0.0133511    0.0010007
c    -1.2719815    0.8175586   -0.1616556  0.00   -0.0295296   -0.0126141    0.0005883
c     0.0255224    0.3862547   -0.2073684  0.00   -0.0300596   -0.0597248    0.0002122
c    -0.4492691    3.0650219   -0.1366920  0.00   -0.0065241    0.0249715    0.0011699
c     0.8467810    2.6097890   -0.1879173  0.00    0.0056362    0.0229808    0.0004726
c     1.0702118    1.2518679   -0.2190411  0.00    0.0172260    0.0200866    0.0008127
n     0.5103041   -0.9388762   -0.2605030  0.00    0.0415870    0.0319110   -0.0017884
c     2.2444611    0.5396553   -0.2647814  0.00    0.0487100   -0.0184395   -0.0055528
c     1.9192330   -0.7797208   -0.2859956  0.00   -0.0291975   -0.0291429    0.0018821
h    -0.0294550   -1.8268410   -0.2707337  0.00    0.0080782    0.0083618   -0.0008281
c     3.6221122    1.1720451   -0.3326662  0.00    0.0167545    0.0094175    0.0069794
c     4.8085997    0.2897052    0.1418246  0.00   -0.0359227    0.0318282    0.0123236
h     3.5874283    2.0784843    0.3222203  0.00    0.0056540    0.0047595    0.0023449
h     3.8114977    1.5450921   -1.3686222  0.00    0.0013534    0.0040062   -0.0046247
c     6.0119427    1.1900172    0.4327725  0.00    0.1231839   -0.0483349    0.0192937
n     5.1656444   -0.7629919   -0.8644178  0.00    0.0314961   -0.0301355   -0.0166793
h     4.5603762   -0.2041674    1.1089232  0.00    0.0004550   -0.0035823   -0.0016713
h     4.4610851   -0.7892237   -1.6385482  0.00   -0.0021284    0.0040707    0.0006035
h     6.0649069   -0.5040946   -1.3272634  0.00   -0.0076528    0.0094903    0.0099949
h    -2.5222984    2.5476389   -0.0848447  0.00   -0.0011678    0.0002722    0.0000265
h    -2.0959047    0.1083671   -0.1560754  0.00   -0.0033185   -0.0006629   -0.0000697
h    -0.6438632    4.1357316   -0.1074347  0.00    0.0004574    0.0015084    0.0001476
h     1.6708708    3.3195235   -0.2014450  0.00    0.0016884    0.0018865    0.0003120
h     2.6018878   -1.6253557   -0.3225687  0.00   -0.0104844   -0.0074896    0.0001479
o     7.1361798    0.7447185    0.9911086  0.00   -0.0808505    0.0417298   -0.0313489
o     5.8698651    2.5392514    0.1613674  0.00   -0.0661560   -0.0130276    0.0436732
h     6.5704262    2.7454489   -0.5698122  0.00    0.0170990   -0.0074781   -0.0394226
    27
 Energy =       0.2149849272
c    -1.5213323    2.0873941   -0.1549851  0.00   -0.0157812    0.0127675    0.0009598
c    -1.2668462    0.7344547   -0.1841663  0.00   -0.0281673   -0.0121494    0.0005507
c     0.0380499    0.3274127   -0.2280664  0.00   -0.0285754   -0.0565330    0.0001775
c    -0.4873372    2.9964669   -0.1751393  0.00   -0.0061948    0.0239503    0.0011209
c     0.8162722    2.5655406   -0.2246690  0.00    0.0055358    0.0219629    0.0004525
c     1.0651109    1.2122405   -0.2461853  0.00    0.0163628    0.0190942    0.0007590
n     0.5485296   -0.9900813   -0.2685601  0.00    0.0392085    0.0299231   -0.0016696
c     2.2525141    0.5241326   -0.2860980  0.00    0.0462213   -0.0174476   -0.0053929
c     1.9550494   -0.8009565   -0.2979572  0.00   -0.0274756   -0.0277680    0.0017303
h     0.0268123   -1.8895619   -0.2700844  0.00    0.0074452    0.0075287   -0.0007800
c     3.6169991    1.1854675   -0.3587347  0.00    0.0143136    0.0088448    0.0057119
c     4.8201301    0.3549482    0.1718020  0.00   -0.0340637    0.0302437    0.0134530
h     3.5445060    2.1133559    0.2625923  0.00    0.0048403    0.0057616    0.0031276
h     3.8139580    1.5265681   -1.4042923  0.00    0.0010838    0.0040326   -0.0049725
c     5.9851412    1.3030781    0.4784817  0.00    0.1167303   -0.0461551    0.0183423
n     5.2387579   -0.7071120   -0.8017995  0.00    0.0317608   -0.0312394   -0.0150757
h     4.5595690   -0.1253792    1.1425684  0.00    0.0005393   -0.0033618   -0.0013229
h     4.5387669   -0.7982861   -1.5774651  0.00   -0.0044188    0.0033757   -0.0018699
h     6.1263031   -0.4113800   -1.2679031  0.00   -0.0060608    0.0095039    0.0091463
h    -2.5499515    2.4406861   -0.1175710  0.00   -0.0013130    0.0003355    0.0000326
h    -2.0771045    0.0096866   -0.1722254  0.00   -0.0033240   -0.0007950   -0.0000645
h    -0.7021450    4.0636405   -0.1530238  0.00    0.0003948    0.0016756    0.0001450
h     1.6254975    3.2920141   -0.2444411  0.00    0.0018703    0.0019504    0.0003017
h     2.6569528   -1.6309707   -0.3273178  0.00   -0.0097059   -0.0073610    0.0001245
o     7.1255488    0.9034716    1.0483155  0.00   -0.0751531    0.0393293   -0.0288845
o     5.7943674    2.6508397    0.2177405  0.00   -0.0632011   -0.0105228    0.0421745
h     6.5018020    2.8924808   -0.4945583  0.00    0.0171279   -0.0069464   -0.0382777
    27
 Energy =       0.2073539082
c    -1.5320133    2.0599893   -0.1858005  0.00   -0.0122291    0.0098817    0.0007551
c    -1.2620303    0.7129477   -0.1986580  0.00   -0.0217290   -0.0095786    0.0004013
c     0.0432911    0.3208829   -0.2355540  0.00   -0.0220951   -0.0434804   -0.0000250
c    -0.5090525    2.9781480   -0.2140856  0.00   -0.0047831    0.0184846    0.0008974
c     0.7969050    2.5607721   -0.2553465  0.00    0.0043399    0.0169540    0.0003696
c     1.0568893    1.2136985   -0.2609896  0.00    0.0125761    0.0147299    0.0005899
n     0.5619457   -0.9956670   -0.2526076  0.00    0.0301821    0.0226688   -0.0011900
c     2.2468077    0.5433676   -0.2869597  0.00    0.0357880   -0.0133635   -0.0042866
c     1.9684520   -0.7840009   -0.2827680  0.00   -0.0210237   -0.0213717    0.0012335
h     0.0481794   -1.9014115   -0.2415873  0.00    0.0057467    0.0055122   -0.0005766
c     3.6085452    1.2131769   -0.3547807  0.00    0.0111721    0.0071287    0.0043466
c     4.8046611    0.3685454    0.1656650  0.00   -0.0269380    0.0232633    0.0106456
h     3.5448608    2.1390238    0.2692916  0.00    0.0040561    0.0047104    0.0023059
h     3.8066191    1.5561948   -1.3982218  0.00    0.0008739    0.0031011   -0.0038775
c     5.9790061    1.2914619    0.5008459  0.00    0.0884043   -0.0353750    0.0120727
n     5.2113934   -0.6802184   -0.8219769  0.00    0.0244991   -0.0242949   -0.0115588
h     4.5350980   -0.1241231    1.1280843  0.00    0.0003963   -0.0026032   -0.0008741
h     4.5119891   -0.7613594   -1.5986929  0.00   -0.0033455    0.0025636   -0.0014232
h     6.1034905   -0.3934499   -1.2870829  0.00   -0.0045538    0.0074865    0.0070405
h    -2.5644948    2.4018824   -0.1544948  0.00   -0.0011261    0.0001740    0.0000073
h    -2.0628114   -0.0214865   -0.1785086  0.00   -0.0026208   -0.0008338   -0.0000572
h    -0.7355400    4.0428499   -0.2049950  0.00    0.0002088    0.0013532    0.0000809
h     1.5996210    3.2936626   -0.2811982  0.00    0.0014407    0.0014950    0.0001851
h     2.6872338   -1.6002146   -0.2950775  0.00   -0.0071095   -0.0059060    0.0000776
o     7.0908958    0.8470495    1.1241564  0.00   -0.0556141    0.0288078   -0.0200187
o     5.8454247    2.6449412    0.2289418  0.00   -0.0657657   -0.0117148    0.0453527
h     6.6605551    2.9034887   -0.3613418  0.00    0.0292497    0.0002072   -0.0424738
    27
 Energy =       0.2054648806
c    -1.5153989    2.1380300   -0.1852717  0.00   -0.0117194    0.0093233    0.0007151
c    -1.2671616    0.7874250   -0.2039184  0.00   -0.0205802   -0.0091707    0.0003842
c     0.0309188    0.3746251   -0.2379561  0.00   -0.0207978   -0.0408478   -0.0000020
c    -0.4774513    3.0392706   -0.2047681  0.00   -0.0045350    0.0175964    0.0008398
c     0.8216271    2.6006508   -0.2424708  0.00    0.0042070    0.0161001    0.0003358
c     1.0585641    1.2502007   -0.2544891  0.00    0.0118841    0.0138834    0.0005321
n     0.5253181   -0.9510762   -0.2617954  0.00    0.0282789    0.0211192   -0.0011346
c     2.2360832    0.5608101   -0.2790213  0.00    0.0336348   -0.0126120   -0.0041381
c     1.9359097   -0.7620084   -0.2836466  0.00   -0.0195650   -0.0202651    0.0011521
h    -0.0052049   -1.8477027   -0.2592467  0.00    0.0052148    0.0048780   -0.0005434
c     3.6112089    1.2047013   -0.3330111  0.00    0.0095824    0.0070152    0.0035212
c     4.7876010    0.3109640    0.1520248  0.00   -0.0255244    0.0216402    0.0109222
h     3.5769809    2.1145972    0.3183713  0.00    0.0038209    0.0052916    0.0027104
h     3.8114306    1.5723057   -1.3677944  0.00    0.0006656    0.0031122   -0.0039895
c     5.9952431    1.1853302    0.4983262  0.00    0.0823821   -0.0335354    0.0110807
n     5.1484660   -0.7288392   -0.8629932  0.00    0.0235533   -0.0252053   -0.0090929
h     4.5135101   -0.1950805    1.1064525  0.00    0.0005056   -0.0025989   -0.0006973
h     4.4551398   -0.7477814   -1.6519247  0.00   -0.0055119    0.0022341   -0.0036633
h     6.0643588   -0.4824845   -1.3074727  0.00   -0.0023070    0.0078498    0.0061040
h    -2.5423965    2.4965202   -0.1564123  0.00   -0.0012172    0.0002111    0.0000114
h    -2.0796488    0.0657104   -0.1910039  0.00   -0.0025967   -0.0009139   -0.0000511
h    -0.6865336    4.1075659   -0.1911186  0.00    0.0001670    0.0014491    0.0000770
h     1.6377752    3.3191616   -0.2605650  0.00    0.0015575    0.0015521    0.0001713
h     2.6422582   -1.5894331   -0.2975314  0.00   -0.0065328   -0.0056618    0.0000696
o     7.0768131    0.6882964    1.1430022  0.00   -0.0503262    0.0258765   -0.0174571
o     5.9246684    2.5430228    0.2214453  0.00   -0.0630518   -0.0091180    0.0430585
h     6.7658424    2.7753697   -0.3409541  0.00    0.0288113    0.0007966   -0.0409163
    27
 Energy =       0.2030129229
c    -1.4973648    2.2108071   -0.2384788  0.00   -0.0104070    0.0079913    0.0006294
c    -1.2687140    0.8582862   -0.2658730  0.00   -0.0179688   -0.0081070    0.0003667
c     0.0216738    0.4269345   -0.2885008  0.00   -0.0179916   -0.0352507    0.0000905
c    -0.4462088    3.0957863   -0.2379622  0.00   -0.0039193    0.0154374    0.0007133
c     0.8458854    2.6379493   -0.2627199  0.00    0.0038142    0.0140835    0.0002592
c     1.0612443    1.2855992   -0.2836482  0.00    0.0103309    0.0120705    0.0004175
n     0.4919495   -0.9076197   -0.3213121  0.00    0.0241242    0.0180848   -0.0010644
c     2.2261862    0.5796593   -0.2966929  0.00    0.0288341   -0.0109565   -0.0036370
c     1.9067385   -0.7380536   -0.3191761  0.00   -0.0165641   -0.0176856    0.0010653
h    -0.0547564   -1.7953455   -0.3372668  0.00    0.0041865    0.0037525   -0.0004920
c     3.6157873    1.1963402   -0.3152947  0.00    0.0079494    0.0067527    0.0027560
c     4.7562556    0.2605032    0.1791384  0.00   -0.0228177    0.0180044    0.0087190
h     3.5941609    2.0981379    0.3469843  0.00    0.0033295    0.0048254    0.0023669
h     3.8450118    1.5718337   -1.3409396  0.00    0.0005896    0.0029418   -0.0038852
c     5.9836268    1.0844097    0.5777214  0.00    0.0690718   -0.0286925    0.0077041
n     5.1046184   -0.7728792   -0.8447375  0.00    0.0173176   -0.0244847   -0.0008517
h     4.4432447   -0.2542251    1.1179291  0.00    0.0002685   -0.0028593    0.0000712
h     4.4562672   -0.7263436   -1.6744376  0.00   -0.0091891    0.0023404   -0.0078683
h     6.0670534   -0.5865574   -1.2269519  0.00    0.0052060    0.0086128    0.0030624
h    -2.5192533    2.5842633   -0.2189365  0.00   -0.0012319    0.0002076    0.0000149
h    -2.0914983    0.1482801   -0.2694117  0.00   -0.0024423   -0.0009712   -0.0000403
h    -0.6393880    4.1669505   -0.2178737  0.00    0.0001356    0.0014151    0.0000664
h     1.6736916    3.3433488   -0.2638798  0.00    0.0015795    0.0015477    0.0001381
h     2.6032608   -1.5740709   -0.3290507  0.00   -0.0054826   -0.0049431    0.0000647
o     7.0131776    0.5295433    1.2752820  0.00   -0.0394614    0.0198326   -0.0118942
o     5.9859045    2.4471716    0.3123063  0.00   -0.0576415   -0.0060735    0.0390807
h     6.8673672    2.6594426   -0.1899600  0.00    0.0283800    0.0021235   -0.0378532
    27
 Energy =       0.2014609475
c    -1.4900974    2.2362793   -0.1898066  0.00   -0.0097802    0.0074085    0.0005867
c    -1.2697668    0.8827689   -0.2062771  0.00   -0.0167719   -0.0076359    0.0003291
c     0.0169861    0.4436039   -0.2355220  0.00   -0.0167579   -0.0327851    0.0000498
c    -0.4337432    3.1144605   -0.2061681  0.00   -0.0035989    0.0144567    0.0006719
c     0.8548811    2.6484130   -0.2381874  0.00    0.0036217    0.0131802    0.0002522
c     1.0609686    1.2953452   -0.2487550  0.00    0.0096710    0.0112685    0.0003824
n     0.4774094   -0.8947935   -0.2565013  0.00    0.0222900    0.0167549   -0.0009536
c     2.2204999    0.5833861   -0.2680602  0.00    0.0267007   -0.0099961   -0.0033848
c     1.8936557   -0.7325894   -0.2735587  0.00   -0.0153923   -0.0165278    0.0009309
h    -0.0757319   -1.7791241   -0.2554646  0.00    0.0037402    0.0032605   -0.0004536
c     3.6132876    1.1921889   -0.3118116  0.00    0.0064338    0.0064174    0.0023437
c     4.7625675    0.2392884    0.1280279  0.00   -0.0212041    0.0170097    0.0089882
h     3.6176295    2.0817016    0.3681678  0.00    0.0029020    0.0049406    0.0026507
h     3.8166507    1.5850496   -1.3367876  0.00    0.0005634    0.0028491   -0.0040975
c     6.0055473    1.0475164    0.5073933  0.00    0.0644898   -0.0279954    0.0078566
n     5.0763450   -0.7705184   -0.9296113  0.00    0.0144761   -0.0255547    0.0052877
h     4.4751268   -0.2949183    1.0646615  0.00    0.0002331   -0.0027588    0.0006316
h     4.3651489   -0.7442238   -1.7107594  0.00   -0.0122804    0.0024927   -0.0112899
h     5.9999071   -0.5369437   -1.3857050  0.00    0.0111748    0.0090013   -0.0008492
h    -2.5094807    2.6161134   -0.1650245  0.00   -0.0011898    0.0001906    0.0000140
h    -2.0966167    0.1776152   -0.1955719  0.00   -0.0023627   -0.0009927   -0.0000387
h    -0.6201192    4.1869224   -0.1941772  0.00    0.0001366    0.0013796    0.0000630
h     1.6877255    3.3478474   -0.2530944  0.00    0.0015887    0.0015144    0.0001316
h     2.5860844   -1.5720433   -0.2847307  0.00   -0.0051359   -0.0046382    0.0000661
o     7.0191841    0.4899344    1.2300695  0.00   -0.0364909    0.0178923   -0.0107802
o     6.0434655    2.3998391    0.1904108  0.00   -0.0551496   -0.0032696    0.0367658
h     6.9484068    2.5870323   -0.2768993  0.00    0.0280925    0.0021374   -0.0361545
    27
 Energy =       0.1985120211
c    -1.4651967    2.3087970   -0.1892398  0.00   -0.0080689    0.0059793    0.0004857
c    -1.2671837    0.9533193   -0.1957088  0.00   -0.0135787   -0.0063063    0.0002625
c     0.0099862    0.4929238   -0.2215815  0.00   -0.0134013   -0.0261523   -0.0000051
c    -0.3947132    3.1679666   -0.2114628  0.00   -0.0029625    0.0118089    0.0005596
c     0.8848293    2.6798184   -0.2396150  0.00    0.0030178    0.0107374    0.0002153
c     1.0663175    1.3251244   -0.2408434  0.00    0.0078166    0.0090390    0.0002941
n     0.4435591   -0.8551258   -0.2299258  0.00    0.0178519    0.0131663   -0.0007283
c     2.2111803    0.5955888   -0.2545107  0.00    0.0213678   -0.0079186   -0.0028275
c     1.8636232   -0.7144673   -0.2492953  0.00   -0.0121247   -0.0134677    0.0006791
h    -0.1270346   -1.7292010   -0.2209476  0.00    0.0027776    0.0022933   -0.0003588
c     3.6160677    1.1775869   -0.2988855  0.00    0.0044292    0.0056884    0.0011747
c     4.7474206    0.1844234    0.0975262  0.00   -0.0179554    0.0142604    0.0080319
h     3.6505911    2.0498927    0.4021878  0.00    0.0025170    0.0047108    0.0026094
h     3.8161567    1.5898342   -1.3162992  0.00    0.0003556    0.0023782   -0.0035256
c     6.0072211    0.9457810    0.5130283  0.00    0.0492870   -0.0229633    0.0050068
n     5.0381875   -0.7799562   -1.0058830  0.00    0.0094387   -0.0247299    0.0102699
h     4.4514431   -0.3857955    1.0108690  0.00    0.0001924   -0.0028203    0.0013187
h     4.2709184   -0.7770585   -1.7340195  0.00   -0.0137986    0.0024806   -0.0125482
h     5.9122538   -0.4819921   -1.5257103  0.00    0.0157504    0.0084295   -0.0059270
h    -2.4780246    2.7058621   -0.1673312  0.00   -0.0011251    0.0002148    0.0000154
h    -2.1051362    0.2618723   -0.1794361  0.00   -0.0020172   -0.0009277   -0.0000305
h    -0.5628629    4.2434602   -0.2070745  0.00    0.0000689    0.0013127    0.0000537
h     1.7303302    3.3637151   -0.2587545  0.00    0.0014535    0.0013547    0.0001018
h     2.5446404   -1.5634777   -0.2530872  0.00   -0.0039533   -0.0038268    0.0000688
o     6.9517891    0.3611505    1.3217388  0.00   -0.0245865    0.0096099   -0.0034231
o     6.1350192    2.2818299    0.1425251  0.00   -0.0562122    0.0025057    0.0321337
h     7.0945392    2.4282792   -0.2220064  0.00    0.0334600    0.0031431   -0.0339070
    27
 Energy =       0.1988015123
c    -1.4505195    2.3445784   -0.2401513  0.00   -0.0078789    0.0057065    0.0004690
c    -1.2645694    0.9877166   -0.2519847  0.00   -0.0131370   -0.0061121    0.0002584
c     0.0083019    0.5160725   -0.2674431  0.00   -0.0129053   -0.0251221    0.0000082
c    -0.3721808    3.1940142   -0.2466622  0.00   -0.0028255    0.0114407    0.0005347
c     0.9031053    2.6944758   -0.2634887  0.00    0.0030067    0.0103585    0.0002003
c     1.0721680    1.3384442   -0.2701563  0.00    0.0075290    0.0087062    0.0002733
n     0.4285976   -0.8361228   -0.2789177  0.00    0.0169069    0.0126115   -0.0007114
c     2.2101270    0.5986074   -0.2725279  0.00    0.0203987   -0.0076063   -0.0027188
c     1.8503217   -0.7082416   -0.2782082  0.00   -0.0114868   -0.0129566    0.0006662
h    -0.1508942   -1.7046380   -0.2829910  0.00    0.0025266    0.0020161   -0.0003463
c     3.6222100    1.1661781   -0.2891680  0.00    0.0041714    0.0055117    0.0009197
c     4.7333032    0.1572379    0.1261295  0.00   -0.0181044    0.0141399    0.0073646
h     3.6527853    2.0359492    0.4149666  0.00    0.0023461    0.0045465    0.0025347
h     3.8462341    1.5791153   -1.3013372  0.00    0.0004041    0.0023890   -0.0036448
c     5.9843010    0.8980925    0.6031947  0.00    0.0451985   -0.0204265    0.0027222