    13
 Energy =       0.1259422521
c    -3.7133889    1.6950595    0.3173519  0.00   -0.0518018   -0.0179516    0.0157553
c    -2.4962693    2.6345192    0.2419999  0.00    0.0841471    0.3267443    0.1005551
c    -4.9565486    2.3924193   -0.2155699  0.00    0.0098600    0.0135899    0.0051973
h    -5.2099685    3.2528291    0.4143399  0.00    0.0018935   -0.0130233   -0.0103591
h    -5.8205883    1.7190695   -0.2147749  0.00    0.0076734    0.0153638    0.0003337
h    -4.8083986    2.7651692   -1.2348596  0.00   -0.0075547    0.0001705    0.0175203
n    -3.4097890    0.4519539   -0.4549189  0.00    0.1098675   -0.0336797   -0.0148036
h    -3.8575589    1.4177196    1.3669296  0.00    0.0066811   -0.0104040   -0.0248601
h    -2.5963493    0.6418898   -1.0496997  0.00    0.0857383    0.1468545    0.1129054
h    -3.0749291   -0.2623099    0.1989099  0.00   -0.0109979    0.0288263   -0.0210399
o    -2.4571893    3.7760389    0.6681628  0.00   -0.0152727   -0.2702650   -0.1114757
o    -1.4389296    2.0221094   -0.3549299  0.00   -0.1794063   -0.1788227   -0.0574951
h    -0.7518168    1.9408394    0.3531709  0.00   -0.0408274   -0.0074030   -0.0122335
    13
 Energy =       0.0857972334
c    -3.6891217    1.7022313    0.3231284  0.00   -0.0235321   -0.0052334    0.0075077
c    -2.4745444    2.6213245    0.2394958  0.00    0.0399327    0.1387242    0.0515492
c    -4.9482302    2.3977563   -0.1858185  0.00    0.0049321    0.0058466    0.0018817
h    -5.2237712    3.2349182    0.4821676  0.00    0.0003187   -0.0050818   -0.0036068
h    -5.7930507    1.6862511   -0.2214912  0.00    0.0029261    0.0053716   -0.0001955
h    -4.7917202    2.8039830   -1.2019353  0.00   -0.0030622    0.0005996    0.0072624
n    -3.4500745    0.4830869   -0.4817675  0.00    0.0499836   -0.0092338   -0.0088668
h    -3.8184577    1.4267929    1.3871339  0.00    0.0034215   -0.0044556   -0.0105940
h    -2.6316844    0.6637810   -1.1016398  0.00    0.0552872    0.0881030    0.0619767
h    -3.1550540   -0.2942167    0.1424239  0.00   -0.0039408    0.0080984   -0.0071953
o    -2.4873994    3.8551386    0.6907109  0.00   -0.0103882   -0.1170742   -0.0500784
o    -1.3765212    2.0841736   -0.3991473  0.00   -0.1201953   -0.0897701   -0.0843116
h    -0.7520947    1.7820863    0.3628512  0.00    0.0043168   -0.0158946    0.0346708
    13
 Energy =       0.0825513587
c    -3.6623590    1.6878165    0.3147635  0.00   -0.0189453   -0.0036237    0.0072810
c    -2.4666787    2.6284288    0.1952221  0.00    0.0369012    0.1243959    0.0460664
c    -4.9681745    2.3826244   -0.0809546  0.00    0.0009750    0.0052008    0.0021556
h    -5.2123933    3.1877955    0.6409207  0.00   -0.0007906   -0.0030261   -0.0016297
h    -5.8028346    1.6569407   -0.0886381  0.00    0.0019026    0.0047699   -0.0000038
h    -4.8876170    2.8332216   -1.0919618  0.00   -0.0027081    0.0019860    0.0030314
n    -3.4616402    0.5041126   -0.5538730  0.00    0.0454539   -0.0078738   -0.0127176
h    -3.7152740    1.3688204    1.3781274  0.00    0.0028447   -0.0046506   -0.0056808
h    -2.6369039    0.6857672   -1.1670789  0.00    0.0502135    0.0800249    0.0560381
h    -3.2016587   -0.3222256    0.0269172  0.00   -0.0022700    0.0035013   -0.0042966
o    -2.4968246    3.8733410    0.6376970  0.00   -0.0092758   -0.1050835   -0.0451233
o    -1.3673141    2.1133921   -0.4612763  0.00   -0.1093998   -0.0805996   -0.0777174
h    -0.7120518    1.8472719    0.2862470  0.00    0.0050988   -0.0150214    0.0325969
    13
 Energy =       0.0791077852
c    -3.6857952    1.6929066    0.3231564  0.00   -0.0162805   -0.0020654    0.0074463
c    -2.4741323    2.6146557    0.2243143  0.00    0.0349440    0.1155502    0.0430116
c    -4.9621494    2.3847246   -0.1730543  0.00   -0.0013684    0.0035076    0.0025395
h    -5.2208296    3.2456136    0.4821676  0.00   -0.0020718    0.0000820    0.0005009
h    -5.8098327    1.6733103   -0.1631168  0.00    0.0016229    0.0040526    0.0002856
h    -4.8309252    2.7616862   -1.2125807  0.00   -0.0021787    0.0033293   -0.0011140
n    -3.4555892    0.4686484   -0.4825056  0.00    0.0423057   -0.0073104   -0.0165796
h    -3.8015000    1.4230747    1.3979993  0.00    0.0022717   -0.0048134   -0.0021451
h    -2.6376290    0.6436701   -1.1082053  0.00    0.0472142    0.0751243    0.0522836
h    -3.1573161   -0.3131002    0.1449526  0.00   -0.0007329   -0.0002772   -0.0014217
o    -2.5036980    3.8737406    0.6405070  0.00   -0.0088835   -0.0974771   -0.0419156
o    -1.3628479    2.0811061   -0.3980979  0.00   -0.1051122   -0.0746584   -0.0779227
h    -0.6894797    1.8972703    0.3605753  0.00    0.0082694   -0.0150441    0.0350314
    13
 Energy =       0.0711691522
c    -3.7026815    1.6886229    0.3354165  0.00   -0.0114216    0.0002466    0.0062971
c    -2.4882762    2.6044133    0.2375250  0.00    0.0281776    0.0855931    0.0345812
c    -4.9619305    2.3556616   -0.2349219  0.00   -0.0022026    0.0017280    0.0022736
h    -5.2322177    3.2583665    0.3605922  0.00   -0.0023619    0.0021945    0.0017127
h    -5.8129403    1.6470878   -0.2024872  0.00    0.0011879    0.0027875    0.0003489
h    -4.8004611    2.6663085   -1.2939482  0.00   -0.0015150    0.0033818   -0.0034355
n    -3.4538840    0.4291168   -0.4061821  0.00    0.0297534   -0.0048743   -0.0179771
h    -3.8583462    1.4697764    1.4186649  0.00    0.0015109   -0.0039361    0.0003950
h    -2.6634196    0.6044014   -1.0719118  0.00    0.0396570    0.0615146    0.0403192
h    -3.0886419   -0.2973394    0.2586117  0.00    0.0018416   -0.0051252    0.0035700
o    -2.5414298    3.8996328    0.5884974  0.00   -0.0079281   -0.0715261   -0.0324484
o    -1.3580349    2.0652349   -0.3487927  0.00   -0.1010028   -0.0594074   -0.0830795
h    -0.6294606    2.0560234    0.3950481  0.00    0.0243035   -0.0125769    0.0474428
    13
 Energy =       0.0682831958
c    -3.7202382    1.7049292    0.3194415  0.00   -0.0106591    0.0009959    0.0057642
c    -2.4757747    2.5852000    0.2498139  0.00    0.0225877    0.0782504    0.0328784
c    -4.9382234    2.3914189   -0.3169525  0.00   -0.0032144    0.0020528    0.0025131
h    -5.2031280    3.3201764    0.2409155  0.00   -0.0027303    0.0028349    0.0019159
h    -5.8116850    1.7089262   -0.2944079  0.00    0.0004861    0.0021908    0.0005519
h    -4.7279279    2.6636351   -1.3792321  0.00   -0.0009751    0.0036129   -0.0048259
n    -3.4856602    0.4149126   -0.3754270  0.00    0.0114678    0.0030143   -0.0182769
h    -3.9253832    1.5245594    1.4032045  0.00    0.0007868   -0.0039219    0.0022430
h    -2.6112272    0.5069255   -0.9632306  0.00    0.0485621    0.0561649    0.0270954
h    -3.2473951   -0.3283317    0.3400921  0.00    0.0052214   -0.0153144    0.0134475
o    -2.5126072    3.8984163    0.5555302  0.00   -0.0076837   -0.0626514   -0.0286969
o    -1.3225599    2.0002096   -0.2496148  0.00   -0.0878223   -0.0561225   -0.0804072
h    -0.6099144    2.0563296    0.5059793  0.00    0.0239729   -0.0111067    0.0457974
    13
 Energy =       0.0622205559
c    -3.7243305    1.7096440    0.3221760  0.00   -0.0068382    0.0022795    0.0042961
c    -2.4815871    2.5911837    0.2367805  0.00    0.0147575    0.0432952    0.0264645
c    -4.9332611    2.3593578   -0.3655726  0.00   -0.0028875    0.0007766    0.0017286
h    -5.2063694    3.3158856    0.1398573  0.00   -0.0022471    0.0033943    0.0021031
h    -5.8054421    1.6749480   -0.3216223  0.00    0.0002534    0.0012072    0.0004154
h    -4.7058224    2.5758260   -1.4369410  0.00   -0.0005486    0.0028901   -0.0048629
n    -3.4866098    0.3885329   -0.3078805  0.00    0.0071465    0.0010638   -0.0145043
h    -3.9492865    1.5827359    1.4100854  0.00    0.0003993   -0.0027865    0.0030697
h    -2.6044363    0.4432937   -0.8878296  0.00    0.0361739    0.0402595    0.0189201
h    -3.2643952   -0.3212027    0.4419307  0.00    0.0040366   -0.0120594    0.0103590
o    -2.5543695    3.9514545    0.3967771  0.00   -0.0089631   -0.0267702   -0.0193966
o    -1.2951650    1.9848671   -0.1597626  0.00   -0.0687842   -0.0482938   -0.0741784
h    -0.5806495    2.1907806    0.5681138  0.00    0.0275013   -0.0052562    0.0455856
    13
 Energy =       0.0635696440
c    -3.7158380    1.7106949    0.3206578  0.00   -0.0063564    0.0018024    0.0042532
c    -2.4844018    2.6067241    0.2152351  0.00    0.0140211    0.0321502    0.0255177
c    -4.9435919    2.3401393   -0.3532019  0.00   -0.0029584    0.0008730    0.0014756
h    -5.2250305    3.2937023    0.1527987  0.00   -0.0021932    0.0032857    0.0020015
h    -5.8046663    1.6422904   -0.2979744  0.00    0.0000789    0.0010335    0.0004210
h    -4.7313871    2.5582283   -1.4273294  0.00   -0.0005000    0.0028169   -0.0047387
n    -3.4691698    0.3910816   -0.3092942  0.00    0.0067525    0.0009036   -0.0138453
h    -3.9242949    1.5845038    1.4118470  0.00    0.0003507   -0.0026879    0.0030494
h    -2.5821642    0.4482438   -0.8826231  0.00    0.0346302    0.0384643    0.0179699
h    -3.2512925   -0.3188368    0.4410103  0.00    0.0038680   -0.0115231    0.0099152
o    -2.5890181    3.9833534    0.2380240  0.00   -0.0106398   -0.0130882   -0.0179853
o    -1.2803141    1.9891726   -0.1082581  0.00   -0.0640897   -0.0492855   -0.0723963
h    -0.5905551    2.2180092    0.6352203  0.00    0.0270360   -0.0047450    0.0443621
    13
 Energy =       0.0600865971
c    -3.7287481    1.7119420    0.3235749  0.00   -0.0059023    0.0017259    0.0043652
c    -2.4836945    2.5911956    0.2355782  0.00    0.0138824    0.0208675    0.0227511
c    -4.9291351    2.3503859   -0.3905166  0.00   -0.0034104    0.0010521    0.0013751
h    -5.2069032    3.3165024    0.0938253  0.00   -0.0023563    0.0034483    0.0020209
h    -5.8031433    1.6677207   -0.3432988  0.00   -0.0001264    0.0008962    0.0004971
h    -4.6888945    2.5465248   -1.4632344  0.00   -0.0003358    0.0028897   -0.0051429
n    -3.4890967    0.3775648   -0.2766241  0.00    0.0066106    0.0004447   -0.0137807
h    -3.9669871    1.6076459    1.4115503  0.00    0.0001371   -0.0026632    0.0035770
h    -2.6054021    0.4178951   -0.8546264  0.00    0.0335624    0.0371549    0.0171852
h    -3.2703992   -0.3158121    0.4887120  0.00    0.0038152   -0.0114467    0.0099011
o    -2.5586011    3.9667294    0.3967771  0.00   -0.0116470   -0.0004676   -0.0153850
o    -1.2914518    1.9797350   -0.1455634  0.00   -0.0622117   -0.0500633   -0.0717693
h    -0.5692677    2.2292774    0.5599577  0.00    0.0279822   -0.0038387    0.0444053
    13
 Energy =       0.0549402556
c    -3.7447576    1.7154348    0.3283303  0.00   -0.0045092    0.0018778    0.0041278
c    -2.4850330    2.5753191    0.2585322  0.00    0.0118639    0.0079737    0.0157140
c    -4.9091837    2.3535635   -0.4434074  0.00   -0.0038857    0.0010852    0.0012859
h    -5.1819936    3.3403169    0.0014763  0.00   -0.0025145    0.0037978    0.0020228
h    -5.7981587    1.6895470   -0.3997260  0.00   -0.0003660    0.0006200    0.0006036
h    -4.6330953    2.5083267   -1.5147147  0.00    0.0000496    0.0027662   -0.0057397
n    -3.5133182    0.3583722   -0.2207344  0.00    0.0057606   -0.0006364   -0.0129044
h    -4.0221281    1.6493350    1.4109640  0.00   -0.0003023   -0.0023591    0.0044459
h    -2.6345695    0.3710393   -0.8051354  0.00    0.0290860    0.0317948    0.0144966
h    -3.2936228   -0.3055006    0.5692665  0.00    0.0034557   -0.0106365    0.0093358
o    -2.5264882    3.9358834    0.5555302  0.00   -0.0107378    0.0111758   -0.0098622
o    -1.3031214    1.9763692   -0.1741954  0.00   -0.0564236   -0.0461145   -0.0652984
h    -0.5462541    2.2793003    0.4699259  0.00    0.0285233   -0.0013447    0.0417724
    13
 Energy =       0.0487608802
c    -3.7638405    1.7200113    0.3401725  0.00   -0.0015241    0.0029264    0.0036984
c    -2.4962649    2.5690439    0.2910469  0.00    0.0072490   -0.0019251    0.0068330
c    -4.8835330    2.3313647   -0.5157664  0.00   -0.0049161    0.0006803    0.0010509
h    -5.1601558    3.3446740   -0.1352204  0.00   -0.0027252    0.0047329    0.0021490
h    -5.7835872    1.6817348   -0.4747221  0.00   -0.0004590    0.0003593    0.0006305
h    -4.5590664    2.4226449   -1.5818540  0.00    0.0006962    0.0023189   -0.0069420
n    -3.5287612    0.3334033   -0.1267995  0.00    0.0039200   -0.0027358   -0.0125698
h    -4.0945995    1.7120410    1.4114729  0.00   -0.0010224   -0.0014944    0.0060691
h    -2.6652920    0.3153286   -0.7311801  0.00    0.0216404    0.0229952    0.0100958
h    -3.2880380   -0.2767001    0.6991702  0.00    0.0030285   -0.0098332    0.0093735
o    -2.5156580    3.9005836    0.7142833  0.00   -0.0084082    0.0175122   -0.0032216
o    -1.3212846    2.0036053   -0.2029942  0.00   -0.0474448   -0.0387263   -0.0534713
h    -0.5316432    2.3895717    0.3485027  0.00    0.0299656    0.0031897    0.0363045
    13
 Energy =       0.0448138698
c    -3.7737608    1.7326362    0.3619331  0.00   -0.0003457    0.0047419    0.0032121
c    -2.4946011    2.5624455    0.2939147  0.00    0.0029628   -0.0020206    0.0042702
c    -4.8646165    2.3130153   -0.5489915  0.00   -0.0041719    0.0002881    0.0009840
h    -5.1336021    3.3486418   -0.2269672  0.00   -0.0024923    0.0050626    0.0020504
h    -5.7746279    1.6779195   -0.4936646  0.00   -0.0004762   -0.0000020    0.0006322
h    -4.5158577    2.3433680   -1.6107756  0.00    0.0009853    0.0018439   -0.0068387
n    -3.5559645    0.3182195   -0.0211876  0.00   -0.0001305   -0.0048741   -0.0117631
h    -4.1282021    1.7883218    1.4247048  0.00   -0.0013873   -0.0009655    0.0064204
h    -2.7258481    0.2618236   -0.6690338  0.00    0.0179030    0.0169233    0.0051984
h    -3.2730133   -0.2332254    0.8327483  0.00    0.0028784   -0.0093262    0.0107360
o    -2.4800105    3.8720733    0.7783122  0.00   -0.0069314    0.0152978   -0.0010942
o    -1.3436886    2.0139578   -0.2746303  0.00   -0.0364955   -0.0319042   -0.0434160
h    -0.5279311    2.4481101    0.1897496  0.00    0.0277013    0.0049351    0.0296081
    13
 Energy =       0.0421644659
c    -3.7781619    1.7401815    0.3821847  0.00    0.0008224    0.0063438    0.0035843
c    -2.5097868    2.5840661    0.2958294  0.00   -0.0016715   -0.0012029    0.0041608
c    -4.8538319    2.2548320   -0.5847635  0.00   -0.0042928   -0.0002417    0.0000267
h    -5.1408412    3.3038279   -0.3263706  0.00   -0.0023340    0.0056380    0.0020353
h    -5.7574573    1.6118436   -0.5155703  0.00   -0.0004428   -0.0001854    0.0003777
h    -4.4806224    2.2298254   -1.6381431  0.00    0.0009177    0.0013253   -0.0066622
n    -3.5388609    0.3079182    0.0865850  0.00   -0.0013342   -0.0067567   -0.0119509
h    -4.1578444    1.8518409    1.4318693  0.00   -0.0012629   -0.0002421    0.0064724
h    -2.7249908    0.2227860   -0.5772492  0.00    0.0133438    0.0118161    0.0032090
h    -3.2289047   -0.1825070    0.9679001  0.00    0.0030018   -0.0088320    0.0110620
o    -2.4892097    3.8695318    0.8387028  0.00   -0.0061299    0.0131998    0.0002555
o    -1.3781532    2.0853399   -0.3558592  0.00   -0.0262063   -0.0263971   -0.0360442
h    -0.5530590    2.5678208    0.0309965  0.00    0.0255886    0.0055349    0.0234736
    13
 Energy =       0.0417700259
c    -3.7684446    1.7491884    0.3998988  0.00    0.0005631    0.0075889    0.0048724
c    -2.5226658    2.6211132    0.2563170  0.00   -0.0037760    0.0010701    0.0054416
c    -4.8637210    2.1869227   -0.5843530  0.00   -0.0042960   -0.0002297   -0.0013097
h    -5.1771966    3.2397055   -0.3739482  0.00   -0.0023000    0.0064202    0.0020202
h    -5.7491884    1.5222754   -0.4798226  0.00   -0.0011059   -0.0009085    0.0002775
h    -4.4948967    2.1224035   -1.6376945  0.00    0.0007105    0.0012079   -0.0067627
n    -3.4987980    0.3072527    0.1786146  0.00   -0.0023414   -0.0088282   -0.0125760
h    -4.1425202    1.9071740    1.4460689  0.00   -0.0010414   -0.0000870    0.0069032
h    -2.6784639    0.1992734   -0.4735501  0.00    0.0116413    0.0089616    0.0024279
h    -3.1917241   -0.1357199    1.0860587  0.00    0.0033313   -0.0089425    0.0117495
o    -2.5012941    3.8996965    0.8134074  0.00   -0.0057481    0.0118566    0.0002909
o    -1.4164360    2.1607771   -0.4671282  0.00   -0.0204580   -0.0237158   -0.0346601
h    -0.5863748    2.6672444   -0.1277567  0.00    0.0248207    0.0056065    0.0213253
    13
 Energy =       0.0403684631
c    -3.7903916    1.7394632    0.3863940  0.00   -0.0003562    0.0070634    0.0067336
c    -2.5086473    2.5733460    0.3311872  0.00   -0.0038357    0.0035989    0.0065943
c    -4.8373081    2.2594940   -0.6148277  0.00   -0.0044318    0.0007725   -0.0032233
h    -5.1161814    3.3160866   -0.3737792  0.00   -0.0023097    0.0071462    0.0018800
h    -5.7522326    1.6259389   -0.5624837  0.00   -0.0027995   -0.0022008    0.0002564
h    -4.4400490    2.2204976   -1.6592080  0.00    0.0006213    0.0013265   -0.0072397
n    -3.5604375    0.3009061    0.1059484  0.00   -0.0061344   -0.0096192   -0.0127611
h    -4.1950806    1.8587516    1.4268985  0.00   -0.0010311   -0.0004273    0.0078539
h    -2.7786162    0.2045502   -0.5963178  0.00    0.0124159    0.0060766   -0.0004603
h    -3.2068014   -0.1702784    0.9834296  0.00    0.0042810   -0.0095432    0.0137040
o    -2.4791860    3.8419206    0.9099899  0.00   -0.0047550    0.0116253    0.0002478
o    -1.3745083    2.0874640   -0.3321157  0.00   -0.0155998   -0.0212925   -0.0337107
h    -0.5522843    2.5891666    0.0309965  0.00    0.0239351    0.0054736    0.0201252
    13
 Energy =       0.0376021338
c    -3.8180606    1.7312794    0.3760617  0.00   -0.0009359    0.0016770    0.0049345
c    -2.5062349    2.5207679    0.4254452  0.00   -0.0004550    0.0020830    0.0038933
c    -4.7898820    2.3137786   -0.6651945  0.00   -0.0034375    0.0021501   -0.0036305
h    -5.0362218    3.3749180   -0.4193329  0.00   -0.0017106    0.0049911    0.0008945
h    -5.7332313    1.7186335   -0.6699866  0.00   -0.0039938   -0.0027489    0.0002885
h    -4.3424091    2.2760014   -1.6876319  0.00    0.0007362    0.0010399   -0.0058703
n    -3.6194125    0.2994023    0.0641707  0.00   -0.0078433   -0.0056217   -0.0078585
h    -4.2783603    1.8290228    1.3943400  0.00   -0.0012114   -0.0008594    0.0067761
h    -2.8853935    0.2099601   -0.6895925  0.00    0.0100309    0.0029861   -0.0036133
h    -3.2112102   -0.1780467    0.9118555  0.00    0.0036709   -0.0067700    0.0111572
o    -2.4595042    3.7570490    1.0687430  0.00   -0.0012884    0.0102787    0.0013199
o    -1.3590479    2.0296293   -0.2030266  0.00   -0.0094320   -0.0133763   -0.0213619
h    -0.5527561    2.5649113    0.1302608  0.00    0.0158699    0.0041704    0.0130704
    13
 Energy =       0.0356633878
c    -3.8390918    1.7276486    0.3770657  0.00    0.0004625   -0.0019430    0.0008876
c    -2.5159059    2.4821608    0.4992347  0.00    0.0008575   -0.0025622   -0.0009071
c    -4.7362704    2.3324799   -0.7102622  0.00   -0.0018488    0.0017774   -0.0012124
h    -4.9611191    3.3987041   -0.4819378  0.00   -0.0007853    0.0015118    0.0000951
h    -5.6951144    1.7686142   -0.7609194  0.00   -0.0023358   -0.0013559    0.0002844
h    -4.2373243    2.2749446   -1.7049837  0.00    0.0007718    0.0003566   -0.0029927
n    -3.6602964    0.2966883    0.0768506  0.00   -0.0039705   -0.0006749   -0.0018262
h    -4.3525457    1.8356691    1.3650890  0.00   -0.0009969   -0.0005355    0.0032259
h    -2.9723873    0.1954076   -0.7145317  0.00    0.0045352    0.0012467   -0.0028709
h    -3.2057552   -0.1640986    0.9042385  0.00    0.0013731   -0.0021533    0.0046031
o    -2.4545787    3.6690728    1.2274961  0.00    0.0000895    0.0079041    0.0030745
o    -1.3747583    2.0199296   -0.1511474  0.00   -0.0073032   -0.0073510   -0.0074150
h    -0.5865768    2.6100861    0.1099197  0.00    0.0091510    0.0037794    0.0050538
    13
 Energy =       0.0351764488
c    -3.8482983    1.7372667    0.3953323  0.00    0.0015488    0.0022011    0.0005404
c    -2.5280954    2.4883308    0.5175605  0.00   -0.0070051   -0.0028107    0.0023948
c    -4.6997443    2.2896098   -0.7525961  0.00   -0.0016911    0.0002335   -0.0005052
h    -4.9284899    3.3663056   -0.5845770  0.00   -0.0006366    0.0017135    0.0003474
h    -5.6562069    1.7276470   -0.8153493  0.00   -0.0001838    0.0000626   -0.0000215
h    -4.1612550    2.1823355   -1.7217428  0.00    0.0008178   -0.0001507   -0.0020525
n    -3.6684154    0.2904284    0.1797144  0.00   -0.0013560   -0.0035356   -0.0009297
h    -4.3948017    1.9019905    1.3566522  0.00   -0.0008891    0.0004290    0.0021963
h    -3.0025941    0.1429385   -0.6210939  0.00    0.0013760    0.0002493   -0.0017554
h    -3.1934073   -0.1183951    1.0210128  0.00    0.0008972   -0.0010954    0.0022860
o    -2.4407721    3.6069861    1.3458757  0.00   -0.0027701    0.0081317    0.0059727
o    -1.4225548    2.1068598   -0.2480300  0.00    0.0066990   -0.0060290   -0.0085804
h    -0.6470888    2.7250034   -0.0366469  0.00    0.0031929    0.0006007    0.0001070
    13
 Energy =       0.0349805135
c    -3.8588850    1.7517611    0.3926837  0.00    0.0002552    0.0003274    0.0001950
c    -2.5362510    2.4965783    0.5246604  0.00    0.0020362   -0.0004259   -0.0012175
c    -4.6706908    2.2629180   -0.8000341  0.00   -0.0006257    0.0000378   -0.0001371
h    -4.8969962    3.3454484   -0.6815771  0.00   -0.0002386    0.0006161    0.0000658
h    -5.6279242    1.7034018   -0.8712526  0.00   -0.0000573    0.0000269    0.0000069
h    -4.1028071    2.1161768   -1.7455548  0.00    0.0003273   -0.0000538   -0.0007067
n    -3.6829853    0.2986058    0.2388201  0.00   -0.0004330   -0.0001943    0.0000236
h    -4.4329228    1.9560402    1.3283281  0.00   -0.0003771    0.0000972    0.0006461
h    -3.0035697    0.1140157   -0.5417498  0.00    0.0005685   -0.0004055   -0.0007206
h    -3.2271001   -0.0790060    1.1036192  0.00    0.0004204   -0.0004488    0.0004936
o    -2.4282649    3.5761258    1.3916254  0.00    0.0006057   -0.0004596   -0.0009548
o    -1.4465042    2.1421600   -0.2590397  0.00   -0.0015445    0.0010623    0.0022681
h    -0.6768228    2.7630812   -0.0444168  0.00   -0.0009373   -0.0001799    0.0000375
    13
 Energy =       0.0349803411
c    -3.8635492    1.7575050    0.3892846  0.00    0.0002196    0.0003351    0.0001962
c    -2.5367835    2.4936227    0.5289705  0.00    0.0017331   -0.0003614   -0.0010316
c    -4.6604573    2.2668321   -0.8142391  0.00   -0.0006207    0.0000835   -0.0001363
h    -4.8801014    3.3516778   -0.7047725  0.00   -0.0002426    0.0006155    0.0000495
h    -5.6210225    1.7137078   -0.8908843  0.00   -0.0000926    0.0000120    0.0000141
h    -4.0847970    2.1100429   -1.7534413  0.00    0.0003492   -0.0000530   -0.0007173
n    -3.6967948    0.3021351    0.2464177  0.00   -0.0004973   -0.0002136    0.0000601
h    -4.4448432    1.9719280    1.3181799  0.00   -0.0004025    0.0000944    0.0006593
h    -3.0114508    0.1076906   -0.5265868  0.00    0.0006147   -0.0003967   -0.0007596
h    -3.2516618   -0.0731365    1.1178528  0.00    0.0004372   -0.0004718    0.0005473
o    -2.4298272    3.5791175    1.3887332  0.00    0.0005030   -0.0003690   -0.0008087
o    -1.4414129    2.1248812   -0.2407702  0.00   -0.0011998    0.0008779    0.0019012
h    -0.6690228    2.7413029   -0.0226325  0.00   -0.0008012   -0.0001529    0.0000259
    13
 Energy =       0.0349855223
c    -3.8695642    1.7652598    0.3845131  0.00    0.0001890    0.0004008    0.0002272
c    -2.5383689    2.4916169    0.5337722  0.00    0.0012403   -0.0003311   -0.0007901
c    -4.6472401    2.2697753   -0.8336568  0.00   -0.0006727    0.0001522   -0.0001480
h    -4.8590380    3.3574700   -0.7371943  0.00   -0.0002667    0.0006655    0.0000290
h    -5.6115445    1.7240581   -0.9168550  0.00   -0.0001423   -0.0000031    0.0000255
h    -4.0614129    2.0991850   -1.7642198  0.00    0.0004133   -0.0000615   -0.0007938
n    -3.7135318    0.3071316    0.2577224  0.00   -0.0006336   -0.0002664    0.0001170
h    -4.4604754    1.9935291    1.3041004  0.00   -0.0004738    0.0001073    0.0007364
h    -3.0205181    0.0994615   -0.5050671  0.00    0.0007371   -0.0004204   -0.0008790
h    -3.2819089   -0.0633756    1.1380516  0.00    0.0004903   -0.0005377    0.0006739
o    -2.4361091    3.5909116    1.3767620  0.00    0.0003037   -0.0000884   -0.0004846
o    -1.4333137    2.0998080   -0.2114315  0.00   -0.0005124    0.0005237    0.0012820
h    -0.6586987    2.7124757    0.0096148  0.00   -0.0006722   -0.0001409    0.0000045
    13
 Energy =       0.0349632357
c    -3.8682029    1.7494202    0.3832651  0.00   -0.0000013    0.0008389    0.0000880
c    -2.5497866    2.4953596    0.5494718  0.00   -0.0003928   -0.0012189   -0.0008488
c    -4.6502515    2.2619418   -0.8286972  0.00   -0.0005306    0.0000808    0.0000208
h    -4.8807905    3.3442769   -0.7142680  0.00   -0.0002933    0.0009249    0.0000654
h    -5.6048604    1.7011315   -0.9249960  0.00   -0.0003174   -0.0001486    0.0000411
h    -4.0580064    2.1175044   -1.7599907  0.00    0.0005675   -0.0000968   -0.0009979
n    -3.6861996    0.2964167    0.2309685  0.00   -0.0009246   -0.0009409    0.0003729
h    -4.4663468    1.9510736    1.3047636  0.00   -0.0006497    0.0001571    0.0009551
h    -2.9862119    0.1146191   -0.5324767  0.00    0.0010382   -0.0005122   -0.0012270
h    -3.2531349   -0.0826939    1.1069073  0.00    0.0004604   -0.0005213    0.0006839
o    -2.4548338    3.5495283    1.4522007  0.00   -0.0003212    0.0025595    0.0021485
o    -1.4496305    2.1662738   -0.2360720  0.00    0.0016753   -0.0012897   -0.0014588
h    -0.6834684    2.7824551    0.0050357  0.00   -0.0003105    0.0001671    0.0001569
    13
 Energy =       0.0349276537
c    -3.8705203    1.7578118    0.3860141  0.00    0.0001846    0.0005714    0.0005479
c    -2.5565767    2.5122155    0.5419021  0.00   -0.0009031   -0.0002477    0.0006210
c    -4.6398465    2.2258279   -0.8512220  0.00   -0.0001490   -0.0001569   -0.0004115
h    -4.8764315    3.3094776   -0.7756016  0.00   -0.0000420    0.0002537    0.0000614
h    -5.5897826    1.6570491   -0.9419338  0.00    0.0001027    0.0000332   -0.0000850
h    -4.0353993    2.0542523   -1.7687795  0.00   -0.0001011   -0.0000196   -0.0000069
n    -3.6815178    0.3021732    0.2837220  0.00   -0.0002433   -0.0003786   -0.0007764
h    -4.4795514    1.9875670    1.2924600  0.00    0.0001322    0.0000689    0.0000566
h    -2.9684310    0.0993842   -0.4608191  0.00   -0.0000229   -0.0000178   -0.0000168
h    -3.2646740   -0.0471677    1.1795905  0.00    0.0002627   -0.0002594    0.0006736
o    -2.4408657    3.5228680    1.4888945  0.00   -0.0005869    0.0007815    0.0008203
o    -1.4791785    2.2278478   -0.2910507  0.00    0.0011784   -0.0006279   -0.0014407
h    -0.7089489    2.8380003   -0.0470646  0.00    0.0001875   -0.0000009   -0.0000434
    13
 Energy =       0.0349243310
c    -3.8724105    1.7605978    0.3848974  0.00    0.0000009   -0.0000215   -0.0000403
c    -2.5581939    2.5146255    0.5417886  0.00    0.0000927   -0.0000159   -0.0000897
c    -4.6354016    2.2203962   -0.8588685  0.00   -0.0000182    0.0000144    0.0000283
h    -4.8711350    3.3045792   -0.7924449  0.00   -0.0000089    0.0000134   -0.0000037
h    -5.5856881    1.6519842   -0.9495228  0.00   -0.0000121   -0.0000030    0.0000088
h    -4.0265869    2.0416728   -1.7722933  0.00    0.0000296   -0.0000052   -0.0000362
n    -3.6839054    0.3045186    0.2938005  0.00   -0.0000090    0.0000038    0.0000622
h    -4.4860174    1.9969668    1.2866221  0.00   -0.0000350    0.0000042    0.0000297
h    -2.9677425    0.0960964   -0.4462709  0.00    0.0000360   -0.0000139   -0.0000342
h    -3.2711931   -0.0385883    1.1934546  0.00   -0.0000016   -0.0000009   -0.0000217
o    -2.4384360    3.5181952    1.4948910  0.00    0.0000561   -0.0000252   -0.0000455
o    -1.4828401    2.2337714   -0.2929246  0.00   -0.0001142    0.0000456    0.0001353
h    -0.7121739    2.8424912   -0.0470171  0.00   -0.0000163    0.0000043    0.0000071
    13
 Energy =       0.0349242944
c    -3.8724670    1.7606768    0.3849331  0.00    0.0000000    0.0000000   -0.0000001
c    -2.5581678    2.5144917    0.5419444  0.00   -0.0000016   -0.0000021   -0.0000007
c    -4.6350736    2.2202692   -0.8591378  0.00    0.0000000    0.0000000   -0.0000000
h    -4.8706945    3.3044779   -0.7930111  0.00   -0.0000000    0.0000000   -0.0000000
h    -5.5853671    1.6519214   -0.9499879  0.00   -0.0000000   -0.0000000   -0.0000000
h    -4.0260404    2.0413064   -1.7723209  0.00    0.0000001   -0.0000000   -0.0000001
n    -3.6841909    0.3045554    0.2942231  0.00   -0.0000002    0.0000000   -0.0000000
h    -4.4862161    1.9973714    1.2864277  0.00   -0.0000001    0.0000000    0.0000001
h    -2.9677913    0.0958650   -0.4455025  0.00    0.0000001   -0.0000000   -0.0000001
h    -3.2719713   -0.0384348    1.1941620  0.00    0.0000001   -0.0000001    0.0000003
o    -2.4375098    3.5160965    1.4970360  0.00   -0.0000006    0.0000037    0.0000042
o    -1.4835956    2.2352641   -0.2944977  0.00    0.0000019   -0.0000021   -0.0000037
h    -0.7126388    2.8434459   -0.0481563  0.00    0.0000002    0.0000004    0.0000003
    13
 Energy =       0.0349242944
c    -3.8724643    1.7606738    0.3849316  0.00    0.0000000    0.0000000   -0.0000000
c    -2.5581689    2.5144968    0.5419385  0.00   -0.0000000   -0.0000000   -0.0000000
c    -4.6350854    2.2202738   -0.8591273  0.00   -0.0000000    0.0000000   -0.0000000
h    -4.8707110    3.3044808   -0.7929876  0.00   -0.0000000    0.0000000   -0.0000000
h    -5.5853773    1.6519225   -0.9499724  0.00   -0.0000000   -0.0000000   -0.0000000
h    -4.0260613    2.0413221   -1.7723184  0.00    0.0000000   -0.0000000   -0.0000000
n    -3.6841815    0.3045541    0.2942065  0.00   -0.0000000   -0.0000000    0.0000000
h    -4.4862058    1.9973565    1.2864343  0.00   -0.0000000    0.0000000    0.0000000
h    -2.9677894    0.0958738   -0.4455291  0.00    0.0000000   -0.0000000   -0.0000000