    27
 Energy =       0.2944694646
c    -1.4235396    2.6054793   -0.0667700  0.00   -0.0462472    0.0383211    0.0027681
c    -1.3072796    1.2134697   -0.1072300  0.00   -0.0851748   -0.0325740    0.0020284
c    -0.0178900    0.6711998   -0.1697000  0.00   -0.0884547   -0.1879140   -0.0011950
c    -0.2940599    3.4190890   -0.0891300  0.00   -0.0230266    0.0691200    0.0029472
c     0.9872197    2.8590292   -0.1560400  0.00    0.0104795    0.0643844    0.0010358
c     1.1340797    1.4562096   -0.1970299  0.00    0.0534303    0.0515310    0.0020982
n     0.3879399   -0.6395298   -0.2140799  0.00    0.1418990    0.1096824   -0.0029258
c     2.2666594    0.5727398   -0.2659299  0.00    0.1405067   -0.0571655   -0.0206349
c     1.7555995   -0.7123598   -0.2706899  0.00   -0.0941123   -0.0976904    0.0035043
h    -0.2400399   -1.4313496   -0.2047299  0.00    0.0365092    0.0476132   -0.0006317
c     3.7030089    1.0223397   -0.3320099  0.00    0.0561214    0.0287416    0.0217087
c     4.7465686   -0.0024900    0.1378100  0.00   -0.1085948    0.0897510    0.0160061
h     3.7978489    1.9290294    0.2803699  0.00    0.0211711   -0.0126789   -0.0138691
h     3.9233889    1.3348996   -1.3618196  0.00   -0.0034706   -0.0015738    0.0143847
c     6.0911583    0.7171698    0.3515799  0.00    0.3589150   -0.1051578    0.1055608
n     4.9813086   -1.1161597   -0.8485798  0.00    0.0340782   -0.0811440   -0.0320191
h     4.4627987   -0.4486599    1.0982597  0.00    0.0075614   -0.0118575   -0.0270962
h     4.8172486   -1.9976894   -0.3514999  0.00   -0.0051709    0.0376836   -0.0116672
h     4.2259388   -1.0808397   -1.5421496  0.00    0.0132627    0.0076336    0.0352125
h    -2.4108593    3.0588691   -0.0157800  0.00   -0.0008255    0.0002414    0.0000226
h    -2.1896094    0.5822398   -0.0890100  0.00   -0.0036245    0.0037213    0.0000500
h    -0.4052699    4.5000487   -0.0535400  0.00    0.0008464    0.0001591    0.0002576
h     1.8590495    3.5066790   -0.1715100  0.00   -0.0009187    0.0025981    0.0006993
h     2.2327294   -1.6813195   -0.3062999  0.00   -0.0368555   -0.0107032    0.0010810
o     7.1078880    0.2061599    0.7909508  0.00   -0.2468592    0.1216406   -0.1020192
o     6.0134283    2.0241194   -0.0177607  0.00   -0.1006223   -0.0548795   -0.0105080
h     6.6727281    2.1222694   -0.7528048  0.00   -0.0308233   -0.0194838    0.0132009
    27
 Energy =       0.2366307696
c    -1.4080893    2.4971634   -0.0444421  0.00   -0.0233362    0.0201024    0.0013997
c    -1.2753390    1.1229936   -0.0865746  0.00   -0.0447378   -0.0168673    0.0010433
c    -0.0041159    0.6004293   -0.1456190  0.00   -0.0466404   -0.0991177    0.0004478
c    -0.2956507    3.3134865   -0.0671833  0.00   -0.0119255    0.0360164    0.0015564
c     0.9724147    2.7686092   -0.1337082  0.00    0.0066903    0.0335572    0.0004934
c     1.1096013    1.3913539   -0.1704965  0.00    0.0260040    0.0289574    0.0011095
n     0.3891422   -0.7373281   -0.2161801  0.00    0.0708649    0.0566431   -0.0028216
c     2.2347862    0.5740061   -0.2427684  0.00    0.0749609   -0.0295648   -0.0107619
c     1.7890399   -0.7165532   -0.2645577  0.00   -0.0512359   -0.0470670    0.0029699
h    -0.2186751   -1.5662454   -0.2231350  0.00    0.0191483    0.0236771   -0.0007964
c     3.6596998    1.0718039   -0.3510273  0.00    0.0345911    0.0170866    0.0116079
c     4.7452687    0.0923884    0.1400223  0.00   -0.0569979    0.0464862    0.0100069
h     3.7350954    2.0054364    0.2369971  0.00    0.0123129   -0.0057366   -0.0077016
h     3.8591223    1.3592931   -1.3993849  0.00   -0.0014960   -0.0005185    0.0072080
c     6.0498041    0.8579893    0.3588442  0.00    0.1913541   -0.0552542    0.0533171
n     4.9976372   -1.0104451   -0.8348372  0.00    0.0223448   -0.0424544   -0.0128194
h     4.4671583   -0.3376603    1.1192262  0.00    0.0040799   -0.0065810   -0.0144371
h     4.8586071   -1.9140482   -0.3478977  0.00   -0.0034513    0.0194723   -0.0058657
h     4.2953793   -0.9889748   -1.6004461  0.00    0.0032080    0.0037165    0.0141220
h    -2.4001322    2.9399606    0.0048413  0.00   -0.0004790    0.0001972    0.0000165
h    -2.1469230    0.4769848   -0.0752824  0.00   -0.0020513    0.0019118   -0.0000010
h    -0.4163537    4.3936830   -0.0341281  0.00    0.0004780    0.0001267    0.0001368
h     1.8423828    3.4181878   -0.1548418  0.00    0.0001273    0.0007976    0.0004144
h     2.3662458   -1.6335740   -0.3265288  0.00   -0.0156955   -0.0095066    0.0002805
o     7.1293145    0.3091588    0.8262289  0.00   -0.1311210    0.0645691   -0.0552479
o     6.0185271    2.1828725    0.0015932  0.00   -0.0823616   -0.0266204    0.0369192
h     6.5240941    2.2196714   -0.8938371  0.00    0.0053648   -0.0140291   -0.0325966
    27
 Energy =       0.2287705353
c    -1.4398127    2.4025150   -0.0589396  0.00   -0.0201310    0.0173124    0.0012215
c    -1.2802511    1.0335868   -0.1122884  0.00   -0.0384086   -0.0145555    0.0009618
c    -0.0020935    0.5364410   -0.1645356  0.00   -0.0400712   -0.0844021    0.0006703
c    -0.3440052    3.2387244   -0.0651385  0.00   -0.0100535    0.0310600    0.0013169
c     0.9316086    2.7185791   -0.1239085  0.00    0.0060999    0.0287661    0.0003744
c     1.0914901    1.3478631   -0.1703274  0.00    0.0220789    0.0250285    0.0009300
n     0.4164809   -0.7981415   -0.2532497  0.00    0.0596141    0.0480530   -0.0027442
c     2.2306669    0.5629509   -0.2353751  0.00    0.0639410   -0.0252652   -0.0088613
c     1.8215349   -0.7358591   -0.2751045  0.00   -0.0432549   -0.0401131    0.0027469
h    -0.1713043   -1.6448284   -0.2827265  0.00    0.0158355    0.0193137   -0.0007904
c     3.6428046    1.1037611   -0.3177533  0.00    0.0294101    0.0143787    0.0101688
c     4.7629862    0.1434193    0.1365024  0.00   -0.0488070    0.0398498    0.0089208
h     3.6875464    2.0123767    0.3157239  0.00    0.0102265   -0.0034800   -0.0056736
h     3.8383511    1.4467902   -1.3529582  0.00   -0.0006699    0.0001636    0.0047549
c     6.0422427    0.9458699    0.3708422  0.00    0.1628753   -0.0488837    0.0443719
n     5.0373361   -0.9218500   -0.8715284  0.00    0.0201396   -0.0360105   -0.0120725
h     4.5032443   -0.3219326    1.1074204  0.00    0.0031088   -0.0060378   -0.0115970
h     4.9121958   -1.8485154   -0.4203606  0.00   -0.0031469    0.0150903   -0.0044708
h     4.3476310   -0.8827234   -1.6499810  0.00    0.0025467    0.0027890    0.0114327
h    -2.4407069    2.8259927   -0.0153308  0.00   -0.0006484    0.0002641    0.0000264
h    -2.1389305    0.3700591   -0.1168640  0.00   -0.0020497    0.0014065   -0.0000001
h    -0.4851413    4.3164198   -0.0246449  0.00    0.0004048    0.0003642    0.0001238
h     1.7898692    3.3842609   -0.1319222  0.00    0.0003604    0.0008444    0.0003492
h     2.4327865   -1.6308741   -0.3360148  0.00   -0.0129152   -0.0087297    0.0002247
o     7.1408789    0.4229960    0.8614984  0.00   -0.1108857    0.0555106   -0.0463557
o     5.9812980    2.2843367    0.0519574  0.00   -0.0757366   -0.0211057    0.0405219
h     6.5693354    2.3784246   -0.7901161  0.00    0.0101370   -0.0116116   -0.0365513
    27
 Energy =       0.2288122281
c    -1.4762956    2.2990581   -0.0825243  0.00   -0.0204094    0.0169505    0.0012274
c    -1.2855247    0.9347851   -0.1653776  0.00   -0.0379984   -0.0149496    0.0009525
c     0.0045517    0.4669367   -0.2012547  0.00   -0.0391847   -0.0814441    0.0009171
c    -0.3991056    3.1596532   -0.0459277  0.00   -0.0094633    0.0311542    0.0013330
c     0.8883375    2.6689903   -0.0871392  0.00    0.0065765    0.0287203    0.0003778
c     1.0784699    1.3035720   -0.1609597  0.00    0.0217538    0.0249959    0.0009168
n     0.4588969   -0.8559352   -0.3352054  0.00    0.0562078    0.0457692   -0.0030466
c     2.2371828    0.5502477   -0.2134434  0.00    0.0624132   -0.0250077   -0.0077155
c     1.8644703   -0.7570197   -0.2928697  0.00   -0.0403399   -0.0390521    0.0028497
h    -0.1045180   -1.7181623   -0.4189153  0.00    0.0137425    0.0162966   -0.0010388
c     3.6327865    1.1400835   -0.2389389  0.00    0.0282023    0.0130708    0.0106677
c     4.7915895    0.1909039    0.1401752  0.00   -0.0484004    0.0403622    0.0105008
h     3.6422512    1.9952241    0.4744770  0.00    0.0091737    0.0006290   -0.0024817
h     3.8211733    1.5796826   -1.2440985  0.00    0.0007676    0.0023011    0.0003754
c     6.0409157    1.0333312    0.4037136  0.00    0.1589091   -0.0489546    0.0428599
n     5.0891334   -0.8030352   -0.9356450  0.00    0.0225077   -0.0349140   -0.0170623
h     4.5619623   -0.3438264    1.0867494  0.00    0.0020816   -0.0073642   -0.0086646
h     5.0011145   -1.7637843   -0.5442281  0.00   -0.0032986    0.0100309   -0.0026235
h     4.3890796   -0.7356440   -1.7040915  0.00    0.0021528    0.0024357    0.0101699
h    -2.4875074    2.6994934   -0.0522946  0.00   -0.0010840    0.0003214    0.0000345
h    -2.1294708    0.2525845   -0.2098766  0.00   -0.0028420    0.0006112   -0.0000440
h    -0.5648735    4.2333167    0.0158105  0.00    0.0004466    0.0009445    0.0001536
h     1.7326872    3.3532580   -0.0597272  0.00    0.0010758    0.0014464    0.0003560
h     2.5041891   -1.6327777   -0.3487034  0.00   -0.0122338   -0.0090589    0.0002358
o     7.1555858    0.5468561    0.9019507  0.00   -0.1072003    0.0540633   -0.0447063
o     5.9308436    2.3804860    0.1216517  0.00   -0.0742999   -0.0182838    0.0403520
h     6.5001168    2.5123647   -0.7284306  0.00    0.0107435   -0.0110744   -0.0368966
    27
 Energy =       0.2226160193
c    -1.4858911    2.2573845   -0.1088131  0.00   -0.0176133    0.0145310    0.0010548
c    -1.2827492    0.8959488   -0.1677287  0.00   -0.0325327   -0.0131047    0.0007186
c     0.0080304    0.4403228   -0.2111219  0.00   -0.0332803   -0.0685895    0.0004318
c    -0.4175276    3.1271122   -0.1009283  0.00   -0.0078386    0.0268739    0.0012024
c     0.8715064    2.6479266   -0.1499902  0.00    0.0058034    0.0247681    0.0004097
c     1.0713312    1.2855191   -0.2010376  0.00    0.0186758    0.0215968    0.0007919
n     0.4681063   -0.8872782   -0.3013865  0.00    0.0468198    0.0381701   -0.0021544
c     2.2333492    0.5467838   -0.2545897  0.00    0.0535399   -0.0216023   -0.0063276
c     1.8766647   -0.7642139   -0.3080098  0.00   -0.0333038   -0.0328139    0.0020439
h    -0.0893844   -1.7597665   -0.3408204  0.00    0.0108365    0.0124828   -0.0008359
c     3.6253397    1.1466711   -0.3108236  0.00    0.0213829    0.0108552    0.0083100
c     4.7832185    0.2363359    0.1747275  0.00   -0.0402477    0.0363183    0.0127548
h     3.6109369    2.0588547    0.3333710  0.00    0.0068208    0.0040241    0.0003554
h     3.8313831    1.5070264   -1.3467096  0.00    0.0009436    0.0033645   -0.0030712
c     6.0177552    1.1012960    0.4344138  0.00    0.1360000   -0.0416880    0.0363005
n     5.1238420   -0.8229380   -0.8267140  0.00    0.0249215   -0.0322912   -0.0172776
h     4.5211946   -0.2359256    1.1486714  0.00    0.0015667   -0.0071215   -0.0047217
h     4.9935144   -1.7604984   -0.3854750  0.00   -0.0030318    0.0051943   -0.0000127
h     4.4808086   -0.7850074   -1.6503801  0.00   -0.0015638    0.0026660    0.0039547
h    -2.5004048    2.6486692   -0.0722584  0.00   -0.0010115    0.0002669    0.0000278
h    -2.1199612    0.2039071   -0.1834635  0.00   -0.0027864    0.0001649   -0.0000511
h    -0.5923868    4.2002916   -0.0567083  0.00    0.0004289    0.0010231    0.0001439
h     1.7085735    3.3415347   -0.1472539  0.00    0.0013488    0.0014238    0.0003300
h     2.5312561   -1.6281572   -0.3663379  0.00   -0.0103956   -0.0078999    0.0002071
o     7.1417416    0.6280969    0.9540112  0.00   -0.0912144    0.0462432   -0.0378642
o     5.9029784    2.4489518    0.1492820  0.00   -0.0707817   -0.0165989    0.0439445
h     6.5648163    2.6117949   -0.6290496  0.00    0.0165126   -0.0082571   -0.0406655
    27
 Energy =       0.2205196987
c    -1.5081834    2.1684666   -0.1529188  0.00   -0.0162090    0.0133079    0.0009718
c    -1.2787504    0.8123184   -0.2132318  0.00   -0.0297109   -0.0120371    0.0006579
c     0.0191921    0.3814001   -0.2527646  0.00   -0.0303078   -0.0622225    0.0004143
c    -0.4571495    3.0575256   -0.1404297  0.00   -0.0071123    0.0246513    0.0011031
c     0.8394955    2.6029620   -0.1855210  0.00    0.0055148    0.0225913    0.0003694
c     1.0644046    1.2456575   -0.2369076  0.00    0.0169829    0.0196607    0.0006776
n     0.5038975   -0.9395255   -0.3450906  0.00    0.0421741    0.0343968   -0.0019701
c     2.2393582    0.5322866   -0.2868051  0.00    0.0486172   -0.0194870   -0.0058876
c     1.9115567   -0.7842130   -0.3488246  0.00   -0.0300455   -0.0298906    0.0017750
h    -0.0356762   -1.8243874   -0.3883633  0.00    0.0096407    0.0109518   -0.0007789
c     3.6198967    1.1604619   -0.3371660  0.00    0.0170588    0.0098003    0.0062534
c     4.7883693    0.3037629    0.2264994  0.00   -0.0362024    0.0333718    0.0144833
h     3.5629619    2.0991985    0.2661337  0.00    0.0052095    0.0053492    0.0015766
h     3.8450634    1.4817572   -1.3821318  0.00    0.0006906    0.0033596   -0.0037875
c     5.9895838    1.2132491    0.5020329  0.00    0.1234167   -0.0386381    0.0328218
n     5.1901426   -0.7841685   -0.7220292  0.00    0.0276636   -0.0314117   -0.0150546
h     4.5026540   -0.1369386    1.2091903  0.00    0.0015244   -0.0065044   -0.0033481
h     5.0143096   -1.7095914   -0.2679108  0.00   -0.0030243    0.0032745    0.0015175
h     4.6161972   -0.7580266   -1.6001060  0.00   -0.0047346    0.0026752   -0.0018854
h    -2.5301871    2.5404213   -0.1193984  0.00   -0.0011342    0.0003277    0.0000332
h    -2.1023488    0.1042027   -0.2332377  0.00   -0.0027149   -0.0000003   -0.0000494
h    -0.6524367    4.1273030   -0.0958897  0.00    0.0003565    0.0011522    0.0001392
h     1.6617047    3.3139258   -0.1802563  0.00    0.0015519    0.0014054    0.0003094
h     2.5877439   -1.6306828   -0.4132844  0.00   -0.0092693   -0.0074855    0.0001989
o     7.1295084    0.7792097    1.0383422  0.00   -0.0814626    0.0419783   -0.0335847
o     5.8325429    2.5635197    0.2373847  0.00   -0.0657277   -0.0134240    0.0424834
h     6.5241913    2.7705480   -0.5024390  0.00    0.0172539   -0.0071529   -0.0394395
    27
 Energy =       0.2211048408
c    -1.5289533    2.0813761   -0.1836974  0.00   -0.0161924    0.0131685    0.0009655
c    -1.2735911    0.7297608   -0.2439721  0.00   -0.0294026   -0.0120124    0.0006433
c     0.0324983    0.3233436   -0.2812922  0.00   -0.0298584   -0.0611441    0.0004182
c    -0.4952002    2.9902593   -0.1695861  0.00   -0.0070400    0.0245040    0.0010968
c     0.8095949    2.5605722   -0.2126700  0.00    0.0056124    0.0223658    0.0003633
c     1.0607778    1.2075376   -0.2631950  0.00    0.0167531    0.0193635    0.0006399
n     0.5439201   -0.9888304   -0.3744317  0.00    0.0412782    0.0335813   -0.0019466
c     2.2496805    0.5175963   -0.3112734  0.00    0.0478545   -0.0190925   -0.0058908
c     1.9488183   -0.8044887   -0.3767696  0.00   -0.0293353   -0.0295353    0.0016908
h     0.0231961   -1.8853134   -0.4193600  0.00    0.0092736    0.0104044   -0.0007831
c     3.6177707    1.1737227   -0.3610452  0.00    0.0150624    0.0094314    0.0050906
c     4.7959643    0.3692871    0.2635093  0.00   -0.0356164    0.0329945    0.0161982
h     3.5226566    2.1323350    0.2053996  0.00    0.0044193    0.0066081    0.0024748
h     3.8563041    1.4626920   -1.4127419  0.00    0.0005064    0.0035001   -0.0043852
c     5.9615457    1.3244246    0.5514984  0.00    0.1211697   -0.0387990    0.0322798
n     5.2548385   -0.7343413   -0.6428583  0.00    0.0292184   -0.0329495   -0.0149220
h     4.4923565   -0.0514512    1.2497922  0.00    0.0015794   -0.0062922   -0.0027659
h     5.0788154   -1.6515654   -0.1719678  0.00   -0.0029343    0.0029081    0.0015984
h     4.7147924   -0.7416094   -1.5438212  0.00   -0.0056529    0.0023765   -0.0039232
h    -2.5580733    2.4338899   -0.1518466  0.00   -0.0013307    0.0003974    0.0000394
h    -2.0836644    0.0060636   -0.2657741  0.00   -0.0028366   -0.0001506   -0.0000529
h    -0.7109859    4.0563080   -0.1255585  0.00    0.0003071    0.0013587    0.0001457
h     1.6163930    3.2889690   -0.2069650  0.00    0.0018087    0.0015368    0.0003050
h     2.6435525   -1.6357403   -0.4448807  0.00   -0.0089834   -0.0076011    0.0001625
o     7.1174184    0.9379628    1.0953765  0.00   -0.0785842    0.0409582   -0.0322017
o     5.7513624    2.6731841    0.3042673  0.00   -0.0647304   -0.0110720    0.0422279
h     6.4362541    2.9146982   -0.4312600  0.00    0.0176544   -0.0068088   -0.0394685
    27
 Energy =       0.2125698165
c    -1.5423833    2.0524231   -0.1965857  0.00   -0.0122542    0.0099302    0.0007372
c    -1.2709251    0.7062695   -0.2282442  0.00   -0.0219501   -0.0094660    0.0003723
c     0.0349723    0.3157540   -0.2650375  0.00   -0.0223590   -0.0448128   -0.0001542
c    -0.5204175    2.9715299   -0.2078297  0.00   -0.0050744    0.0185125    0.0009105
c     0.7862450    2.5560619   -0.2498690  0.00    0.0042858    0.0169764    0.0003800
c     1.0486302    1.2090699   -0.2731654  0.00    0.0125845    0.0146769    0.0005539
n     0.5538312   -0.9989498   -0.3114381  0.00    0.0307427    0.0238887   -0.0010772
c     2.2394092    0.5379331   -0.3100024  0.00    0.0360399   -0.0136548   -0.0044798
c     1.9589721   -0.7883889   -0.3381387  0.00   -0.0214956   -0.0219578    0.0008400
h     0.0409986   -1.9042164   -0.3195628  0.00    0.0064802    0.0065975   -0.0005312
c     3.6039286    1.2029309   -0.3773039  0.00    0.0113245    0.0074359    0.0040213
c     4.7812832    0.3921830    0.2356457  0.00   -0.0275241    0.0243484    0.0126361
h     3.5233879    2.1663316    0.1821585  0.00    0.0036767    0.0052798    0.0018415
h     3.8350909    1.4789838   -1.4331522  0.00    0.0004827    0.0026549   -0.0034075
c     5.9573745    1.3267570    0.5286175  0.00    0.0895461   -0.0292825    0.0224530
n     5.2273819   -0.7018891   -0.6801671  0.00    0.0301097   -0.0120345   -0.0103805
h     4.4758593   -0.0306858    1.2208080  0.00    0.0010918   -0.0044626   -0.0019060
h     5.1812022   -1.6204346   -0.1624996  0.00   -0.0029521   -0.0104764    0.0096936
h     4.6064249   -0.7812497   -1.5309683  0.00   -0.0114018    0.0017563   -0.0119578
h    -2.5753187    2.3929377   -0.1653703  0.00   -0.0011061    0.0001956    0.0000048
h    -2.0709708   -0.0287800   -0.2248776  0.00   -0.0023694   -0.0005921   -0.0000747
h    -0.7482422    4.0356726   -0.1852228  0.00    0.0001609    0.0012441    0.0001011
h     1.5861135    3.2916705   -0.2642546  0.00    0.0014595    0.0013107    0.0002028
h     2.6719211   -1.6062718   -0.3817751  0.00   -0.0059577   -0.0060307   -0.0001795
o     7.0965276    0.8977043    1.1118139  0.00   -0.0573930    0.0294516   -0.0225525
o     5.8017379    2.6801627    0.2604046  0.00   -0.0640600   -0.0114538    0.0443990
h     6.5950072    2.9371333   -0.3591065  0.00    0.0279123   -0.0000355   -0.0424465
    27
 Energy =       0.2097212844
c    -1.5251237    2.1320714   -0.1889001  0.00   -0.0112603    0.0089795    0.0006753
c    -1.2762210    0.7823600   -0.2124955  0.00   -0.0199007   -0.0087056    0.0003353
c     0.0214846    0.3700598   -0.2483680  0.00   -0.0201295   -0.0402127   -0.0001592
c    -0.4878303    3.0331518   -0.2064052  0.00   -0.0046352    0.0168869    0.0008338
c     0.8111620    2.5950689   -0.2469781  0.00    0.0039734    0.0154451    0.0003472
c     1.0490428    1.2448281   -0.2629080  0.00    0.0113864    0.0132387    0.0004822
n     0.5143666   -0.9551406   -0.2827420  0.00    0.0276385    0.0212463   -0.0009545
c     2.2262959    0.5543832   -0.2950393  0.00    0.0324240   -0.0121867   -0.0041298
c     1.9239069   -0.7673372   -0.3119392  0.00   -0.0191762   -0.0199366    0.0006987
h    -0.0164786   -1.8508590   -0.2827950  0.00    0.0056209    0.0056017   -0.0004747
c     3.6038107    1.1930143   -0.3624835  0.00    0.0091442    0.0068266    0.0028847
c     4.7691456    0.3338668    0.2078631  0.00   -0.0250884    0.0217537    0.0126456
h     3.5572352    2.1438880    0.2244128  0.00    0.0031841    0.0057139    0.0022551
h     3.8269260    1.4899223   -1.4143969  0.00    0.0003022    0.0024837   -0.0033575
c     5.9780131    1.2221551    0.5072875  0.00    0.0798233   -0.0269573    0.0199035
n     5.1698403   -0.7466632   -0.7431940  0.00    0.0282969   -0.0120876   -0.0098074
h     4.4682744   -0.1059886    1.1873649  0.00    0.0011235   -0.0040575   -0.0014593
h     5.1363880   -1.6738050   -0.2413535  0.00   -0.0026216   -0.0097032    0.0090184
h     4.5205050   -0.8057467   -1.5741538  0.00   -0.0109096    0.0013942   -0.0119271
h    -2.5521932    2.4901603   -0.1585494  0.00   -0.0011684    0.0002319    0.0000096
h    -2.0881714    0.0605282   -0.2029041  0.00   -0.0022625   -0.0006693   -0.0000663
h    -0.6974325    4.1012139   -0.1896945  0.00    0.0001038    0.0013182    0.0000952
h     1.6253111    3.3151418   -0.2655416  0.00    0.0015283    0.0013283    0.0001736
h     2.6243600   -1.5966561   -0.3447847  0.00   -0.0052806   -0.0056113   -0.0001618
o     7.0914124    0.7389512    1.1100442  0.00   -0.0497453    0.0252907   -0.0190010
o     5.8877585    2.5797319    0.2263712  0.00   -0.0595352   -0.0084725    0.0410163
h     6.7162537    2.8123423   -0.3528407  0.00    0.0271641    0.0008607   -0.0398759
    27
 Energy =       0.2063066834
c    -1.5050854    2.2110980   -0.1986467  0.00   -0.0096363    0.0075464    0.0005832
c    -1.2785615    0.8587938   -0.2097122  0.00   -0.0167402   -0.0074786    0.0002805
c     0.0099790    0.4249534   -0.2417350  0.00   -0.0167887   -0.0333590   -0.0001833
c    -0.4530773    3.0934768   -0.2237909  0.00   -0.0039491    0.0143294    0.0007221
c     0.8374241    2.6328829   -0.2596960  0.00    0.0034164    0.0130862    0.0003055
c     1.0504358    1.2803844   -0.2637826  0.00    0.0095442    0.0110811    0.0003962
n     0.4758167   -0.9109259   -0.2584621  0.00    0.0230936    0.0174022   -0.0007660
c     2.2131808    0.5716209   -0.2865586  0.00    0.0270150   -0.0100544   -0.0035508
c     1.8898130   -0.7447982   -0.2881990  0.00   -0.0158127   -0.0168382    0.0005236
h    -0.0731824   -1.7967432   -0.2483838  0.00    0.0044508    0.0043089   -0.0003868
c     3.6041639    1.1822553   -0.3516738  0.00    0.0069375    0.0060432    0.0017328
c     4.7502215    0.2774306    0.1873077  0.00   -0.0214896    0.0178496    0.0113837
h     3.5887489    2.1221629    0.2549060  0.00    0.0027030    0.0055037    0.0022662
h     3.8265790    1.4932268   -1.3992560  0.00    0.0001543    0.0021459   -0.0029315
c     5.9860627    1.1173319    0.5107270  0.00    0.0651469   -0.0229037    0.0155624
n     5.1165847   -0.7833468   -0.7963500  0.00    0.0245392   -0.0107476   -0.0087268
h     4.4408952   -0.1824413    1.1554702  0.00    0.0010461   -0.0036104   -0.0009162
h     5.1100054   -1.7185280   -0.3101814  0.00   -0.0021803   -0.0086889    0.0081138
h     4.4383140   -0.8334413   -1.6034389  0.00   -0.0097286    0.0011164   -0.0110054
h    -2.5259856    2.5866643   -0.1715527  0.00   -0.0011508    0.0002560    0.0000136
h    -2.1019586    0.1503534   -0.1925476  0.00   -0.0020174   -0.0007059   -0.0000538
h    -0.6444206    4.1650860   -0.2165137  0.00    0.0000407    0.0013252    0.0000841
h     1.6652213    3.3372408   -0.2833820  0.00    0.0014716    0.0012666    0.0001358
h     2.5792884   -1.5840223   -0.3050360  0.00   -0.0042787   -0.0048881   -0.0001162
o     7.0598886    0.5801981    1.1564549  0.00   -0.0387186    0.0189813   -0.0136030
o     5.9704991    2.4759474    0.2149939  0.00   -0.0544994   -0.0052455    0.0368006
h     6.8471912    2.6837826   -0.2960841  0.00    0.0274310    0.0022783   -0.0366642
    27
 Energy =       0.2034757422
c    -1.4815736    2.2892223   -0.2563987  0.00   -0.0079252    0.0060655    0.0004949
c    -1.2779445    0.9348233   -0.2553714  0.00   -0.0134765   -0.0061041    0.0002506
c     0.0010766    0.4791192   -0.2736159  0.00   -0.0133533   -0.0262857   -0.0001553
c    -0.4147010    3.1520956   -0.2789628  0.00   -0.0033024    0.0116279    0.0006000
c     0.8668679    2.6687609   -0.2995436  0.00    0.0028578    0.0105521    0.0002450
c     1.0545287    1.3145362   -0.2920452  0.00    0.0075228    0.0088209    0.0002962
n     0.4394098   -0.8669317   -0.2720073  0.00    0.0182375    0.0135165   -0.0006293
c     2.2023967    0.5875989   -0.2940540  0.00    0.0213115   -0.0080842   -0.0029320
c     1.8579654   -0.7227592   -0.2854858  0.00   -0.0121795   -0.0135016    0.0004198
h    -0.1277692   -1.7423200   -0.2604250  0.00    0.0033193    0.0031206   -0.0003096
c     3.6076629    1.1693480   -0.3361264  0.00    0.0052964    0.0052573    0.0006796
c     4.7219957    0.2224249    0.1976530  0.00   -0.0184104    0.0140212    0.0086229
h     3.6105105    2.0996442    0.2842473  0.00    0.0022087    0.0047366    0.0018941
h     3.8493303    1.4890625   -1.3764039  0.00    0.0001043    0.0018611   -0.0025479
c     5.9699834    1.0152969    0.5875816  0.00    0.0486067   -0.0170908    0.0092979
n     5.0857997   -0.8069681   -0.8163021  0.00    0.0201297   -0.0076892   -0.0080799
h     4.3766943   -0.2659637    1.1410006  0.00    0.0004970   -0.0035718    0.0004057
h     5.1306703   -1.7494545   -0.3463515  0.00   -0.0016634   -0.0089265    0.0076485
h     4.3798629   -0.8695039   -1.5969710  0.00   -0.0086153    0.0011135   -0.0096969
h    -2.4960330    2.6825247   -0.2405551  0.00   -0.0011489    0.0002951    0.0000182
h    -2.1130104    0.2404307   -0.2389314  0.00   -0.0017293   -0.0006829   -0.0000381
h    -0.5873243    4.2268810   -0.2810641  0.00   -0.0000326    0.0012816    0.0000699
h     1.7080535    3.3571843   -0.3197469  0.00    0.0013445    0.0011629    0.0000910
h     2.5369997   -1.5712593   -0.2776897  0.00   -0.0029680   -0.0041648   -0.0000436
o     6.9782411    0.4306609    1.3150214  0.00   -0.0249674    0.0111646   -0.0057646
o     6.0354600    2.3722467    0.2847556  0.00   -0.0509280   -0.0022774    0.0326051
h     6.9628885    2.5539423   -0.1373309  0.00    0.0292641    0.0037816   -0.0334420
    27
 Energy =       0.2035150445
c    -1.4668382    2.3266005   -0.3198196  0.00   -0.0078209    0.0058039    0.0004802
c    -1.2751270    0.9707094   -0.3239733  0.00   -0.0131523   -0.0059509    0.0002483
c    -0.0002661    0.5039105   -0.3288565  0.00   -0.0129603   -0.0254211   -0.0001372
c    -0.3921404    3.1800059   -0.3238653  0.00   -0.0031705    0.0113531    0.0005767
c     0.8853047    2.6854668   -0.3300122  0.00    0.0029027    0.0102380    0.0002300
c     1.0606856    1.3297962   -0.3278148  0.00    0.0072811    0.0085604    0.0002743
n     0.4250196   -0.8462982   -0.3290731  0.00    0.0172701    0.0130485   -0.0006234
c     2.2016907    0.5926511   -0.3148395  0.00    0.0204007   -0.0078529   -0.0028370
c     1.8452153   -0.7146567   -0.3173852  0.00   -0.0115419   -0.0130364    0.0004209
h    -0.1508500   -1.7163630   -0.3323148  0.00    0.0030412    0.0028012   -0.0003019
c     3.6143353    1.1600144   -0.3229566  0.00    0.0049263    0.0051536    0.0004218
c     4.7030038    0.1958993    0.2344175  0.00   -0.0184088    0.0133486    0.0079647
h     3.6122334    2.0881214    0.3002442  0.00    0.0019684    0.0045959    0.0018610
h     3.8843260    1.4795211   -1.3565196  0.00    0.0001936    0.0019297   -0.0028311
c     5.9436492    0.9685138    0.6884898  0.00    0.0467449   -0.0166670    0.0088098
n     5.0945610   -0.8154423   -0.7871512  0.00    0.0196335   -0.0071696   -0.0085274
h     4.3190659   -0.3087800    1.1552061  0.00    0.0000381   -0.0038029    0.0013690
h     5.1685481   -1.7588025   -0.3220866  0.00   -0.0015365   -0.0093315    0.0075577
h     4.3862700   -0.8956550   -1.5637296  0.00   -0.0085533    0.0011006   -0.0095179
h    -2.4780000    2.7287393   -0.3146153  0.00   -0.0012191    0.0002970    0.0000186
h    -2.1164339    0.2835485   -0.3220410  0.00   -0.0017989   -0.0007500   -0.0000357
h    -0.5552293    4.2562931   -0.3220109  0.00   -0.0000249    0.0012979    0.0000671
h     1.7328904    3.3664560   -0.3344398  0.00    0.0014430    0.0012297    0.0000842
h     2.5168431   -1.5691573   -0.2973224  0.00   -0.0026990   -0.0040965   -0.0000315
o     6.9192470    0.3546178    1.4389362  0.00   -0.0228099    0.0103496   -0.0046741
o     6.0328626    2.3331155    0.4269884  0.00   -0.0485939   -0.0008166    0.0315122
h     6.9671754    2.5118173    0.0214222  0.00    0.0284466    0.0037876   -0.0323793
    27
 Energy =       0.2040707552
c    -1.4568065    2.3458839   -0.3711072  0.00   -0.0077278    0.0056194    0.0004686
c    -1.2711762    0.9893643   -0.3820647  0.00   -0.0129100   -0.0058501    0.0002447
c     0.0013711    0.5168455   -0.3769080  0.00   -0.0126859   -0.0248399   -0.0001268
c    -0.3782652    3.1942989   -0.3585408  0.00   -0.0030565    0.0111508    0.0005620
c     0.8968907    2.6940042   -0.3539021  0.00    0.0029169    0.0100270    0.0002222
c     1.0660060    1.3376600   -0.3584469  0.00    0.0071370    0.0083878    0.0002598
n     0.4197546   -0.8355059   -0.3822268  0.00    0.0166555    0.0127379   -0.0006200
c     2.2031491    0.5950560   -0.3353029  0.00    0.0197996   -0.0076238   -0.0027619
c     1.8404782   -0.7105019   -0.3506139  0.00   -0.0111859   -0.0127390    0.0004193
h    -0.1605354   -1.7026655   -0.3994343  0.00    0.0028568    0.0025883   -0.0002987
c     3.6196021    1.1539127   -0.3163468  0.00    0.0045919    0.0050730    0.0002714
c     4.6880216    0.1831858    0.2696798  0.00   -0.0186660    0.0134144    0.0074986
h     3.6102525    2.0849370    0.3021332  0.00    0.0017594    0.0045313    0.0018525
h     3.9140552    1.4666254   -1.3454688  0.00    0.0002712    0.0019669   -0.0030608
c     5.9128730    0.9478013    0.7795578  0.00    0.0438058   -0.0147781    0.0066577