    27
 Energy =       0.2781906177
c    -1.4235396    2.6054793   -0.0667700  0.00   -0.0462834    0.0383303    0.0026885
c    -1.3072796    1.2134697   -0.1072300  0.00   -0.0853088   -0.0325493    0.0020239
c    -0.0178900    0.6711998   -0.1697000  0.00   -0.0886254   -0.1880161   -0.0008664
c    -0.2940599    3.4190890   -0.0891300  0.00   -0.0231806    0.0690665    0.0028654
c     0.9872197    2.8590292   -0.1560400  0.00    0.0101335    0.0643952    0.0009990
c     1.1340797    1.4562096   -0.1970299  0.00    0.0527454    0.0512539    0.0022141
n     0.3879399   -0.6395298   -0.2140799  0.00    0.1433832    0.1083990   -0.0033182
c     2.2666594    0.5727398   -0.2659299  0.00    0.1559922   -0.0859804   -0.0022373
c     1.7555995   -0.7123598   -0.2706899  0.00   -0.0992479   -0.0967656    0.0027542
h    -0.2400399   -1.4313496   -0.2047299  0.00    0.0366915    0.0479844   -0.0003334
c     3.7030089    1.0223397   -0.3320099  0.00   -0.0365796    0.0111698   -0.0279200
c     4.2197688    1.4064496   -1.7267995  0.00   -0.0791440    0.0992373    0.0566442
h     4.3261788    0.2093419    0.0639454  0.00   -0.0125673    0.0106139   -0.0020589
h     3.8370289    1.8640295    0.3610799  0.00   -0.0061949   -0.0119784   -0.0044153
c     3.7734089    0.3331939   -2.7369592  0.00    0.1133671   -0.3900585   -0.0263598
n     5.7205784    1.5052196   -1.8052095  0.00    0.0833360   -0.0065889   -0.0846170
h     3.7949889    2.3605393   -2.0604594  0.00    0.0250837   -0.0168434   -0.0050031
h     6.0369683    0.7723488   -2.4485593  0.00   -0.0555250    0.0230308    0.0132641
h     5.9490683    2.3775193   -2.2948593  0.00   -0.0153290   -0.0308413    0.0133013
h    -2.4108593    3.0588691   -0.0157800  0.00   -0.0008683    0.0002680    0.0001158
h    -2.1896094    0.5822398   -0.0890100  0.00   -0.0036233    0.0037442    0.0001245
h    -0.4052699    4.5000487   -0.0535400  0.00    0.0008436    0.0003154    0.0004110
h     1.8590495    3.5066790   -0.1715100  0.00   -0.0008873    0.0030825    0.0008070
h     2.2327294   -1.6813195   -0.3062999  0.00   -0.0427381   -0.0106747    0.0040637
o     4.1225288   -0.8355638   -2.7317292  0.00   -0.0728946    0.2877894   -0.0035015
o     2.9198892    0.8519998   -3.6604990  0.00    0.0191891    0.0315288    0.0399468
h     2.0748194    0.3457979   -3.5412290  0.00    0.0282323    0.0200872    0.0184074
    27
 Energy =       0.2430662788
c    -1.3615364    2.5630543   -0.0067943  0.00   -0.0355145    0.0294440    0.0020256
c    -1.2492442    1.1791138   -0.0533024  0.00   -0.0657305   -0.0251638    0.0015084
c     0.0263391    0.6357899   -0.1160065  0.00   -0.0680678   -0.1440961   -0.0001095
c    -0.2331511    3.3682613   -0.0282440  0.00   -0.0179719    0.0531349    0.0021523
c     1.0371664    2.8047043   -0.0995920  0.00    0.0078954    0.0496681    0.0006615
c     1.1666928    1.4134868   -0.1434003  0.00    0.0401448    0.0399368    0.0015040
n     0.4104924   -0.6910257   -0.1963492  0.00    0.1101266    0.0825025   -0.0029554
c     2.2846573    0.5498157   -0.2335920  0.00    0.1189369   -0.0650731   -0.0010641
c     1.7926877   -0.7325085   -0.2623589  0.00   -0.0775174   -0.0727513    0.0024771
h    -0.2178968   -1.4929214   -0.1993068  0.00    0.0282852    0.0368609   -0.0004289
c     3.7223317    0.9900776   -0.3529800  0.00   -0.0312930    0.0089162   -0.0202272
c     4.1389715    1.4489768   -1.7618116  0.00   -0.0628958    0.0745034    0.0408341
h     4.3709209    0.1448486   -0.0532962  0.00   -0.0064278    0.0042990   -0.0004357
h     3.9102166    1.7934808    0.3808344  0.00   -0.0046715   -0.0076905   -0.0007140
c     3.6929934    0.4017332   -2.7912191  0.00    0.0878242   -0.3018591   -0.0199131
n     5.6251863    1.6261140   -1.8808011  0.00    0.0684208   -0.0082355   -0.0638421
h     3.6392572    2.3971676   -2.0254938  0.00    0.0166736   -0.0090997   -0.0048018
h     5.9772697    0.9070643   -2.5309559  0.00   -0.0429060    0.0170108    0.0092505
h     5.7903152    2.5167358   -2.3782223  0.00   -0.0113962   -0.0204816    0.0085526
h    -2.3472304    3.0196630    0.0450059  0.00   -0.0006770    0.0002038    0.0000860
h    -2.1319519    0.5482555   -0.0437957  0.00   -0.0028115    0.0028498    0.0000704
h    -0.3396011    4.4496936    0.0093071  0.00    0.0006395    0.0002552    0.0003101
h     1.9146344    3.4445138   -0.1191268  0.00   -0.0006112    0.0023560    0.0005562
h     2.3115529   -1.6789287   -0.3561178  0.00   -0.0316145   -0.0102351    0.0028842
o     4.0561852   -0.8025078   -2.7820786  0.00   -0.0562432    0.2224246   -0.0025465
o     2.8586536    0.9060705   -3.7470637  0.00    0.0248950    0.0302396    0.0266477
h     1.9670526    0.4829806   -3.5639957  0.00    0.0125078    0.0100803    0.0175176
    27
 Energy =       0.2188047297
c    -1.3341862    2.5376641   -0.0134704  0.00   -0.0247321    0.0205151    0.0013967
c    -1.2251541    1.1615165   -0.0603453  0.00   -0.0460558   -0.0176512    0.0010387
c     0.0369465    0.6174764   -0.1252814  0.00   -0.0474687   -0.1011205   -0.0002146
c    -0.2069974    3.3346641   -0.0356868  0.00   -0.0126945    0.0371487    0.0015026
c     1.0525529    2.7675793   -0.1076786  0.00    0.0056014    0.0348535    0.0004350
c     1.1655858    1.3877328   -0.1524621  0.00    0.0278383    0.0282524    0.0010326
n     0.4024493   -0.7257753   -0.2028028  0.00    0.0767460    0.0575764   -0.0017593
c     2.2703195    0.5438353   -0.2432839  0.00    0.0836963   -0.0453764   -0.0007589
c     1.7990297   -0.7363413   -0.2782079  0.00   -0.0548052   -0.0502631    0.0016715
h    -0.2260322   -1.5379012   -0.2020992  0.00    0.0199058    0.0258213   -0.0002408
c     3.7110827    0.9778316   -0.3562514  0.00   -0.0221037    0.0063537   -0.0140929
c     4.1141959    1.4588669   -1.7605846  0.00   -0.0447650    0.0519744    0.0287841
h     4.3624888    0.1246688   -0.0764615  0.00   -0.0044562    0.0028096   -0.0002585
h     3.9091485    1.7727233    0.3875152  0.00   -0.0032262   -0.0053258   -0.0004138
c     3.6783810    0.4391354   -2.8165636  0.00    0.0609669   -0.2129651   -0.0139925
n     5.5912864    1.6624313   -1.8408941  0.00    0.0471942   -0.0071913   -0.0424222
h     3.5966844    2.4075247   -2.0019504  0.00    0.0115187   -0.0061311   -0.0035098
h     5.9876408    0.9660363   -2.5003869  0.00   -0.0299466    0.0107291    0.0050746
h     5.7668375    2.5840240   -2.2876143  0.00   -0.0071492   -0.0118292    0.0049744
h    -2.3183061    2.9972680    0.0399406  0.00   -0.0004819    0.0001409    0.0000581
h    -2.1076882    0.5305396   -0.0488677  0.00   -0.0019638    0.0019927    0.0000497
h    -0.3088163    4.4165857    0.0022821  0.00    0.0004398    0.0001880    0.0002150
h     1.9351518    3.4001603   -0.1273574  0.00   -0.0003665    0.0016163    0.0003551
h     2.3590384   -1.6597114   -0.3833478  0.00   -0.0216048   -0.0077101    0.0019341
o     4.0515096   -0.8021523   -2.8027521  0.00   -0.0400042    0.1564919   -0.0015160
o     2.8451291    0.9255932   -3.7905009  0.00    0.0430532    0.0308986    0.0090611
h     1.9046868    0.6417337   -3.5056440  0.00   -0.0151362   -0.0017986    0.0215961
    27
 Energy =       0.2188161328
c    -1.3322663    2.5126877    0.0052939  0.00   -0.0245778    0.0202576    0.0013835
c    -1.2192727    1.1360598   -0.0115785  0.00   -0.0454605   -0.0179248    0.0010040
c     0.0430862    0.5951463   -0.0892777  0.00   -0.0461220   -0.0973883   -0.0003683
c    -0.2083075    3.3128975   -0.0536356  0.00   -0.0121312    0.0369381    0.0014670
c     1.0514554    2.7486350   -0.1373516  0.00    0.0057465    0.0346476    0.0004150
c     1.1678263    1.3686909   -0.1573389  0.00    0.0277451    0.0282897    0.0009980
n     0.4135658   -0.7508688   -0.1047204  0.00    0.0737854    0.0548704   -0.0014084
c     2.2733667    0.5276576   -0.2517055  0.00    0.0831325   -0.0438414   -0.0007956
c     1.8072482   -0.7549900   -0.2456452  0.00   -0.0518448   -0.0487162    0.0012474
h    -0.2100817   -1.5670267   -0.0433461  0.00    0.0177734    0.0230255   -0.0000394
c     3.7115842    0.9645543   -0.3810785  0.00   -0.0221053    0.0063037   -0.0137357
c     4.0928185    1.4759358   -1.7798295  0.00   -0.0442536    0.0509400    0.0283929
h     4.3699985    0.1074933   -0.1289250  0.00   -0.0041174    0.0024731   -0.0001471
h     3.9194448    1.7448577    0.3759913  0.00   -0.0031995   -0.0050912   -0.0002011
c     3.6767757    0.4632619   -2.8506593  0.00    0.0612713   -0.2104842   -0.0115772
n     5.5644181    1.7144180   -1.8638864  0.00    0.0470222   -0.0072385   -0.0416137
h     3.5522966    2.4164554   -2.0023022  0.00    0.0110999   -0.0055235   -0.0033816
h     5.9769320    1.0281612   -2.5244812  0.00   -0.0293235    0.0103562    0.0048344
h     5.7154729    2.6401042   -2.3123368  0.00   -0.0069523   -0.0111765    0.0046994
h    -2.3169012    2.9699830    0.0692086  0.00   -0.0005753    0.0000885    0.0000631
h    -2.0989512    0.5018239    0.0398024  0.00   -0.0025683    0.0013995    0.0000865
h    -0.3130723    4.3952450   -0.0353356  0.00    0.0005213    0.0004072    0.0002087
h     1.9316033    3.3837371   -0.1849166  0.00   -0.0000036    0.0018429    0.0002950
h     2.3695224   -1.6780713   -0.3407577  0.00   -0.0214456   -0.0077780    0.0018775
o     4.0473631   -0.7800529   -2.8357026  0.00   -0.0395143    0.1540422   -0.0016257
o     2.8952344    0.9651491   -3.8620467  0.00    0.0451944    0.0322402    0.0052203
h     1.9318047    0.7517647   -3.5841960  0.00   -0.0190970   -0.0029595    0.0227011
    27
 Energy =       0.2156856318
c    -1.3362085    2.5254843   -0.0175799  0.00   -0.0239436    0.0195957    0.0013483
c    -1.2269642    1.1495836   -0.0639605  0.00   -0.0439646   -0.0178114    0.0009790
c     0.0342904    0.6068327   -0.1296439  0.00   -0.0439500   -0.0920672   -0.0001266
c    -0.2091849    3.3232509   -0.0402921  0.00   -0.0113582    0.0359828    0.0013913
c     1.0497968    2.7570619   -0.1120502  0.00    0.0057661    0.0337662    0.0003683
c     1.1616832    1.3781599   -0.1568992  0.00    0.0270757    0.0277261    0.0009532
n     0.3969862   -0.7413910   -0.2040997  0.00    0.0694961    0.0513889   -0.0015297
c     2.2659450    0.5379682   -0.2461417  0.00    0.0808539   -0.0415220   -0.0008100
c     1.7981459   -0.7435421   -0.2812045  0.00   -0.0481101   -0.0463893    0.0012119
h    -0.2326846   -1.5581056   -0.2020992  0.00    0.0153787    0.0199297   -0.0000886
c     3.7070413    0.9738384   -0.3507683  0.00   -0.0213035    0.0061870   -0.0131803
c     4.1106647    1.4719041   -1.7492635  0.00   -0.0428395    0.0489790    0.0272379
h     4.3603437    0.1182515   -0.0798039  0.00   -0.0038011    0.0022802   -0.0000896
h     3.9025451    1.7611997    0.4025544  0.00   -0.0031053   -0.0048526   -0.0000854
c     3.6872436    0.4605688   -2.8177088  0.00    0.0593282   -0.2033625   -0.0103131
n     5.5858669    1.6895104   -1.8181892  0.00    0.0456745   -0.0073084   -0.0399951
h     3.5844510    2.4189346   -1.9823636  0.00    0.0105654   -0.0051532   -0.0032887
h     5.9954515    1.0027005   -2.4807060  0.00   -0.0282892    0.0099645    0.0046587
h     5.7567612    2.6185861   -2.2533431  0.00   -0.0066000   -0.0103614    0.0043416
h    -2.3207414    2.9843539    0.0362378  0.00   -0.0006480    0.0000372    0.0000644
h    -2.1098227    0.5166993   -0.0510974  0.00   -0.0030666    0.0008251    0.0000877
h    -0.3110246    4.4055358   -0.0025596  0.00    0.0005903    0.0006095    0.0002022
h     1.9329706    3.3900879   -0.1316157  0.00    0.0003358    0.0020427    0.0002613
h     2.3641926   -1.6637521   -0.3831630  0.00   -0.0208197   -0.0076435    0.0018180
o     4.0679661   -0.7834014   -2.8109010  0.00   -0.0381109    0.1485239   -0.0015538
o     2.8727186    0.9523799   -3.8085217  0.00    0.0510341    0.0342685    0.0017933
h     1.9245313    0.6410098   -3.5555739  0.00   -0.0261885   -0.0056357    0.0243439
    27
 Energy =       0.2070713301
c    -1.3404344    2.5207078   -0.0469253  0.00   -0.0200887    0.0162561    0.0011338
c    -1.2351187    1.1486651   -0.1238610  0.00   -0.0365055   -0.0152713    0.0009360
c     0.0207743    0.6036050   -0.1796384  0.00   -0.0360416   -0.0750660    0.0007579
c    -0.2113973    3.3126541   -0.0326346  0.00   -0.0090716    0.0301526    0.0010632
c     1.0432876    2.7431390   -0.0928253  0.00    0.0049887    0.0283874    0.0001814
c     1.1463680    1.3692207   -0.1653566  0.00    0.0226555    0.0233367    0.0007066
n     0.3731286   -0.7483474   -0.3068828  0.00    0.0561277    0.0415035   -0.0022351
c     2.2452383    0.5352483   -0.2480884  0.00    0.0673682   -0.0337491   -0.0007408
c     1.7826387   -0.7432682   -0.3245038  0.00   -0.0384795   -0.0380444    0.0016333
h    -0.2606271   -1.5652225   -0.3608523  0.00    0.0111737    0.0145176   -0.0004097
c     3.6907518    0.9675872   -0.3141507  0.00   -0.0173319    0.0051940   -0.0106736
c     4.1188990    1.4825643   -1.7000233  0.00   -0.0361027    0.0405736    0.0224689
h     4.3379951    0.1068252   -0.0421059  0.00   -0.0031200    0.0018631   -0.0000105
h     3.8743958    1.7467371    0.4519492  0.00   -0.0025105   -0.0039068    0.0000829
c     3.7126351    0.4912266   -2.7919535  0.00    0.0482610   -0.1685077   -0.0082835
n     5.5919359    1.7055106   -1.7256452  0.00    0.0377639   -0.0068892   -0.0316855
h     3.5923475    2.4320876   -1.9287421  0.00    0.0086746   -0.0042540   -0.0027768
h     6.0274634    1.0412216   -2.3982152  0.00   -0.0230778    0.0076788    0.0031528
h     5.7765485    2.6542045   -2.1162146  0.00   -0.0047763   -0.0067633    0.0028499
h    -2.3240937    2.9822808   -0.0017955  0.00   -0.0006159   -0.0000145    0.0000570
h    -2.1199498    0.5182741   -0.1476838  0.00   -0.0030647    0.0001942    0.0000571
h    -0.3091879    4.3945119    0.0262862  0.00    0.0005832    0.0007632    0.0001692
h     1.9302597    3.3714884   -0.0819826  0.00    0.0006608    0.0020189    0.0002115
h     2.3640943   -1.6541275   -0.4295652  0.00   -0.0172444   -0.0064890    0.0016026
o     4.1132464   -0.7627483   -2.8032251  0.00   -0.0312675    0.1227513   -0.0016760
o     2.9004369    0.9812705   -3.7881277  0.00    0.0569591    0.0346736   -0.0021847
h     1.9713291    0.5583932   -3.6179937  0.00   -0.0359179   -0.0109093    0.0236120
    27
 Energy =       0.2038013543
c    -1.3591654    2.5049660   -0.0902490  0.00   -0.0182409    0.0145491    0.0010259
c    -1.2549407    1.1355973   -0.1885899  0.00   -0.0328602   -0.0139536    0.0008912
c    -0.0014137    0.5896853   -0.2356242  0.00   -0.0324110   -0.0673548    0.0009260
c    -0.2295886    3.2935336   -0.0463412  0.00   -0.0079350    0.0272651    0.0009303
c     1.0232298    2.7225219   -0.0954444  0.00    0.0046214    0.0257111    0.0001234
c     1.1226908    1.3518206   -0.1892252  0.00    0.0204217    0.0210613    0.0006076
n     0.3479972   -0.7626004   -0.3878429  0.00    0.0497284    0.0371609   -0.0022853
c     2.2193846    0.5209260   -0.2618199  0.00    0.0601161   -0.0302829   -0.0006266
c     1.7604682   -0.7552434   -0.3662060  0.00   -0.0341549   -0.0341591    0.0016756
h    -0.2863016   -1.5782354   -0.4755515  0.00    0.0094460    0.0123206   -0.0004955
c     3.6678745    0.9505043   -0.2785588  0.00   -0.0152589    0.0044665   -0.0090473
c     4.1323209    1.4967458   -1.6415443  0.00   -0.0332957    0.0366845    0.0204194
h     4.3072374    0.0824075   -0.0094073  0.00   -0.0027987    0.0015887    0.0001241
h     3.8333215    1.7124893    0.5100244  0.00   -0.0020797   -0.0031649    0.0005001
c     3.7677145    0.5274864   -2.7684239  0.00    0.0434800   -0.1519593   -0.0070436
n     5.6020590    1.7345145   -1.6109540  0.00    0.0344104   -0.0062300   -0.0267843
h     3.6025829    2.4461293   -1.8663254  0.00    0.0077367   -0.0037204   -0.0024394
h     6.0716513    1.0970802   -2.2890250  0.00   -0.0198791    0.0060818    0.0018176
h     5.7930864    2.7005983   -1.9574614  0.00   -0.0035010   -0.0044408    0.0019143
h    -2.3425768    2.9677018   -0.0525216  0.00   -0.0006030   -0.0000389    0.0000516
h    -2.1401100    0.5069829   -0.2376675  0.00   -0.0030028   -0.0000508    0.0000394
h    -0.3259591    4.3745870    0.0288111  0.00    0.0005868    0.0008339    0.0001578
h     1.9116742    3.3481121   -0.0587467  0.00    0.0008684    0.0020391    0.0001958
h     2.3503368   -1.6619354   -0.4631188  0.00   -0.0153886   -0.0058573    0.0014754
o     4.1773560   -0.7313222   -2.7895743  0.00   -0.0280491    0.1100568   -0.0018530
o     2.9946953    1.0299937   -3.7921912  0.00    0.0527660    0.0322015   -0.0039202
h     2.0673393    0.5886628   -3.6771784  0.00   -0.0347233   -0.0108081    0.0216198
    27
 Energy =       0.2034493263
c    -1.3842120    2.4895806   -0.1430397  0.00   -0.0178777    0.0140051    0.0009900
c    -1.2793880    1.1221775   -0.2618850  0.00   -0.0318991   -0.0137266    0.0008610
c    -0.0261569    0.5762173   -0.2981573  0.00   -0.0314249   -0.0651272    0.0009875
c    -0.2549304    3.2762317   -0.0683849  0.00   -0.0074597    0.0265720    0.0009084
c     0.9977185    2.7048323   -0.1043638  0.00    0.0046344    0.0250700    0.0001231
c     1.0969618    1.3362000   -0.2185076  0.00    0.0198251    0.0204825    0.0005944
n     0.3242563   -0.7738500   -0.4734755  0.00    0.0472993    0.0359159   -0.0023341
c     2.1935678    0.5061335   -0.2782043  0.00    0.0576251   -0.0293573   -0.0005175
c     1.7368580   -0.7679586   -0.4094096  0.00   -0.0325403   -0.0330037    0.0017283
h    -0.3089782   -1.5870446   -0.5955431  0.00    0.0085199    0.0111788   -0.0006057
c     3.6431267    0.9330888   -0.2407823  0.00   -0.0143496    0.0040588   -0.0081237
c     4.1507241    1.5079626   -1.5775988  0.00   -0.0330248    0.0357597    0.0199337
h     4.2733172    0.0584928    0.0297774  0.00   -0.0026707    0.0014727    0.0002587
h     3.7854094    1.6780834    0.5693639  0.00   -0.0018349   -0.0026969    0.0009900
c     3.8339423    0.5584310   -2.7371009  0.00    0.0425084   -0.1479277   -0.0061990
n     5.6165661    1.7560385   -1.4886999  0.00    0.0341963   -0.0057475   -0.0245627
h     3.6214523    2.4574605   -1.8037253  0.00    0.0074057   -0.0035295   -0.0023201
h     6.1177054    1.1407736   -2.1657817  0.00   -0.0184336    0.0052970    0.0009696
h     5.8135801    2.7341317   -1.7987083  0.00   -0.0027641   -0.0032162    0.0014386
h    -2.3678484    2.9525467   -0.1142309  0.00   -0.0006481   -0.0000652    0.0000477
h    -2.1641136    0.4950783   -0.3369004  0.00   -0.0031750   -0.0002771    0.0000141
h    -0.3515701    4.3561600    0.0224252  0.00    0.0006351    0.0009455    0.0001640
h     1.8861851    3.3287272   -0.0406889  0.00    0.0011385    0.0022110    0.0002121
h     2.3301694   -1.6738307   -0.4937072  0.00   -0.0147502   -0.0056974    0.0014370
o     4.2437269   -0.7024654   -2.7613197  0.00   -0.0271506    0.1063665   -0.0019398
o     3.1112362    1.0784664   -3.7910836  0.00    0.0509525    0.0320243   -0.0060686
h     2.1736590    0.6520449   -3.7110251  0.00   -0.0347371   -0.0109873    0.0210132
    27
 Energy =       0.2019048605
c    -1.3552788    2.5037650   -0.0825355  0.00   -0.0177487    0.0136399    0.0009653
c    -1.2522577    1.1348321   -0.1820052  0.00   -0.0313721   -0.0136583    0.0008152
c     0.0000161    0.5884611   -0.2302280  0.00   -0.0308302   -0.0637207    0.0009614
c    -0.2249588    3.2914601   -0.0385568  0.00   -0.0071097    0.0262177    0.0009066
c     1.0268771    2.7198343   -0.0890719  0.00    0.0047160    0.0247295    0.0001396
c     1.1240349    1.3498754   -0.1841890  0.00    0.0194579    0.0201892    0.0006084
n     0.3466705   -0.7657428   -0.3825917  0.00    0.0453247    0.0351891   -0.0022650
c     2.2196223    0.5207020   -0.2592812  0.00    0.0557762   -0.0288931   -0.0003307
c     1.7616567   -0.7553243   -0.3651847  0.00   -0.0312054   -0.0321865    0.0017126
h    -0.2890728   -1.5825460   -0.4685716  0.00    0.0076533    0.0101282   -0.0006724
c     3.6701969    0.9508374   -0.2800928  0.00   -0.0135081    0.0037015   -0.0072538
c     4.1293335    1.5001492   -1.6460749  0.00   -0.0330999    0.0353019    0.0197287
h     4.3110268    0.0822776   -0.0147647  0.00   -0.0025290    0.0013854    0.0004012
h     3.8396196    1.7122508    0.5100558  0.00   -0.0015931   -0.0022501    0.0015171
c     3.7588012    0.5331924   -2.7757207  0.00    0.0422768   -0.1460829   -0.0051696
n     5.6004479    1.7410700   -1.6179831  0.00    0.0348397   -0.0050803   -0.0229412
h     3.5967252    2.4493965   -1.8661373  0.00    0.0071303   -0.0033912   -0.0022452
h     6.0709035    1.1088381   -2.3029510  0.00   -0.0173020    0.0046942    0.0002326
h     5.7911862    2.7111363   -1.9574614  0.00   -0.0022273   -0.0024808    0.0010733
h    -2.3384600    2.9670478   -0.0438276  0.00   -0.0007102   -0.0000910    0.0000452
h    -2.1381107    0.5062831   -0.2308710  0.00   -0.0033894   -0.0004984   -0.0000045
h    -0.3201414    4.3727313    0.0375580  0.00    0.0006887    0.0010512    0.0001698
h     1.9164489    3.3448582   -0.0526132  0.00    0.0014222    0.0024030    0.0002247
h     2.3552980   -1.6594404   -0.4666585  0.00   -0.0142415   -0.0056445    0.0013881
o     4.1786551   -0.7258828   -2.8043127  0.00   -0.0264955    0.1040569   -0.0018362
o     2.9745340    1.0323589   -3.7973543  0.00    0.0501067    0.0332039   -0.0090756
h     2.0591907    0.5612885   -3.6993322  0.00   -0.0360305   -0.0119138    0.0209044
    27
 Energy =       0.1983208034
c    -1.3179668    2.5180798   -0.0148304  0.00   -0.0163715    0.0122829    0.0008645
c    -1.2170175    1.1488634   -0.0953588  0.00   -0.0286346   -0.0126129    0.0006695
c     0.0324746    0.6015641   -0.1573702  0.00   -0.0280049   -0.0577103    0.0007247
c    -0.1871298    3.3050590   -0.0026914  0.00   -0.0062680    0.0239971    0.0008513
c     1.0621764    2.7322634   -0.0698644  0.00    0.0044890    0.0226075    0.0001669
c     1.1555407    1.3625899   -0.1467089  0.00    0.0176662    0.0184935    0.0006047
n     0.3737240   -0.7579805   -0.2854861  0.00    0.0398278    0.0319956   -0.0018080
c     2.2478473    0.5359530   -0.2403550  0.00    0.0497893   -0.0264328    0.0000178
c     1.7909093   -0.7411380   -0.3212153  0.00   -0.0274210   -0.0289452    0.0014322
h    -0.2638978   -1.5782937   -0.3317519  0.00    0.0061129    0.0082067   -0.0006282
c     3.6974848    0.9676344   -0.3254842  0.00   -0.0115219    0.0030494   -0.0057618
c     4.0986246    1.4933808   -1.7197738  0.00   -0.0306002    0.0323211    0.0179992
h     4.3508171    0.1047103   -0.0711081  0.00   -0.0021226    0.0011866    0.0005324
h     3.8974325    1.7442808    0.4433903  0.00   -0.0011984   -0.0016039    0.0020064
c     3.6719505    0.5116905   -2.8165661  0.00    0.0390912   -0.1340881   -0.0031549
n     5.5707677    1.7313040   -1.7548233  0.00    0.0334121   -0.0039388   -0.0199432
h     3.5581218    2.4412003   -1.9294247  0.00    0.0062975   -0.0029884   -0.0020509
h     6.0127051    1.0904841   -2.4526522  0.00   -0.0149967    0.0039105   -0.0004411
h     5.7497826    2.6972852   -2.1130509  0.00   -0.0017157   -0.0019196    0.0007310
h    -2.3001638    2.9823808    0.0352811  0.00   -0.0007405   -0.0001105    0.0000399
h    -2.1035610    0.5195714   -0.1166653  0.00   -0.0033914   -0.0006973   -0.0000192
h    -0.2802873    4.3874241    0.0592092  0.00    0.0006954    0.0010738    0.0001625
h     1.9528754    3.3569792   -0.0618788  0.00    0.0016310    0.0024323    0.0002162
h     2.3874585   -1.6410987   -0.4449215  0.00   -0.0126158   -0.0052440    0.0011910
o     4.1152018   -0.7455230   -2.8595149  0.00   -0.0235279    0.0940722   -0.0013707
o     2.8157809    0.9855654   -3.7952798  0.00    0.0477418    0.0347917   -0.0130096
h     1.9413133    0.4394801   -3.7018619  0.00   -0.0376229   -0.0141292    0.0199774
    27
 Energy =       0.1931454542
c    -1.2770615    2.5288220    0.0529673  0.00   -0.0134801    0.0098323    0.0006703
c    -1.1784831    1.1609747   -0.0142938  0.00   -0.0233613   -0.0103347    0.0004355
c     0.0661714    0.6122122   -0.0918454  0.00   -0.0227131   -0.0467031    0.0003286
c    -0.1462937    3.3129385    0.0370768  0.00   -0.0049825    0.0195829    0.0007177
c     1.0985278    2.7379195   -0.0479845  0.00    0.0038283    0.0183830    0.0001826
c     1.1861563    1.3705512   -0.1121932  0.00    0.0142663    0.0151370    0.0005578
n     0.4004853   -0.7530681   -0.2033235  0.00    0.0311433    0.0260558   -0.0010465
c     2.2725876    0.5482443   -0.2260776  0.00    0.0396227   -0.0216116    0.0003893
c     1.8192934   -0.7286213   -0.2876818  0.00   -0.0214668   -0.0231732    0.0009206
h    -0.2380700   -1.5759093   -0.2161649  0.00    0.0043577    0.0059600   -0.0004661
c     3.7189632    0.9793513   -0.3703751  0.00   -0.0086675    0.0022004   -0.0039761
c     4.0608242    1.4896978   -1.7861985  0.00   -0.0248266    0.0263017    0.0143436
h     4.3845598    0.1202888   -0.1327212  0.00   -0.0014807    0.0008671    0.0005686
h     3.9480343    1.7666359    0.3801157  0.00   -0.0007699   -0.0009673    0.0021445
c     3.5885391    0.4984043   -2.8539054  0.00    0.0316909   -0.1098499   -0.0001116
n     5.5283249    1.7346819   -1.8741604  0.00    0.0284801   -0.0028922   -0.0153481
h     3.5061107    2.4335994   -1.9817374  0.00    0.0048976   -0.0022757   -0.0017423
h     5.9512848    1.1041873   -2.5950912  0.00   -0.0114724    0.0028804   -0.0010298
h     5.6905240    2.7067138   -2.2251544  0.00   -0.0013819   -0.0012723    0.0004270
h    -2.2576635    2.9949025    0.1156834  0.00   -0.0007065   -0.0001047    0.0000316
h    -2.0651869    0.5320059   -0.0116270  0.00   -0.0029961   -0.0007356   -0.0000276
h    -0.2367813    4.3959357    0.0889929  0.00    0.0006109    0.0009346    0.0001374
h     1.9903534    3.3605547   -0.0650339  0.00    0.0015968    0.0021468    0.0001814
h     2.4215302   -1.6220014   -0.4350269  0.00   -0.0098959   -0.0044006    0.0008559
o     4.0758789   -0.7537937   -2.9276490  0.00   -0.0173513    0.0748782   -0.0006530
o     2.6570278    0.9422134   -3.7812006  0.00    0.0451376    0.0386235   -0.0165466
h     1.8473279    0.2962685   -3.7261475  0.00   -0.0400797   -0.0194628    0.0180554
    27
 Energy =       0.1880810226
c    -1.2385468    2.5288736    0.1231697  0.00   -0.0095715    0.0067168    0.0004058
c    -1.1414537    1.1637022    0.0599806  0.00   -0.0164510   -0.0071755    0.0001807
c     0.0972863    0.6144380   -0.0381344  0.00   -0.0158449   -0.0325215    0.0000107
c    -0.1090650    3.3098046    0.0832383  0.00   -0.0034804    0.0137256    0.0005022
c     1.1302218    2.7332141   -0.0236207  0.00    0.0028711    0.0127442    0.0001488
c     1.2119629    1.3696801   -0.0842208  0.00    0.0098594    0.0106646    0.0004626
n     0.4248567   -0.7560429   -0.1463613  0.00    0.0208447    0.0182875   -0.0003425
c     2.2913524    0.5541890   -0.2215981  0.00    0.0271894   -0.0151843    0.0005971
c     1.8447456   -0.7219083   -0.2716591  0.00   -0.0143614   -0.0159180    0.0003935
h    -0.2133495   -1.5811181   -0.1365369  0.00    0.0027454    0.0038352   -0.0002763
c     3.7321305    0.9855822   -0.4144687  0.00   -0.0056299    0.0013257   -0.0022287
c     4.0174323    1.4941078   -1.8424435  0.00   -0.0170358    0.0180695    0.0093801
h     4.4100455    0.1291139   -0.1997260  0.00   -0.0007284    0.0004261    0.0005087
h     3.9855824    1.7770636    0.3239999  0.00   -0.0004224   -0.0005063    0.0018233
c     3.5240801    0.4948800   -2.8903970  0.00    0.0199537   -0.0754103    0.0048794
n     5.4743264    1.7683836   -1.9663053  0.00    0.0201387   -0.0030642   -0.0083510
h     3.4364173    2.4272526   -2.0217037  0.00    0.0030604   -0.0012027   -0.0013775
h     5.8934158    1.1757755   -2.7241872  0.00   -0.0066753    0.0010022   -0.0024555
h     5.6110831    2.7598157   -2.2759965  0.00   -0.0008792    0.0012256   -0.0003621
h    -2.2173606    2.9961772    0.2021643  0.00   -0.0006422   -0.0000579    0.0000237
h    -2.0273454    0.5349937    0.0824350  0.00   -0.0022729   -0.0006007   -0.0000307
h    -0.1973251    4.3929041    0.1321061  0.00    0.0004397    0.0006630    0.0000978
h     2.0224437    3.3535350   -0.0614768  0.00    0.0013224    0.0015817    0.0001256
h     2.4552267   -1.6065404   -0.4413404  0.00   -0.0065974   -0.0032201    0.0004754
o     4.0996674   -0.7341681   -3.0278306  0.00   -0.0060006    0.0461469   -0.0002346
o     2.5050392    0.8924858   -3.7506753  0.00    0.0395697    0.0463718   -0.0190586
h     1.7900950    0.1375154   -3.7591689  0.00   -0.0414013   -0.0279249    0.0147020
    27
 Energy =       0.1882942411
c    -1.2631512    2.5039283    0.1037689  0.00   -0.0090540    0.0063302    0.0003878
c    -1.1560605    1.1400728    0.0347161  0.00   -0.0155117   -0.0067826    0.0001770
c     0.0865212    0.6000567   -0.0601903  0.00   -0.0149397   -0.0305860    0.0000286
c    -0.1392110    3.2927043    0.0730390  0.00   -0.0032543    0.0129622    0.0004725
c     1.1041324    2.7252748   -0.0297630  0.00    0.0027537    0.0120152    0.0001351
c     1.1952450    1.3631546   -0.0963425  0.00    0.0092752    0.0100473    0.0004345
n     0.4246313   -0.7683336   -0.1720675  0.00    0.0194972    0.0171703   -0.0003440
c     2.2810089    0.5572236   -0.2285125  0.00    0.0254811   -0.0142556    0.0005605
c     1.8458218   -0.7219170   -0.2854797  0.00   -0.0134466   -0.0149756    0.0003550
h    -0.2076563   -1.5983289   -0.1712436  0.00    0.0025086    0.0035131   -0.0002562
c     3.7199295    1.0015635   -0.4026764  0.00   -0.0052222    0.0013000   -0.0021052
c     4.0151007    1.5134842   -1.8264430  0.00   -0.0174979    0.0171974    0.0097897
h     4.4052173    0.1530197   -0.1793269  0.00   -0.0005962    0.0003340    0.0004691
h     3.9558053    1.7964690    0.3382322  0.00   -0.0003627   -0.0003633    0.0018178
c     3.5838635    0.4882040   -2.8792623  0.00    0.0159144   -0.0667480    0.0056473