    24
 Energy =       0.4584510538
c    -0.3750178    1.6472058    0.7948734  0.00   -0.0576292    0.0179381    0.0649087
c     0.0303172    2.8109335    0.1570437  0.00   -0.0558934    0.0792119    0.0478991
c     1.0081136    2.7718125   -0.8262434  0.00    0.0088253    0.0929642   -0.0333588
c     0.2069418    0.4293490    0.4310970  0.00   -0.0254432   -0.0559372    0.0332453
c     1.2047783    0.3610782   -0.5608861  0.00    0.1071551   -0.0533883   -0.0472284
c     1.5988173    1.5541349   -1.1780186  0.00    0.0408357   -0.0090908   -0.0381779
o    -0.5069839    4.0230167    0.4710260  0.00    0.0768578    0.0206932   -0.0241437
h     0.2091687    4.6159613    0.7518288  0.00   -0.0442652   -0.0601310   -0.0147276
h     2.3707231    1.5818724   -1.9364796  0.00   -0.0025927    0.0155116    0.0041511
h    -0.1206493   -0.4779662    0.9373943  0.00   -0.0013562    0.0004458    0.0034335
h    -1.1350442    1.6632136    1.5694669  0.00    0.0010329   -0.0120232    0.0029680
h     1.3163936    3.6907012   -1.3176857  0.00    0.0013646    0.0012815   -0.0005774
c     1.7669373   -1.0073413   -0.8964724  0.00    0.3183779   -0.5595703    0.0641399
c     0.8861134   -2.0194266   -1.6556448  0.00    0.1344122    0.0869321    0.0870124
h     2.1212937   -1.4658931    0.0371405  0.00    0.7403003   -1.2385758   -0.7790727
h     2.6645729   -0.8285312   -1.5058794  0.00   -0.0127402   -0.0377786    0.0236921
c     1.7481012   -3.2276699   -2.0845864  0.00   -0.0692959   -0.2764070   -0.2527428
o     1.5179317   -3.9787875   -3.0189800  0.00    0.0615594    0.1746419    0.2225456
o     2.8094516   -3.3865268   -1.2478409  0.00   -0.0593405    0.0980890    0.0380454
h     2.7944772   -2.5928198   -0.6549742  0.00   -1.1456021    1.7927064    0.6056855
n    -0.2697763   -2.5678537   -0.8742070  0.00   -0.0690483   -0.0931298   -0.0282149
h     0.4960411   -1.5757973   -2.5789902  0.00   -0.0087204   -0.0162108    0.0220944
h    -1.1308243   -2.1540904   -1.2498506  0.00    0.0326668   -0.0168308    0.0052697
h    -0.3593670   -3.5651556   -1.0813225  0.00    0.0285392    0.0486579   -0.0068464
    24
 Energy =       0.4092889504
c    -0.4100564    1.6048552    0.7959716  0.00   -0.0504854    0.0158757    0.0569953
c    -0.0207012    2.7737581    0.1682020  0.00   -0.0475507    0.0676961    0.0417240
c     0.9739123    2.7566973   -0.7927376  0.00    0.0082365    0.0812729   -0.0294246
c     0.1941754    0.4019279    0.4391867  0.00   -0.0224811   -0.0491613    0.0291887
c     1.1985239    0.3554563   -0.5389746  0.00    0.0935289   -0.0466917   -0.0415565
c     1.5840201    1.5533365   -1.1425654  0.00    0.0358419   -0.0081729   -0.0337034
o    -0.6213203    3.9667143    0.4590820  0.00    0.0629148    0.0174575   -0.0216745
h     0.0504156    4.6028351    0.7784636  0.00   -0.0357613   -0.0497424   -0.0111923
h     2.3653907    1.5913089   -1.8918823  0.00   -0.0022511    0.0135296    0.0035190
h    -0.1254774   -0.5132670    0.9360071  0.00   -0.0013441    0.0003063    0.0030978
h    -1.1884780    1.6084512    1.5528458  0.00    0.0005867   -0.0103933    0.0029963
h     1.2691576    3.6823606   -1.2789431  0.00    0.0011969    0.0012600   -0.0004743
c     1.7977946   -0.9950782   -0.8774070  0.00    0.2812613   -0.4945943    0.0575538
c     0.9391315   -2.0001679   -1.6746853  0.00    0.1195271    0.0758949    0.0756488
h     2.1753112   -1.4471215    0.0514751  0.00    0.6549301   -1.0943566   -0.6884512
h     2.6991887   -0.7926636   -1.4759324  0.00   -0.0109549   -0.0333222    0.0208940
c     1.8005649   -3.2144095   -2.0749920  0.00   -0.0598993   -0.2420420   -0.2213609
o     1.5678993   -3.9788985   -3.0250821  0.00    0.0541063    0.1529796    0.1949087
o     2.8598297   -3.3856409   -1.2362443  0.00   -0.0519568    0.0860661    0.0333352
h     2.8494018   -2.5886431   -0.6460927  0.00   -1.0125111    1.5842263    0.5352569
n    -0.2565149   -2.5169920   -0.9356132  0.00   -0.0604332   -0.0830520   -0.0220038
h     0.6000278   -1.5459989   -2.6168426  0.00   -0.0078280   -0.0136660    0.0179573
h    -1.0949593   -2.0972441   -1.3647284  0.00    0.0263423   -0.0136642    0.0031066
h    -0.3547269   -3.5201561   -1.1267019  0.00    0.0249840    0.0422940   -0.0063411
    24
 Energy =       0.4024054490
c    -0.4438828    1.5838740    0.7867188  0.00   -0.0492990    0.0155799    0.0556528
c    -0.0706078    2.7549167    0.1548702  0.00   -0.0451006    0.0639517    0.0404001
c     0.9457093    2.7527871   -0.7826062  0.00    0.0085298    0.0791262   -0.0290118
c     0.1860176    0.3904289    0.4459592  0.00   -0.0218783   -0.0484192    0.0285104
c     1.2019800    0.3563595   -0.5190577  0.00    0.0915577   -0.0457767   -0.0407900
c     1.5803427    1.5582698   -1.1182663  0.00    0.0353053   -0.0082905   -0.0331543
o    -0.7322786    3.9289102    0.3984996  0.00    0.0569529    0.0177683   -0.0213924
h    -0.1083375    4.6055996    0.7385625  0.00   -0.0326649   -0.0460874   -0.0097777
h     2.3728016    1.6052169   -1.8558251  0.00   -0.0020562    0.0131808    0.0033221
h    -0.1276059   -0.5285277    0.9396678  0.00   -0.0013297    0.0002706    0.0030542
h    -1.2418683    1.5765047    1.5235349  0.00    0.0001971   -0.0099945    0.0032272
h     1.2279526    3.6804669   -1.2726570  0.00    0.0011467    0.0013719   -0.0004723
c     1.8214932   -0.9858716   -0.8510341  0.00    0.2752442   -0.4837071    0.0565294
c     0.9822816   -1.9913642   -1.6744917  0.00    0.1171247    0.0741167    0.0737061
h     2.2070875   -1.4356529    0.0809609  0.00    0.6406643   -1.0703893   -0.6732674
h     2.7284151   -0.7705706   -1.4367698  0.00   -0.0105525   -0.0325712    0.0203735
c     1.8530389   -3.2030003   -2.0639636  0.00   -0.0584155   -0.2365711   -0.2165063
o     1.6298466   -3.9792802   -3.0111486  0.00    0.0529120    0.1494764    0.1905280
o     2.9079237   -3.3688121   -1.2191383  0.00   -0.0507759    0.0838158    0.0324120
h     2.8775916   -2.5795892   -0.6216242  0.00   -0.9902952    1.5498195    0.5236913
n    -0.2301492   -2.5101372   -0.9638102  0.00   -0.0591819   -0.0814866   -0.0209212
h     0.6653589   -1.5313408   -2.6219346  0.00   -0.0076922   -0.0132951    0.0172849
h    -1.0587190   -2.0937704   -1.4167841  0.00    0.0252598   -0.0131998    0.0028198
h    -0.3218811   -3.5139972   -1.1578536  0.00    0.0243474    0.0413107   -0.0062183
    24
 Energy =       0.3414135238
c    -0.4314416    1.5462082    0.7589857  0.00   -0.0400689    0.0127612    0.0452448
c    -0.0834776    2.7159412    0.1239199  0.00   -0.0351986    0.0505522    0.0327466
c     0.9450842    2.7318829   -0.7919878  0.00    0.0072656    0.0641078   -0.0234330
c     0.2266275    0.3705069    0.4385248  0.00   -0.0179021   -0.0405310    0.0226126
c     1.2416113    0.3526522   -0.5176943  0.00    0.0737162   -0.0377966   -0.0330720
c     1.6031388    1.5534960   -1.1156110  0.00    0.0287939   -0.0070593   -0.0270775
o    -0.8051174    3.8670880    0.3363531  0.00    0.0412537    0.0130493   -0.0191698
h    -0.2327240    4.5770747    0.7215062  0.00   -0.0245364   -0.0339361   -0.0060344
h     2.3979616    1.6051467   -1.8510736  0.00   -0.0016587    0.0107212    0.0028241
h    -0.0725715   -0.5514412    0.9347357  0.00   -0.0012413   -0.0004866    0.0019453
h    -1.2445611    1.5291140    1.4791011  0.00   -0.0003342   -0.0080542    0.0027196
h     1.2070942    3.6620871   -1.2879685  0.00    0.0007366    0.0013810   -0.0003629
c     1.8794079   -0.9771823   -0.8684805  0.00    0.2298005   -0.4007919    0.0485610
c     0.9991258   -1.9694067   -1.6542997  0.00    0.0983256    0.0637316    0.0580146
h     2.2774029   -1.4276000    0.0471464  0.00    0.5304609   -0.8869269   -0.5595721
h     2.7681630   -0.7657471   -1.4870881  0.00   -0.0079540   -0.0270883    0.0164789
c     1.8031092   -3.2302518   -2.0056994  0.00   -0.0463503   -0.1916946   -0.1745768
o     1.5367260   -3.9804944   -2.9989864  0.00    0.0418041    0.1218647    0.1518605
o     2.8377535   -3.4760078   -1.1473618  0.00   -0.0412732    0.0314783    0.0131842
h     2.9620870   -2.5922208   -0.6545231  0.00   -0.8171628    1.3190544    0.4497252
n    -0.2369914   -2.3825244   -0.9207804  0.00   -0.0509649   -0.0605641   -0.0117428
h     0.7118808   -1.5241924   -2.6226557  0.00   -0.0054479   -0.0102584    0.0131548
h    -1.0444924   -1.9350173   -1.3909035  0.00    0.0195470   -0.0098706    0.0015557
h    -0.3932859   -3.3976916   -1.0433499  0.00    0.0183892    0.0263568   -0.0055864
    24
 Energy =       0.3259236730
c    -0.3984396    1.5635794    0.7600936  0.00   -0.0381511    0.0121851    0.0430019
c    -0.0419683    2.7292212    0.1248998  0.00   -0.0331350    0.0473203    0.0310155
c     0.9710860    2.7316772   -0.8068408  0.00    0.0070768    0.0609030   -0.0224273
c     0.2414810    0.3813882    0.4320829  0.00   -0.0170401   -0.0386354    0.0215608
c     1.2434900    0.3518818   -0.5359557  0.00    0.0701800   -0.0359374   -0.0315053
c     1.6097813    1.5467530   -1.1396583  0.00    0.0275471   -0.0068450   -0.0258327
o    -0.7304113    3.8964482    0.3671679  0.00    0.0377108    0.0127230   -0.0183242
h    -0.1289936    4.5817891    0.7580150  0.00   -0.0225790   -0.0314356   -0.0052349
h     2.3943622    1.5872872   -1.8870606  0.00   -0.0014371    0.0101714    0.0025571
h    -0.0597808   -0.5355130    0.9358087  0.00   -0.0012236   -0.0005272    0.0018861
h    -1.1986170    1.5585424    1.4949435  0.00   -0.0005291   -0.0076035    0.0027660
h     1.2401595    3.6596506   -1.3032092  0.00    0.0006950    0.0013560   -0.0003552
c     1.8636893   -0.9845259   -0.8978601  0.00    0.2200500   -0.3819863    0.0468497
c     0.9523683   -1.9728880   -1.6427551  0.00    0.0963942    0.0611759    0.0540388
h     2.2462841   -1.4429920    0.0081280  0.00    0.5043331   -0.8441573   -0.5330319
h     2.7453791   -0.7879413   -1.5333053  0.00   -0.0073595   -0.0258665    0.0155125
c     1.7608615   -3.2107326   -2.0521807  0.00   -0.0427916   -0.1809690   -0.1665292
o     1.4528399   -3.9362777   -3.0603174  0.00    0.0390205    0.1150072    0.1433379
o     2.8327395   -3.4687960   -1.2374847  0.00   -0.0371591    0.0255653    0.0114422
h     2.9444522   -2.6133743   -0.6829160  0.00   -0.7780218    1.2591212    0.4303865
n    -0.2280321   -2.4162193   -0.8348067  0.00   -0.0484643   -0.0606890   -0.0057349
h     0.5960623   -1.5197841   -2.5882421  0.00   -0.0059276   -0.0087301    0.0101352
h    -1.0763661   -1.9655659   -1.2321504  0.00    0.0137639   -0.0070441   -0.0003681
h    -0.3799167   -3.4321884   -0.9645871  0.00    0.0170476    0.0248981   -0.0051465
    24
 Energy =       0.2593544121
c    -0.3641419    1.5685430    0.7690637  0.00   -0.0268317    0.0084668    0.0297163
c     0.0020629    2.7288533    0.1447061  0.00   -0.0220946    0.0289097    0.0203019
c     0.9792921    2.7162007   -0.8155721  0.00    0.0055401    0.0421421   -0.0164499
c     0.2471188    0.3841979    0.4260081  0.00   -0.0119868   -0.0275364    0.0151948
c     1.2212491    0.3469323   -0.5578905  0.00    0.0499561   -0.0254313   -0.0221203
c     1.5857495    1.5299967   -1.1689571  0.00    0.0200681   -0.0052256   -0.0181958
o    -0.6216402    3.9223962    0.4661318  0.00    0.0186262    0.0103224   -0.0143835
h     0.0297595    4.5444875    0.9090381  0.00   -0.0107685   -0.0176708    0.0003451
h     2.3514833    1.5536883   -1.9380138  0.00   -0.0006338    0.0070132    0.0014411
h    -0.0490730   -0.5279839    0.9396047  0.00   -0.0009647   -0.0005087    0.0013285
h    -1.1381812    1.5820291    1.5317029  0.00   -0.0010449   -0.0051059    0.0025756
h     1.2570338    3.6441945   -1.3065000  0.00    0.0004191    0.0010912   -0.0002459
c     1.8420898   -0.9848408   -0.9374920  0.00    0.1675945   -0.2872151    0.0368593
c     0.9025940   -1.9666661   -1.6485440  0.00    0.0721010    0.0442179    0.0379886
h     2.2283834   -1.4525361   -0.0472974  0.00    0.3740302   -0.6288939   -0.4004483
h     2.7135384   -0.7898837   -1.5928911  0.00   -0.0050791   -0.0192140    0.0112176
c     1.7142249   -3.1738851   -2.1165865  0.00   -0.0309337   -0.1253107   -0.1174509
o     1.3507945   -3.8770461   -3.1648837  0.00    0.0253847    0.0806928    0.0986429
o     2.8427830   -3.4572339   -1.3731866  0.00   -0.0211499    0.0088546    0.0046158
h     2.9534019   -2.6552543   -0.7325515  0.00   -0.5799906    0.9468438    0.3279560
n    -0.2143940   -2.4211829   -0.7659701  0.00   -0.0336303   -0.0452341    0.0004567
h     0.4870407   -1.4994484   -2.5687424  0.00   -0.0051191   -0.0052766    0.0052346
h    -1.0989888   -1.9706452   -1.0917754  0.00    0.0050579   -0.0031065   -0.0014010
h    -0.3696698   -3.4434931   -0.8775922  0.00    0.0114499    0.0171750   -0.0031794
    24
 Energy =       0.1945952190
c    -0.3743037    1.5456996    0.7826121  0.00   -0.0150378    0.0047084    0.0161068
c    -0.0301451    2.7046200    0.1586102  0.00   -0.0118753    0.0157577    0.0108825
c     0.9219999    2.7006193   -0.8154870  0.00    0.0035967    0.0232954   -0.0090330
c     0.2404717    0.3740637    0.4361820  0.00   -0.0069900   -0.0151717    0.0083755
c     1.1915646    0.3503614   -0.5567269  0.00    0.0272776   -0.0137789   -0.0120064
c     1.5290351    1.5281916   -1.1770747  0.00    0.0113337   -0.0026558   -0.0099273
o    -0.6523741    3.8939248    0.5090508  0.00    0.0010909   -0.0016610   -0.0158147
h    -0.0237818    4.4660909    1.0677912  0.00    0.0029407   -0.0023990    0.0083056
h     2.2806881    1.5516930   -1.9611266  0.00   -0.0001666    0.0038202    0.0006677
h    -0.0328175   -0.5407745    0.9570309  0.00   -0.0006800   -0.0005022    0.0008898
h    -1.1346796    1.5586290    1.5578854  0.00   -0.0007252   -0.0028093    0.0015406
h     1.1823445    3.6317442   -1.3094475  0.00    0.0002928    0.0007550   -0.0002011
c     1.8505128   -0.9606531   -0.9430214  0.00    0.1071282   -0.1834207    0.0246281
c     0.9233817   -1.9485772   -1.6704852  0.00    0.0410705    0.0241610    0.0216147
h     2.2698016   -1.4318742   -0.0557382  0.00    0.2424177   -0.4045968   -0.2563656
h     2.7187092   -0.7407841   -1.5998692  0.00   -0.0025840   -0.0120110    0.0068915
c     1.7521800   -3.1346245   -2.1513740  0.00   -0.0179226   -0.0691780   -0.0641102
o     1.3799832   -3.8437095   -3.2345978  0.00    0.0139981    0.0448713    0.0537344
o     2.9001753   -3.4395953   -1.4384696  0.00   -0.0110842    0.0020975    0.0010643
h     3.0185123   -2.6831686   -0.7540093  0.00   -0.3719157    0.6087835    0.2120415
n    -0.1780414   -2.3984501   -0.7779372  0.00   -0.0175805   -0.0229314    0.0006188
h     0.5070011   -1.4706184   -2.5871690  0.00   -0.0028469   -0.0028931    0.0028360
h    -1.0761033   -1.9774427   -1.1126627  0.00    0.0020098   -0.0013654   -0.0011786
h    -0.3116038   -3.4339453   -0.8421576  0.00    0.0062521    0.0071241   -0.0015611
    24
 Energy =       0.1531309867
c    -0.3656480    1.5217922    0.8224420  0.00   -0.0092020    0.0011272    0.0095116
c    -0.0866672    2.6794749    0.1684404  0.00   -0.0061171    0.0091751    0.0057852
c     0.8159255    2.6900874   -0.8469134  0.00    0.0036260    0.0134416   -0.0058421
c     0.2673890    0.3676925    0.4675190  0.00   -0.0049414   -0.0088648    0.0054628
c     1.1728105    0.3626337   -0.5611910  0.00    0.0141910   -0.0083399   -0.0058417
c     1.4419815    1.5364603   -1.2160334  0.00    0.0068166    0.0003421   -0.0062472
o    -0.7276361    3.8561590    0.5337056  0.00   -0.0096526   -0.0089083   -0.0183108
h    -0.1542305    4.3750799    1.2071480  0.00    0.0114037    0.0067677    0.0141950
h     2.1568047    1.5676670   -2.0356438  0.00    0.0007864    0.0025530   -0.0007646
h     0.0455654   -0.5499783    1.0098084  0.00   -0.0009474   -0.0015409    0.0013942
h    -1.0933437    1.5253966    1.6290710  0.00   -0.0011632   -0.0018061    0.0016771
h     1.0235914    3.6222281   -1.3661132  0.00    0.0007195    0.0018168   -0.0011053
c     1.8697886   -0.9244337   -0.9596400  0.00    0.0659278   -0.1134715    0.0155067
c     0.9528537   -1.9318652   -1.6759594  0.00    0.0228040    0.0135080    0.0116948
h     2.3290958   -1.3940088   -0.0802565  0.00    0.1532631   -0.2540360   -0.1594324
h     2.7219948   -0.6785016   -1.6315887  0.00   -0.0008497   -0.0074564    0.0038992
c     1.8031056   -3.0859941   -2.1950373  0.00   -0.0095847   -0.0362953   -0.0329979
o     1.4269607   -3.7759915   -3.3137634  0.00    0.0074385    0.0234908    0.0268576
o     2.9721875   -3.4084920   -1.5173328  0.00   -0.0049402   -0.0017918   -0.0012303
h     3.1046466   -2.6995841   -0.7911656  0.00   -0.2311622    0.3811941    0.1344490
n    -0.1068594   -2.4039725   -0.7494164  0.00   -0.0063945   -0.0087792    0.0026002
h     0.5013694   -1.4502851   -2.5764276  0.00   -0.0017568   -0.0009816    0.0008615
h    -1.0358832   -2.0476186   -1.0841921  0.00   -0.0026329    0.0006698   -0.0020142
h    -0.1832917   -3.4525261   -0.7556509  0.00    0.0023680   -0.0018141   -0.0001083
    24
 Energy =       0.1256940372
c    -0.3293717    1.5171551    0.8606174  0.00   -0.0053134   -0.0007644    0.0056691
c    -0.1087936    2.6681046    0.1766461  0.00   -0.0032429    0.0050350    0.0029133
c     0.7473860    2.6823140   -0.8757879  0.00    0.0028607    0.0072673   -0.0039431
c     0.3173998    0.3756279    0.5010666  0.00   -0.0035095   -0.0052748    0.0036843
c     1.1789144    0.3767724   -0.5609309  0.00    0.0067995   -0.0053621   -0.0023312
c     1.3870676    1.5410573   -1.2495347  0.00    0.0038872    0.0016284   -0.0040545
o    -0.7655994    3.8349534    0.5503263  0.00   -0.0049142   -0.0039635   -0.0090723
h    -0.1983076    4.3649499    1.2112809  0.00    0.0055748    0.0031982    0.0070949
h     2.0642456    1.5715821   -2.1012851  0.00    0.0010827    0.0017797   -0.0014041
h     0.1379871   -0.5397190    1.0628832  0.00   -0.0009053   -0.0017076    0.0013072
h    -1.0253009    1.5176842    1.6947244  0.00   -0.0011943   -0.0012544    0.0015578
h     0.9072970    3.6094079   -1.4209521  0.00    0.0007706    0.0020841   -0.0014472
c     1.8912022   -0.8977439   -0.9711244  0.00    0.0387956   -0.0645554    0.0086747
c     0.9710295   -1.9045919   -1.6856270  0.00    0.0111238    0.0060771    0.0049453
h     2.3478495   -1.3873191   -0.0923637  0.00    0.0926017   -0.1550365   -0.0953845
h     2.7420288   -0.6434370   -1.6429756  0.00   -0.0002755   -0.0043968    0.0021531
c     1.7969571   -3.0794756   -2.2024432  0.00    0.0017994   -0.0074613   -0.0085561
o     1.3180819   -3.8553839   -3.2464725  0.00   -0.0025740    0.0022054    0.0034650
o     2.9903222   -3.4184701   -1.5693985  0.00   -0.0014933   -0.0031722   -0.0011125
h     3.1629118   -2.7469936   -0.8221726  0.00   -0.1376241    0.2284309    0.0827531
n    -0.0980742   -2.3420280   -0.7549428  0.00    0.0150799    0.0187058    0.0110477
h     0.5312419   -1.4178409   -2.5892946  0.00   -0.0007380   -0.0003596    0.0001872
h    -1.0427195   -2.1265506   -1.1935325  0.00   -0.0220864    0.0076346   -0.0121784
h    -0.0712447   -3.3986352   -0.5968978  0.00    0.0034950   -0.0307379    0.0040312
    24
 Energy =       0.1192821533
c    -0.3121282    1.5186628    0.8696675  0.00   -0.0047499   -0.0014346    0.0054113
c    -0.1402350    2.6644307    0.1630623  0.00   -0.0027298    0.0046779    0.0025043
c     0.6777129    2.6820038   -0.9193485  0.00    0.0029476    0.0064996   -0.0041396
c     0.3460508    0.3863195    0.5031755  0.00   -0.0035292   -0.0047136    0.0039830
c     1.1671242    0.3901697   -0.5906361  0.00    0.0058226   -0.0046476   -0.0023284
c     1.3267095    1.5493317   -1.3011683  0.00    0.0035620    0.0022269   -0.0041456
o    -0.8077657    3.8226157    0.5455228  0.00   -0.0051687   -0.0037285   -0.0085108
h    -0.2264100    4.3758841    1.1741894  0.00    0.0055467    0.0032688    0.0068028
h     1.9734206    1.5828120   -2.1766986  0.00    0.0013288    0.0017362   -0.0018249
h     0.2091228   -0.5233281    1.0869029  0.00   -0.0010689   -0.0023086    0.0018843
h    -0.9772956    1.5167840    1.7290838  0.00   -0.0014641   -0.0012959    0.0019860
h     0.7998072    3.6050629   -1.4816619  0.00    0.0008855    0.0024062   -0.0017878
c     1.8969584   -0.8729394   -1.0073194  0.00    0.0308462   -0.0520510    0.0069669
c     0.9717470   -1.9309915   -1.6455925  0.00    0.0097906    0.0041017    0.0022845
h     2.4336359   -1.3161935   -0.1421532  0.00    0.0802026   -0.1313971   -0.0768023
h     2.6973746   -0.6087216   -1.7392889  0.00    0.0018971   -0.0024072   -0.0000021
c     1.8053051   -3.0926437   -2.1811977  0.00   -0.0005456   -0.0052203   -0.0079269
o     1.2956279   -3.8978409   -3.1898662  0.00   -0.0034821    0.0011699    0.0014418
o     3.0435537   -3.3883893   -1.6096141  0.00    0.0024908   -0.0035201    0.0007145
h     3.2420098   -2.7059772   -0.8806242  0.00   -0.1145160    0.1914793    0.0701776
n    -0.0371596   -2.3768523   -0.6508238  0.00    0.0116236    0.0132530    0.0129588
h     0.4708399   -1.4804061   -2.5393022  0.00   -0.0015686    0.0006741   -0.0020396
h    -1.0054576   -2.1674516   -1.0347794  0.00   -0.0209142    0.0067925   -0.0111067
h     0.0019621   -3.4309221   -0.4997200  0.00    0.0027931   -0.0255616    0.0034988
    24
 Energy =       0.1096858523
c    -0.3268468    1.4879304    0.9058740  0.00   -0.0033899   -0.0009954    0.0038711
c    -0.1671643    2.6362149    0.2024971  0.00   -0.0019030    0.0033000    0.0017489
c     0.6519474    2.6645435   -0.8774795  0.00    0.0020465    0.0047125   -0.0029110
c     0.3448877    0.3645170    0.5386426  0.00   -0.0025183   -0.0033123    0.0029252
c     1.1738363    0.3831165   -0.5468192  0.00    0.0044127   -0.0032604   -0.0016501
c     1.3182830    1.5419745   -1.2570955  0.00    0.0024814    0.0015268   -0.0030485
o    -0.8505509    3.7856866    0.5843757  0.00   -0.0042440   -0.0029298   -0.0064088
h    -0.2902459    4.3324643    1.2356196  0.00    0.0044125    0.0027770    0.0052615
h     1.9660242    1.5815613   -2.1309679  0.00    0.0009380    0.0012154   -0.0013231
h     0.2102324   -0.5526241    1.1106879  0.00   -0.0007598   -0.0019651    0.0012495
h    -0.9969769    1.4763332    1.7606117  0.00   -0.0010803   -0.0008895    0.0014607
h     0.7620041    3.5887310   -1.4390073  0.00    0.0006297    0.0017690   -0.0012862
c     1.9146258   -0.8708913   -0.9650655  0.00    0.0210065   -0.0345124    0.0047389
c     1.0079614   -1.8829432   -1.7002310  0.00    0.0074477    0.0018167   -0.0007755
h     2.3663729   -1.3747783   -0.0774100  0.00    0.0609108   -0.1005553   -0.0527122
h     2.7737111   -0.5907178   -1.6264219  0.00    0.0045867   -0.0001943   -0.0022410
c     1.8471354   -3.0343315   -2.2508079  0.00   -0.0014875   -0.0003720   -0.0030031
o     1.3847189   -3.7594745   -3.3472316  0.00   -0.0071029   -0.0035193   -0.0069755
o     3.0409877   -3.4037304   -1.6205037  0.00    0.0052871   -0.0052642    0.0008042
h     3.2233497   -2.7808076   -0.8338967  0.00   -0.0824393    0.1449055    0.0571185
n    -0.0500804   -2.3538946   -0.7687113  0.00    0.0072216    0.0076316    0.0123181
h     0.5542971   -1.3826274   -2.5944251  0.00   -0.0016585    0.0013477   -0.0036245
h    -0.9987990   -2.1503911   -1.1935325  0.00   -0.0166024    0.0048979   -0.0080230
h    -0.0072000   -3.4044415   -0.6268930  0.00    0.0018047   -0.0181301    0.0024860
    24
 Energy =       0.0978583351
c    -0.3463969    1.4514323    0.9471664  0.00   -0.0018212   -0.0012967    0.0024704
c    -0.2475045    2.5959713    0.2274688  0.00   -0.0006843    0.0019316    0.0004752
c     0.5430527    2.6410321   -0.8715605  0.00    0.0009864    0.0031600   -0.0017774
c     0.3581310    0.3497026    0.5773662  0.00   -0.0011475   -0.0024762    0.0017423
c     1.1626871    0.3881379   -0.5233771  0.00    0.0019992   -0.0026271   -0.0000150
c     1.2443119    1.5407682   -1.2517023  0.00    0.0013175    0.0015381   -0.0021171
o    -0.9658474    3.7240666    0.6119189  0.00   -0.0026229   -0.0003429   -0.0031811
h    -0.4194792    4.2931395    1.2524230  0.00    0.0022693    0.0013884    0.0026412
h     1.8694357    1.5915923   -2.1408705  0.00    0.0005983    0.0008299   -0.0009873
h     0.2680249   -0.5676001    1.1577190  0.00   -0.0004494   -0.0018933    0.0009378
h    -0.9969961    1.4254135    1.8158580  0.00   -0.0006969   -0.0005602    0.0009646
h     0.6032510    3.5612728   -1.4471215  0.00    0.0003970    0.0019398   -0.0012511
c     1.9399599   -0.8416803   -0.9451793  0.00    0.0110095   -0.0180434    0.0030004
c     1.0672349   -1.8539023   -1.7146671  0.00    0.0035643    0.0012683   -0.0004761
h     2.3762358   -1.3561853   -0.0568241  0.00    0.0341205   -0.0574750   -0.0299571
h     2.8068498   -0.5348603   -1.5798135  0.00    0.0026025   -0.0002905   -0.0012379
c     1.9263205   -2.9754978   -2.3007162  0.00   -0.0001078    0.0008234    0.0004238
o     1.4929450   -3.6421231   -3.4439639  0.00   -0.0041345   -0.0037584   -0.0059821
o     3.1086657   -3.3820060   -1.6756965  0.00    0.0021145   -0.0042785   -0.0018930
h     3.2907875   -2.8182597   -0.8495320  0.00   -0.0446433    0.0819190    0.0341076
n     0.0135399   -2.3642836   -0.8039818  0.00    0.0025858    0.0034175    0.0059100
h     0.6099351   -1.3362550   -2.5948174  0.00   -0.0005960    0.0007898   -0.0017673
h    -0.9310774   -2.1789377   -1.2302906  0.00   -0.0071633    0.0021585   -0.0032843
h     0.0784442   -3.4095178   -0.6779970  0.00    0.0005024   -0.0081221    0.0012535
    24
 Energy =       0.0936104714
c    -0.3365675    1.4103686    0.9984544  0.00   -0.0015241   -0.0015775    0.0024821
c    -0.2970634    2.5540179    0.2711528  0.00   -0.0004343    0.0017007    0.0002936
c     0.4567352    2.6188287   -0.8526851  0.00    0.0008905    0.0028507   -0.0019478
c     0.3906653    0.3297308    0.6108526  0.00   -0.0010310   -0.0023790    0.0018301
c     1.1593218    0.3892667   -0.5143843  0.00    0.0014146   -0.0024727    0.0000464
c     1.1810432    1.5399285   -1.2499887  0.00    0.0011723    0.0017524   -0.0022640
o    -1.0395419    3.6604377    0.6732681  0.00   -0.0025123    0.0004051   -0.0022841
h    -0.4939180    4.2483519    1.2963573  0.00    0.0018098    0.0010307    0.0019706
h     1.7764810    1.6057192   -2.1587863  0.00    0.0007347    0.0008062   -0.0013048
h     0.3481243   -0.5879337    1.1970551  0.00   -0.0004457   -0.0021605    0.0012547
h    -0.9585534    1.3681017    1.8876414  0.00   -0.0008434   -0.0005780    0.0012714
h     0.4693761    3.5377439   -1.4338680  0.00    0.0003654    0.0021626   -0.0014744
c     1.9606494   -0.8173630   -0.9567176  0.00    0.0071543   -0.0122640    0.0019789
c     1.0976553   -1.8423733   -1.7203864  0.00    0.0026967    0.0014074   -0.0019109
h     2.4234983   -1.3254080   -0.0768172  0.00    0.0236639   -0.0393981   -0.0197774
h     2.8095771   -0.4850295   -1.6014909  0.00    0.0020734   -0.0001403   -0.0009776
c     1.9703446   -2.9235313   -2.3653227  0.00    0.0006728    0.0010518    0.0004879
o     1.5357154   -3.5409749   -3.5347525  0.00   -0.0026408   -0.0036125   -0.0052414
o     3.1664664   -3.3437223   -1.7790815  0.00    0.0020815   -0.0046532   -0.0027713
h     3.3505638   -2.8258870   -0.9266047  0.00   -0.0300501    0.0562724    0.0239854
n     0.0919928   -2.4045580   -0.7847416  0.00    0.0236481    0.0208607    0.0205795
h     0.5948641   -1.3229990   -2.5753072  0.00   -0.0006541    0.0014405   -0.0022266
h    -0.8773386   -2.0665941   -1.0852879  0.00   -0.0316291    0.0138010   -0.0126621
h     0.0724195   -3.4747015   -0.8367501  0.00    0.0033866   -0.0363063   -0.0013386
    24
 Energy =       0.0883833300
c    -0.3636082    1.3620530    1.0414771  0.00   -0.0008841   -0.0009225    0.0015094
c    -0.3714142    2.5043994    0.3128700  0.00   -0.0000959    0.0009357   -0.0000648
c     0.3663798    2.5918676   -0.8190153  0.00    0.0002018    0.0019288   -0.0009872
c     0.3945562    0.3057870    0.6466690  0.00   -0.0003029   -0.0016924    0.0009589
c     1.1497778    0.3901619   -0.4848297  0.00    0.0008427   -0.0016883    0.0003149
c     1.1235073    1.5381390   -1.2221009  0.00    0.0007177    0.0009210   -0.0014401
o    -1.1469820    3.5856436    0.7215054  0.00   -0.0018083    0.0009495   -0.0010638
h    -0.6189181    4.1892594    1.3435257  0.00    0.0009896    0.0006436    0.0010713
h     1.7058491    1.6208065   -2.1373836  0.00    0.0004174    0.0004212   -0.0007681
h     0.3871888   -0.6128866    1.2315300  0.00   -0.0001872   -0.0015101    0.0007248
h    -0.9743186    1.3006816    1.9366830  0.00   -0.0005021   -0.0002765    0.0007430
h     0.3402048    3.5087268   -1.4016951  0.00    0.0001347    0.0015536   -0.0009523
c     1.9830450   -0.7905200   -0.9366297  0.00    0.0032829   -0.0058794    0.0016805
c     1.1496332   -1.8090764   -1.7403870  0.00    0.0017437    0.0022346   -0.0009343
h     2.4309678   -1.3090778   -0.0556196  0.00    0.0125652   -0.0217065   -0.0102187
h     2.8386890   -0.4280269   -1.5545932  0.00    0.0015127    0.0001584   -0.0007928
c     2.0389581   -2.8402132   -2.4458640  0.00    0.0011692    0.0010959    0.0020609
o     1.6172144   -3.3822217   -3.6571667  0.00   -0.0019259   -0.0039522   -0.0060981
o     3.2364230   -3.2916826   -1.8874074  0.00    0.0009935   -0.0044760   -0.0044064
h     3.4223841   -2.8401947   -0.9999497  0.00   -0.0149152    0.0316578    0.0154166
n     0.1643408   -2.4337775   -0.8250052  0.00    0.0080410    0.0088555    0.0103074
h     0.6274827   -1.2669099   -2.5685587  0.00   -0.0002419    0.0012847   -0.0015309
h    -0.8033796   -2.1028533   -1.0918267  0.00   -0.0129721    0.0058618   -0.0058718
h     0.1545296   -3.4886651   -0.9244187  0.00    0.0012235   -0.0163983    0.0003414
    24
 Energy =       0.0868752508
c    -0.3529397    1.3093466    1.1037943  0.00   -0.0009152   -0.0006754    0.0015106
c    -0.3894894    2.4630328    0.3944414  0.00   -0.0001419    0.0007357    0.0000110