    24
 Energy =       0.1691837504
c    -0.3750178    1.6472058    0.7948734  0.00   -0.0694786    0.0384934    0.0639970
c     0.0303172    2.8109335    0.1570437  0.00   -0.0608840    0.0775065    0.0483369
c     1.0081136    2.7718125   -0.8262434  0.00    0.0159266    0.0874810   -0.0343070
c     0.2069418    0.4293490    0.4310970  0.00   -0.0253458   -0.0544487    0.0326241
c     1.2047783    0.3610782   -0.5608861  0.00    0.1037304   -0.0578351   -0.0536220
c     1.5988173    1.5541349   -1.1780186  0.00    0.0404055   -0.0091993   -0.0386732
o    -0.5069839    4.0230167    0.4710260  0.00   -0.0150123   -0.0332312    0.0208135
h    -1.1463012    3.9010909    1.1919392  0.00    0.0554515   -0.0263777   -0.0524916
h     2.3707231    1.5818724   -1.9364796  0.00   -0.0017130    0.0156848    0.0047996
h    -0.1206493   -0.4779662    0.9373943  0.00   -0.0009300   -0.0020389    0.0022438
h    -1.1350442    1.6632136    1.5694669  0.00    0.0004999   -0.0026480    0.0013346
h     1.3163936    3.6907012   -1.3176857  0.00    0.0035500   -0.0001263   -0.0038212
c     1.7669373   -1.0073413   -0.8964724  0.00   -0.0728348   -0.0040177    0.0036285
c     0.8861134   -2.0194266   -1.6556448  0.00   -0.0727973    0.0428812    0.1366209
h     2.1212937   -1.4658931    0.0371405  0.00   -0.0047416    0.0096799   -0.0099769
h     2.6645729   -0.8285312   -1.5058794  0.00   -0.0148021    0.0033822    0.0061611
c     0.2877588   -1.3395944   -2.9073099  0.00    0.1382094    0.0544986   -0.3620655
o     0.8327661   -1.2278598   -3.9939237  0.00   -0.1344156   -0.0335012    0.2596509
o    -0.9441121   -0.8279107   -2.6380200  0.00    0.0356585   -0.0389363    0.0732098
h    -1.1643204   -1.1460654   -1.7258952  0.00    0.1598258   -0.1018845    0.0191704
n     1.5974427   -3.2508470   -2.1301054  0.00    0.0062701   -0.0720185   -0.0418302
h     0.0358579   -2.3311629   -1.0380560  0.00   -0.0604127    0.0700567   -0.0617878
h     2.6066344   -3.0920603   -2.0299520  0.00   -0.0360964    0.0036910    0.0097781
h     1.3975604   -4.0138454   -1.4794020  0.00    0.0099364    0.0329084   -0.0237937
    24
 Energy =       0.1413871656
c    -0.3062858    1.6081683    0.8350394  0.00   -0.0552659    0.0307259    0.0505517
c     0.0967533    2.7699174    0.2058303  0.00   -0.0484847    0.0611063    0.0381735
c     1.0576444    2.7297503   -0.7835623  0.00    0.0124564    0.0692689   -0.0271448
c     0.2624197    0.3963561    0.4627926  0.00   -0.0202636   -0.0430365    0.0259426
c     1.2412113    0.3330780   -0.5346928  0.00    0.0816456   -0.0447416   -0.0417888
c     1.6318251    1.5184602   -1.1494617  0.00    0.0319573   -0.0074915   -0.0304399
o    -0.4293931    3.9890369    0.5427943  0.00   -0.0117686   -0.0259792    0.0165489
h    -1.0853193    3.8781583    1.2625311  0.00    0.0437716   -0.0210977   -0.0414910
h     2.3858930    1.5354755   -1.9273997  0.00   -0.0011488    0.0122563    0.0035724
h    -0.0669053   -0.5132190    0.9626868  0.00   -0.0008228   -0.0016570    0.0018271
h    -1.0588792    1.6260657    1.6167030  0.00    0.0002840   -0.0020686    0.0011053
h     1.3631330    3.6503494   -1.2723439  0.00    0.0027979   -0.0001366   -0.0030098
c     1.7813276   -1.0311905   -0.9227532  0.00   -0.0557732   -0.0020268    0.0031507
c     0.8350994   -1.9706446   -1.6972901  0.00   -0.0613800    0.0352643    0.1075548
h     2.1294473   -1.5399040   -0.0082261  0.00   -0.0033160    0.0069686   -0.0066935
h     2.6778044   -0.8636390   -1.5423926  0.00   -0.0114564    0.0025907    0.0051343
c     0.2358865   -1.2338338   -2.9088025  0.00    0.1099009    0.0426216   -0.2865664
o     0.7815009   -1.1253468   -4.0349990  0.00   -0.1067128   -0.0268564    0.2053257
o    -0.9760936   -0.6691575   -2.6269412  0.00    0.0293566   -0.0221053    0.0464957
h    -1.2582017   -1.0859428   -1.7600963  0.00    0.1272663   -0.0897085    0.0265638
n     1.4879565   -3.2214197   -2.1976998  0.00    0.0031107   -0.0581603   -0.0350458
h    -0.0090930   -2.2517904   -1.0535410  0.00   -0.0493426    0.0571538   -0.0493523
h     2.5137728   -3.1230507   -2.1289559  0.00   -0.0246577    0.0027136    0.0078296
h     1.2490889   -3.9997726   -1.5692125  0.00    0.0078457    0.0243960   -0.0182436
    24
 Energy =       0.1210761864
c    -0.2288547    1.5967340    0.8402241  0.00   -0.0431093    0.0240703    0.0390966
c     0.1683036    2.7566718    0.2152421  0.00   -0.0378663    0.0472999    0.0296044
c     1.1102754    2.7156252   -0.7834748  0.00    0.0095882    0.0538299   -0.0210747
c     0.3259163    0.3898504    0.4577056  0.00   -0.0159902   -0.0334749    0.0201827
c     1.2796361    0.3298180   -0.5527976  0.00    0.0629201   -0.0345185   -0.0315943
c     1.6666226    1.5094707   -1.1653892  0.00    0.0248423   -0.0058813   -0.0234931
o    -0.3492191    3.9811876    0.5710253  0.00   -0.0088198   -0.0198852    0.0128230
h    -1.0248274    3.8797178    1.2844449  0.00    0.0336932   -0.0165791   -0.0320981
h     2.4027691    1.5187242   -1.9618146  0.00   -0.0006728    0.0094165    0.0024926
h     0.0008636   -0.5206608    0.9576088  0.00   -0.0006675   -0.0013980    0.0013145
h    -0.9692821    1.6167781    1.6333823  0.00    0.0001129   -0.0015669    0.0009557
h     1.4119880    3.6378673   -1.2707312  0.00    0.0021932   -0.0001021   -0.0023465
c     1.8029160   -1.0286618   -0.9828587  0.00   -0.0433788    0.0006866    0.0042036
c     0.7790016   -1.9506180   -1.6823238  0.00   -0.0508023    0.0290557    0.0817700
h     2.2157223   -1.5415156   -0.0928704  0.00   -0.0012859    0.0048851   -0.0031966
h     2.6534527   -0.8708245   -1.6771666  0.00   -0.0060571    0.0022929    0.0014481
c     0.1534131   -1.2288576   -2.8833288  0.00    0.0852351    0.0326699   -0.2229505
o     0.7149736   -1.1202455   -4.0353437  0.00   -0.0826853   -0.0208757    0.1595773
o    -1.0647430   -0.6586324   -2.6175936  0.00    0.0239849   -0.0150996    0.0307801
h    -1.3308379   -1.0044816   -1.7103294  0.00    0.1002968   -0.0734433    0.0267212
n     1.3709106   -3.2371606   -2.1602875  0.00    0.0012405   -0.0465811   -0.0303773
h    -0.0457907   -2.1706805   -0.9817909  0.00   -0.0423205    0.0459805   -0.0367364
h     2.4070479   -3.1977726   -2.1143477  0.00   -0.0158502    0.0017172    0.0059609
h     1.0903358   -3.9964288   -1.5171779  0.00    0.0053987    0.0175012   -0.0130632
    24
 Energy =       0.0889758106
c    -0.1260532    1.5716138    0.8438688  0.00   -0.0068667    0.0040358    0.0045765
c     0.2398567    2.7182099    0.2072219  0.00   -0.0057678    0.0059520    0.0045312
c     1.1387092    2.6674956   -0.8055957  0.00    0.0016786    0.0071481   -0.0022895
c     0.4085483    0.3799265    0.4628326  0.00   -0.0037490   -0.0045573    0.0025576
c     1.3048540    0.3232776   -0.5676111  0.00    0.0089851   -0.0044457   -0.0033183
c     1.6677081    1.4777771   -1.1983218  0.00    0.0041120   -0.0005862   -0.0022020
o    -0.2883155    3.9567327    0.5710357  0.00    0.0017982   -0.0031444    0.0004435
h    -1.0144810    3.8954364    1.2731067  0.00    0.0019719   -0.0029407   -0.0039499
h     2.3688659    1.4597666   -2.0300472  0.00    0.0008219    0.0008664   -0.0006570
h     0.1077911   -0.5269145    0.9821713  0.00   -0.0005146   -0.0006027    0.0003729
h    -0.8417039    1.6035123    1.6591675  0.00   -0.0004118   -0.0002559    0.0005545
h     1.4178016    3.5880826   -1.3076197  0.00    0.0006162    0.0002079   -0.0005740
c     1.8481832   -1.0132413   -1.0327304  0.00   -0.0048227    0.0014102    0.0011101
c     0.7548382   -1.9079405   -1.6677543  0.00   -0.0200299    0.0090945    0.0110868
h     2.2987339   -1.5390001   -0.1620042  0.00    0.0005809    0.0002715    0.0000962
h     2.6674628   -0.8641627   -1.7749866  0.00    0.0003031    0.0008460   -0.0010604
c     0.0529952   -1.2147052   -2.8287705  0.00    0.0153639    0.0075997   -0.0269434
o     0.6323897   -1.1270892   -4.0743185  0.00   -0.0140269   -0.0064163    0.0199217
o    -1.1997577   -0.6580997   -2.6100331  0.00    0.0051269    0.0023543   -0.0144954
h    -1.4653364   -0.8654228   -1.6474396  0.00    0.0370693   -0.0340242    0.0308190
n     1.3155676   -3.2090021   -2.0983677  0.00    0.0011406    0.0011667   -0.0130484
h    -0.0411229   -2.0827477   -0.9089152  0.00   -0.0226196    0.0219134   -0.0127352
h     2.3614755   -3.2474925   -2.0191671  0.00    0.0034174   -0.0011752    0.0019767
h     0.9315827   -3.9801082   -1.4957149  0.00   -0.0041769   -0.0047181    0.0032266
    24
 Energy =       0.0864526827
c    -0.0292417    1.5893864    0.8852434  0.00   -0.0061846    0.0022363    0.0048787
c     0.3023043    2.7223653    0.2050788  0.00   -0.0049628    0.0044758    0.0040624
c     1.1377096    2.6480709   -0.8616346  0.00    0.0030007    0.0051411   -0.0038842
c     0.4788012    0.3892650    0.4965856  0.00   -0.0040000   -0.0035530    0.0034773
c     1.3164217    0.3109202   -0.5812502  0.00    0.0069751   -0.0038492   -0.0027192
c     1.6411179    1.4500125   -1.2600593  0.00    0.0040708    0.0004665   -0.0032600
o    -0.1967978    3.9714767    0.5797246  0.00    0.0060791   -0.0014720   -0.0054366
h    -0.8557278    3.9335452    1.3540931  0.00   -0.0040010   -0.0022883    0.0036567
h     2.2915295    1.4116965   -2.1339517  0.00    0.0020355    0.0008397   -0.0024941
h     0.2050616   -0.5075032    1.0489956  0.00   -0.0009330   -0.0010048    0.0010877
h    -0.6971432    1.6396665    1.7414433  0.00   -0.0016682   -0.0002479    0.0021557
h     1.3881197    3.5574921   -1.3997946  0.00    0.0010705    0.0008512   -0.0014401
c     1.8319937   -1.0353058   -1.0489248  0.00   -0.0029078    0.0011206    0.0007377
c     0.7122059   -1.9099567   -1.6654108  0.00   -0.0142216    0.0067388    0.0078756
h     2.2851136   -1.5670089   -0.1830698  0.00    0.0004869    0.0001847    0.0001064
h     2.6441586   -0.9029531   -1.8021816  0.00    0.0004247    0.0005713   -0.0008759
c     0.0016544   -1.1946554   -2.8097332  0.00    0.0100958    0.0045926   -0.0176988
o     0.5955249   -1.0598843   -4.0498067  0.00   -0.0093440   -0.0040556    0.0126710
o    -1.2480015   -0.6286952   -2.5835891  0.00    0.0035983    0.0019251   -0.0104183
h    -1.5192684   -0.8175835   -1.6221724  0.00    0.0270559   -0.0246223    0.0223942
n     1.2471516   -3.2155000   -2.1146372  0.00   -0.0023778    0.0053449   -0.0140547
h    -0.0684489   -2.0784030   -0.8886293  0.00   -0.0170528    0.0163170   -0.0091233
h     2.2852576   -3.3040246   -1.9639196  0.00    0.0085740   -0.0008548    0.0022694
h     0.7910971   -3.9965189   -1.5723927  0.00   -0.0058138   -0.0088575    0.0060322
    24
 Energy =       0.0855015562
c    -0.0067592    1.6112973    0.8799625  0.00   -0.0051441    0.0015265    0.0041806
c     0.3062940    2.7350529    0.1763836  0.00   -0.0040632    0.0037332    0.0033099
c     1.1214035    2.6477111   -0.9041750  0.00    0.0026281    0.0043140   -0.0034018
c     0.4994960    0.4079326    0.5010536  0.00   -0.0034026   -0.0030198    0.0030402
c     1.3174025    0.3169073   -0.5897201  0.00    0.0056797   -0.0032541   -0.0021547
c     1.6231238    1.4461135   -1.2926757  0.00    0.0034296    0.0006897   -0.0028770
o    -0.1920338    3.9880219    0.5409174  0.00    0.0052193   -0.0010097   -0.0047663
h    -0.8340697    3.9604987    1.3292919  0.00   -0.0035425   -0.0019017    0.0033025
h     2.2578240    1.3964731   -2.1771383  0.00    0.0017873    0.0007665   -0.0022219
h     0.2407335   -0.4815119    1.0723359  0.00   -0.0008668   -0.0010544    0.0010798
h    -0.6589615    1.6718891    1.7472121  0.00   -0.0014939   -0.0002728    0.0019395
h     1.3572224    3.5498268   -1.4609215  0.00    0.0009737    0.0009240   -0.0013580
c     1.8345487   -1.0335683   -1.0423584  0.00   -0.0024545    0.0013988    0.0007933
c     0.7137517   -1.9186687   -1.6415713  0.00   -0.0116730    0.0052414    0.0069426
h     2.2924832   -1.5516801   -0.1706487  0.00    0.0004154    0.0000605    0.0002055
h     2.6434003   -0.9112853   -1.8008841  0.00    0.0003910    0.0004723   -0.0007978
c     0.0070561   -1.2201330   -2.8004717  0.00    0.0082518    0.0036319   -0.0141013
o     0.6050737   -1.1179939   -4.0441210  0.00   -0.0071968   -0.0032754    0.0095860
o    -1.2353645   -0.6299856   -2.5900814  0.00    0.0027503    0.0019412   -0.0090741
h    -1.5150657   -0.7842956   -1.6263475  0.00    0.0218071   -0.0202197    0.0190089
n     1.2513141   -3.2299306   -2.0700243  0.00   -0.0078036    0.0120095   -0.0196608
h    -0.0650423   -2.0750641   -0.8596981  0.00   -0.0141272    0.0134357   -0.0073032
h     2.2681151   -3.3621826   -1.8051664  0.00    0.0189075   -0.0019740    0.0045318
h     0.7086478   -4.0095201   -1.6011464  0.00   -0.0104726   -0.0141635    0.0097965
    24
 Energy =       0.0837697301
c     0.0690308    1.5683945    0.9567105  0.00   -0.0041179    0.0013722    0.0036398
c     0.3500324    2.7032509    0.2582137  0.00   -0.0030192    0.0023787    0.0026019
c     1.1135323    2.6323943   -0.8607197  0.00    0.0023664    0.0029801   -0.0031466
c     0.5564357    0.3713076    0.5353019  0.00   -0.0027451   -0.0022891    0.0028042
c     1.3248958    0.2982817   -0.5916423  0.00    0.0043036   -0.0022760   -0.0019452
c     1.5968091    1.4374797   -1.2908346  0.00    0.0029850    0.0000211   -0.0028622
o    -0.1299269    3.9512776    0.6674064  0.00    0.0039833    0.0003155   -0.0038657
h    -0.7301973    3.9142604    1.4880450  0.00   -0.0037442   -0.0009916    0.0039467
h     2.1901162    1.4005748   -2.2047565  0.00    0.0019500    0.0003450   -0.0025728
h     0.3226918   -0.5277188    1.1021176  0.00   -0.0007785   -0.0009025    0.0010319
h    -0.5435249    1.6155578    1.8537257  0.00   -0.0017689   -0.0000136    0.0023378
h     1.3235090    3.5430710   -1.4134757  0.00    0.0008354    0.0008199   -0.0012094
c     1.8233047   -1.0436664   -1.0894094  0.00   -0.0012240    0.0008759   -0.0000655
c     0.6847286   -1.8984816   -1.6985827  0.00   -0.0075490    0.0042578    0.0052844
h     2.2880131   -1.5921705   -0.2393705  0.00    0.0006113   -0.0002885    0.0006667
h     2.6234104   -0.9073454   -1.8546844  0.00    0.0003389    0.0002216   -0.0006801
c    -0.0360965   -1.1521874   -2.8218957  0.00    0.0037901    0.0017129   -0.0070892
o     0.5692866   -0.9751249   -4.0586919  0.00   -0.0032822   -0.0011774    0.0028288
o    -1.2822288   -0.5734139   -2.5884669  0.00    0.0013573    0.0014887   -0.0057093
h    -1.5659286   -0.7372488   -1.6298885  0.00    0.0143638   -0.0131172    0.0125367
n     1.2067298   -3.1977778   -2.1807573  0.00   -0.0045808    0.0069015   -0.0141422
h    -0.0766315   -2.0799186   -0.9051649  0.00   -0.0096068    0.0089945   -0.0044895
h     2.2134168   -3.3578210   -1.9080475  0.00    0.0126730   -0.0011617    0.0030806
h     0.6491849   -3.9870709   -1.7551252  0.00   -0.0071414   -0.0104677    0.0070182
    24
 Energy =       0.0823151446
c     0.1216650    1.5772347    0.9843313  0.00   -0.0026424   -0.0004574    0.0029744
c     0.3526455    2.7026279    0.2522164  0.00   -0.0018433    0.0016599    0.0016177
c     1.0635438    2.6214236   -0.8993901  0.00    0.0021062    0.0018652   -0.0029833
c     0.6059517    0.3800156    0.5636116  0.00   -0.0021692   -0.0015353    0.0025923
c     1.3238802    0.2975954   -0.5941654  0.00    0.0023845   -0.0018526   -0.0009868
c     1.5448117    1.4261989   -1.3277348  0.00    0.0019741    0.0011854   -0.0025665
o    -0.1275553    3.9514270    0.6593200  0.00    0.0034306    0.0004965   -0.0039728
h    -0.6826936    3.9234973    1.5112428  0.00   -0.0032883   -0.0007230    0.0039365
h     2.0962231    1.3794107   -2.2668746  0.00    0.0015916    0.0005059   -0.0023701
h     0.4111546   -0.5119897    1.1566044  0.00   -0.0007919   -0.0012587    0.0013192
h    -0.4499785    1.6323670    1.9072475  0.00   -0.0015314   -0.0002817    0.0021946
h     1.2334154    3.5243521   -1.4788955  0.00    0.0008247    0.0012517   -0.0014799
c     1.8224425   -1.0452308   -1.0859588  0.00   -0.0006423    0.0009076    0.0000678
c     0.6821170   -1.8999612   -1.6895904  0.00   -0.0039713    0.0016036    0.0035740
h     2.2871839   -1.5892746   -0.2335035  0.00    0.0002704   -0.0001711    0.0003881
h     2.6233889   -0.9140999   -1.8509782  0.00    0.0002098   -0.0000031   -0.0003717
c    -0.0158650   -1.1622802   -2.8358166  0.00    0.0027006    0.0002263   -0.0029693
o     0.6091564   -1.0323338   -4.0711586  0.00   -0.0006861   -0.0005394   -0.0000146
o    -1.2469846   -0.5349136   -2.6351565  0.00   -0.0002520    0.0021057   -0.0049765
h    -1.5535352   -0.6402019   -1.6763612  0.00    0.0066816   -0.0070453    0.0089964
n     1.2041669   -3.2060461   -2.1478552  0.00   -0.0080725    0.0156946   -0.0187043
h    -0.0838076   -2.0691670   -0.8974121  0.00   -0.0053799    0.0048670   -0.0021422
h     2.1631706   -3.4242520   -1.7492944  0.00    0.0221077   -0.0032895    0.0070476
h     0.5560959   -3.9804949   -1.8244210  0.00   -0.0130111   -0.0152124    0.0088296
    24
 Energy =       0.0817314577
c     0.1108074    1.5723719    1.0091742  0.00   -0.0017892   -0.0004106    0.0020409
c     0.3272163    2.6930302    0.2665427  0.00   -0.0012329    0.0011255    0.0010750
c     1.0273607    2.6068088   -0.8900508  0.00    0.0014385    0.0013233   -0.0020433
c     0.5986565    0.3751035    0.5939014  0.00   -0.0014996   -0.0011256    0.0017155
c     1.3086035    0.2884822   -0.5670155  0.00    0.0016117   -0.0012548   -0.0004296
c     1.5140548    1.4117611   -1.3117741  0.00    0.0013044    0.0009081   -0.0017857
o    -0.1581827    3.9418886    0.6674846  0.00    0.0024358    0.0004432   -0.0028654
h    -0.6984420    3.9190491    1.5280307  0.00   -0.0023321   -0.0005261    0.0028091
h     2.0575599    1.3601608   -2.2545162  0.00    0.0010501    0.0003518   -0.0016288
h     0.4141108   -0.5135653    1.1944024  0.00   -0.0005437   -0.0009505    0.0008807
h    -0.4529688    1.6312713    1.9358158  0.00   -0.0010401   -0.0002117    0.0014912
h     1.1850005    3.5056996   -1.4783960  0.00    0.0005738    0.0009288   -0.0010488
c     1.8141725   -1.0541168   -1.0505617  0.00   -0.0001409    0.0008266    0.0004941
c     0.6880191   -1.8903192   -1.7060407  0.00   -0.0021434    0.0002789    0.0033590
h     2.2406294   -1.6112353   -0.1856380  0.00    0.0005238   -0.0004086    0.0010080
h     2.6470798   -0.9224892   -1.7819271  0.00    0.0009818    0.0001229   -0.0008712
c     0.0655475   -1.1463791   -2.8952102  0.00    0.0017770   -0.0008542   -0.0008178
o     0.7679095   -1.0290003   -4.0928570  0.00    0.0018466    0.0001117   -0.0041286
o    -1.1677054   -0.4975718   -2.7738073  0.00   -0.0026546    0.0037011   -0.0064153
h    -1.5358734   -0.5828362   -1.8342532  0.00    0.0030951   -0.0048255    0.0092685
n     1.2079381   -3.2090129   -2.1291556  0.00   -0.0049227    0.0101375   -0.0126627
h    -0.1196356   -2.0409515   -0.9499543  0.00   -0.0047999    0.0029890   -0.0001614
h     2.1517082   -3.4315350   -1.7088572  0.00    0.0151855   -0.0023267    0.0046870
h     0.5470268   -3.9707097   -1.8153300  0.00   -0.0087251   -0.0103541    0.0060296
    24
 Energy =       0.0817000399
c     0.1248504    1.5321341    1.0549914  0.00   -0.0015563   -0.0002698    0.0018022
c     0.3485304    2.6630038    0.3303972  0.00   -0.0009948    0.0009554    0.0008267
c     1.0409374    2.5889812   -0.8313042  0.00    0.0011378    0.0013241   -0.0016808
c     0.5974247    0.3367974    0.6165318  0.00   -0.0011864   -0.0011823    0.0014252
c     1.3006456    0.2626767   -0.5489166  0.00    0.0015318   -0.0009860   -0.0002436
c     1.5134996    1.3962809   -1.2754734  0.00    0.0011556    0.0006789   -0.0016292
o    -0.1218625    3.9100563    0.7550942  0.00    0.0019088    0.0008015   -0.0023115
h    -0.6538100    3.8793510    1.6201966  0.00   -0.0019948   -0.0003642    0.0024092
h     2.0513773    1.3548212   -2.2217296  0.00    0.0009013    0.0002576   -0.0014093
h     0.4063291   -0.5602164    1.2023589  0.00   -0.0004499   -0.0009578    0.0007838
h    -0.4330655    1.5812888    1.9855014  0.00   -0.0008954   -0.0001551    0.0012902
h     1.2041489    3.4959892   -1.4053736  0.00    0.0004708    0.0009147   -0.0009165
c     1.7893735   -1.0766298   -1.0586323  0.00    0.0003584    0.0013676    0.0004418
c     0.6604013   -1.8720412   -1.7611467  0.00   -0.0013054   -0.0008653    0.0026816
h     2.1869012   -1.6669823   -0.2010205  0.00    0.0007657   -0.0008053    0.0016071
h     2.6403682   -0.9402264   -1.7682089  0.00    0.0011249    0.0003421   -0.0009490
c     0.0873210   -1.0883426   -2.9508731  0.00    0.0032615   -0.0018743   -0.0012330
o     0.8049004   -1.0028980   -4.1421217  0.00    0.0021074    0.0000504   -0.0039740
o    -1.1082576   -0.3676844   -2.8344489  0.00   -0.0053559    0.0052113   -0.0057676
h    -1.4827382   -0.4240831   -1.8955450  0.00    0.0019058   -0.0035448    0.0080962
n     1.1584184   -3.1953656   -2.1968700  0.00   -0.0041800    0.0079371   -0.0104935
h    -0.1717151   -2.0186409   -1.0305587  0.00   -0.0042637    0.0017881    0.0003335
h     2.1035890   -3.4321134   -1.7915259  0.00    0.0127471   -0.0020972    0.0039707
h     0.4930260   -3.9502521   -1.8813154  0.00   -0.0071944   -0.0085267    0.0049398
    24
 Energy =       0.0816873554
c     0.1291102    1.5568727    1.0253482  0.00   -0.0018886   -0.0003209    0.0021960
c     0.3489963    2.6822918    0.2905241  0.00   -0.0011887    0.0011636    0.0009737
c     1.0433051    2.6007869   -0.8700263  0.00    0.0013599    0.0016434   -0.0020286
c     0.6076718    0.3595217    0.5983397  0.00   -0.0014236   -0.0014852    0.0017254
c     1.3118879    0.2777121   -0.5664961  0.00    0.0019551   -0.0011364   -0.0002104
c     1.5207943    1.4058045   -1.3033877  0.00    0.0014114    0.0008200   -0.0020033
o    -0.1269445    3.9312864    0.7035550  0.00    0.0022796    0.0010557   -0.0027799
h    -0.6634078    3.9052917    1.5664752  0.00   -0.0024197   -0.0004182    0.0029234
h     2.0594145    1.3581528   -2.2492068  0.00    0.0010860    0.0002977   -0.0017155
h     0.4202069   -0.5330700    1.1925017  0.00   -0.0005433   -0.0012059    0.0009611
h    -0.4301094    1.6120403    1.9550689  0.00   -0.0010849   -0.0001860    0.0015676
h     1.2035963    3.5034797   -1.4521516  0.00    0.0005667    0.0011403   -0.0011226
c     1.8058014   -1.0646489   -1.0637809  0.00    0.0006833    0.0021412    0.0006545
c     0.6705331   -1.8879523   -1.7255033  0.00   -0.0014876   -0.0016756    0.0034141
h     2.2308063   -1.6332337   -0.2035497  0.00    0.0011348   -0.0012028    0.0024447
h     2.6384453   -0.9316019   -1.7964379  0.00    0.0016720    0.0005720   -0.0014102
c     0.0475720   -1.1248845   -2.9055486  0.00    0.0037416   -0.0023948   -0.0012843
o     0.7275895   -1.0362854   -4.1197807  0.00    0.0029675    0.0002636   -0.0059258
o    -1.1592433   -0.4265040   -2.7584188  0.00   -0.0070799    0.0068670   -0.0078207
h    -1.5038182   -0.4866178   -1.8068816  0.00    0.0020229   -0.0042648    0.0105320
n     1.1830282   -3.2046618   -2.1647581  0.00   -0.0051408    0.0103671   -0.0135973
h    -0.1376332   -2.0445177   -0.9690778  0.00   -0.0055704    0.0018888    0.0008693
h     2.1111144   -3.4503514   -1.7208796  0.00    0.0165679   -0.0028364    0.0055129
h     0.5018763   -3.9630068   -1.8859203  0.00   -0.0096210   -0.0110934    0.0061238
    24
 Energy =       0.0809659430
c     0.1755992    1.5259995    1.0628011  0.00   -0.0017905   -0.0002713    0.0022964
c     0.3644996    2.6645099    0.3397525  0.00   -0.0010374    0.0009675    0.0009815
c     1.0249882    2.6068343   -0.8420383  0.00    0.0012958    0.0015506   -0.0020415
c     0.6514824    0.3396294    0.6030194  0.00   -0.0013507   -0.0014620    0.0018698
c     1.3219470    0.2819334   -0.5833391  0.00    0.0016253   -0.0012223   -0.0005446
c     1.4996356    1.4228684   -1.3081477  0.00    0.0014259    0.0006098   -0.0021107
o    -0.1093022    3.9030025    0.7866961  0.00    0.0019367    0.0013979   -0.0025522
h    -0.6178425    3.8597992    1.6657999  0.00   -0.0023987   -0.0002787    0.0031640
h     2.0117376    1.3943838   -2.2695118  0.00    0.0011538    0.0002237   -0.0018495
h     0.4895078   -0.5634854    1.1887817  0.00   -0.0005702   -0.0012316    0.0010447
h    -0.3565531    1.5619862    2.0094693  0.00   -0.0011956   -0.0001584    0.0018168
h     1.1611258    3.5199013   -1.4139743  0.00    0.0005473    0.0011518   -0.0010718
c     1.8163392   -1.0475661   -1.1140090  0.00    0.0004817    0.0015174    0.0002459
c     0.6714893   -1.8753749   -1.7505235  0.00   -0.0005597   -0.0009984    0.0031554
h     2.2744440   -1.6202830   -0.2738622  0.00    0.0011175   -0.0012887    0.0024016
h     2.6250648   -0.8974702   -1.8700035  0.00    0.0017760    0.0003647   -0.0014902
c     0.0076761   -1.1062123   -2.9038947  0.00    0.0027528   -0.0019808   -0.0008484
o     0.6583652   -0.9897012   -4.1314135  0.00    0.0028093    0.0003042   -0.0054206
o    -1.2076152   -0.4324029   -2.7226013  0.00   -0.0060049    0.0057744   -0.0062123
h    -1.5348535   -0.5082257   -1.7672139  0.00    0.0012563   -0.0030578    0.0082040
n     1.1905418   -3.1780140   -2.2202517  0.00   -0.0042377    0.0151620   -0.0170354
h    -0.1095940   -2.0534065   -0.9713741  0.00   -0.0047029    0.0015552    0.0013329
h     2.0660037   -3.4709627   -1.6994811  0.00    0.0197498   -0.0033207    0.0084665
h     0.4659065   -3.9318383   -2.0446734  0.00   -0.0140796   -0.0153085    0.0061979
    24
 Energy =       0.0800010052
c     0.2288130    1.5801263    1.0319835  0.00   -0.0016458   -0.0012443    0.0027036
c     0.3725077    2.7023760    0.2724126  0.00   -0.0009299    0.0012669    0.0007912
c     0.9926518    2.6245974   -0.9301934  0.00    0.0014310    0.0017717   -0.0026202
c     0.7095197    0.3901147    0.5876603  0.00   -0.0014814   -0.0016093    0.0025377
c     1.3389400    0.3122451   -0.6201589  0.00    0.0016928   -0.0012706   -0.0002176
c     1.4713326    1.4366041   -1.3812332  0.00    0.0013896    0.0015609   -0.0025647
o    -0.1072792    3.9444155    0.7027385  0.00    0.0020432    0.0015730   -0.0031316
h    -0.5852114    3.9156239    1.5995533  0.00   -0.0023807   -0.0003624    0.0034311
h     1.9507112    1.3913437   -2.3589786  0.00    0.0012129    0.0004752   -0.0021940
h     0.5844752   -0.4998020    1.2032415  0.00   -0.0006874   -0.0018447    0.0016554
h    -0.2708670    1.6320891    1.9957295  0.00   -0.0012525   -0.0004123    0.0021423
h     1.0932372    3.5246824   -1.5306239  0.00    0.0006352    0.0017326   -0.0016011
c     1.8401877   -1.0224457   -1.1308978  0.00    0.0010394    0.0031745    0.0007664
c     0.6858376   -1.8989286   -1.6835119  0.00    0.0000652   -0.0031807    0.0023011
h     2.3533389   -1.5548543   -0.2943619  0.00    0.0017909   -0.0016969    0.0037631
h     2.6083187   -0.8792279   -1.9309263  0.00    0.0026043    0.0008665   -0.0023047
c    -0.0579603   -1.1803767   -2.8236136  0.00    0.0029124   -0.0025706   -0.0014771
o     0.5484975   -1.0420890   -4.0715412  0.00    0.0027058    0.0006005   -0.0057483
o    -1.3069424   -0.5767305   -2.6160418  0.00   -0.0081281    0.0066431   -0.0055133
h    -1.6114721   -0.6669788   -1.6552221  0.00    0.0003638   -0.0021080    0.0066505
n     1.2228013   -3.1956189   -2.1443345  0.00   -0.0044340    0.0147544   -0.0166455
h    -0.0457726   -2.0825413   -0.8578276  0.00   -0.0046176   -0.0000260    0.0027314
h     2.0481449   -3.5086042   -1.5574585  0.00    0.0194205   -0.0041573    0.0093574
h     0.4767833   -3.9401160   -2.0363870  0.00   -0.0137496   -0.0139362    0.0051867
    24
 Energy =       0.0784774647
c     0.3147821    1.6290980    1.0205946  0.00   -0.0012065   -0.0021812    0.0030485
c     0.3925031    2.7319089    0.2230367  0.00   -0.0007942    0.0013635    0.0008296
c     0.9437455    2.6318941   -1.0114973  0.00    0.0016008    0.0012961   -0.0034692
c     0.7923145    0.4365007    0.5818895  0.00   -0.0015858   -0.0010967    0.0033491
c     1.3530283    0.3366313   -0.6580794  0.00    0.0012952   -0.0013285   -0.0003914
c     1.4192841    1.4411507   -1.4566388  0.00    0.0010906    0.0023859   -0.0029103
o    -0.0862310    3.9763336    0.6463600  0.00    0.0022672    0.0009917   -0.0042765
h    -0.5079355    3.9646525    1.5717965  0.00   -0.0023687   -0.0004129    0.0042867
h     1.8435475    1.3773507   -2.4590003  0.00    0.0012051    0.0006615   -0.0027010
h     0.7205096   -0.4377310    1.2283288  0.00   -0.0007323   -0.0019899    0.0022062
h    -0.1297630    1.6987393    2.0103308  0.00   -0.0012732   -0.0005870    0.0026681
h     0.9922843    3.5164072   -1.6414713  0.00    0.0006472    0.0019285   -0.0020868
c     1.8542900   -1.0010791   -1.1588495  0.00    0.0008628    0.0028403    0.0006343
c     0.6934027   -1.9124402   -1.6288593  0.00    0.0001638   -0.0032895    0.0010993
h     2.4209293   -1.5010249   -0.3383237  0.00    0.0015085   -0.0010320    0.0030485
h     2.5782454   -0.8655708   -1.9997116  0.00    0.0021716    0.0007283   -0.0019683
c    -0.1204433   -1.2401316   -2.7479375  0.00    0.0019260   -0.0022378   -0.0010757
o     0.4412198   -1.0806446   -4.0125592  0.00    0.0015598    0.0004908   -0.0034666
o    -1.3943020   -0.7065415   -2.5121631  0.00   -0.0060403    0.0043867   -0.0024693
h    -1.6760537   -0.8064796   -1.5476551  0.00   -0.0004055   -0.0006179    0.0026375
n     1.2440320   -3.2026463   -2.0819280  0.00   -0.0033699    0.0170595   -0.0171694
h     0.0129649   -2.0973590   -0.7626515  0.00   -0.0023795   -0.0010959    0.0025524
h     1.9720972   -3.5615299   -1.3987054  0.00    0.0186886   -0.0056178    0.0129926
h     0.4661418   -3.9215840   -2.0962992  0.00   -0.0148315   -0.0126457    0.0026318
    24
 Energy =       0.0771361976
c     0.4089590    1.6655931    1.0258778  0.00   -0.0007071   -0.0019282    0.0026382
c     0.4104286    2.7491133    0.1996022  0.00   -0.0005867    0.0010701    0.0008006