    24
 Energy =       0.1330179768
c     1.6703672    2.6182922    0.2614132  0.00    0.0460416    0.0693151    0.0301657
c     0.3248649    2.9356558    0.1418766  0.00   -0.0125233    0.1013584    0.0323152
c    -0.5827484    1.9945952   -0.3219261  0.00   -0.0959644    0.0704122    0.0085894
c     2.1038063    1.3347474   -0.0833024  0.00    0.0671904   -0.0101369    0.0084972
c     1.2047783    0.3610782   -0.5608861  0.00    0.0190768   -0.0963375   -0.0238069
c    -0.1441045    0.7159142   -0.6796715  0.00   -0.0314349   -0.0463706   -0.0214599
o    -0.1504797    4.1703171    0.4675790  0.00   -0.0701289   -0.0414222   -0.0252085
h    -1.1136271    4.1743505    0.3425231  0.00    0.0726905   -0.0554042   -0.0079213
h    -0.8895274    0.0262790   -1.0546636  0.00   -0.0073217   -0.0056438   -0.0009500
h     3.1621727    1.0964802    0.0165124  0.00    0.0024527   -0.0001394   -0.0007553
h     2.3926004    3.3457758    0.6178375  0.00    0.0103544   -0.0073803   -0.0012511
h    -1.6336796    2.2563998   -0.4108671  0.00    0.0013057    0.0132406    0.0057765
c     1.7669373   -1.0073413   -0.8964724  0.00    0.0259268   -0.0274002   -0.0326283
c     0.8861134   -2.0194266   -1.6556448  0.00    0.0796481    0.1319254   -0.0011811
h     2.1212937   -1.4658931    0.0371405  0.00   -0.0041302    0.0085924   -0.0109936
h     2.6645729   -0.8285312   -1.5058794  0.00   -0.0111462   -0.0211470    0.0004146
c     1.7481012   -3.2276699   -2.0845864  0.00   -0.0602308   -0.4053970   -0.0325175
o     1.3811872   -4.3909871   -2.1326929  0.00    0.0915292    0.2845867    0.0167112
o     3.0187337   -2.8368894   -2.3754934  0.00   -0.0506273    0.0707949    0.0380723
h     3.5228656   -3.6775189   -2.5199890  0.00   -0.0375261    0.0210844    0.0136774
n    -0.2697763   -2.5678537   -0.8742070  0.00   -0.0631606   -0.0474298    0.0063483
h     0.4960411   -1.5757973   -2.5789902  0.00   -0.0086003   -0.0109769    0.0213840
h    -0.1377783   -2.3090138    0.1103184  0.00    0.0001335    0.0041024   -0.0368652
h    -1.1177682   -2.0693246   -1.1533357  0.00    0.0364451   -0.0002268    0.0135870
    24
 Energy =       0.0920844451
c     1.5603807    2.6241882    0.2434504  0.00    0.0259433    0.0385873    0.0163811
c     0.2283729    2.9147380    0.1024853  0.00   -0.0065620    0.0571129    0.0176034
c    -0.6367367    1.9682579   -0.3882929  0.00   -0.0538495    0.0418145    0.0058619
c     2.0244485    1.3693211   -0.0889862  0.00    0.0376218   -0.0062282    0.0042732
c     1.1658575    0.3934273   -0.5787745  0.00    0.0096666   -0.0535366   -0.0134085
c    -0.1721030    0.7139030   -0.7335318  0.00   -0.0185332   -0.0254903   -0.0116106
o    -0.2615388    4.1513418    0.4581848  0.00   -0.0386212   -0.0231765   -0.0131049
h    -1.2424500    4.1831006    0.3247555  0.00    0.0400974   -0.0336450   -0.0053274
h    -0.8876308    0.0054943   -1.1285414  0.00   -0.0048372   -0.0035573   -0.0007985
h     3.0838078    1.1520272    0.0439657  0.00    0.0021282   -0.0003726   -0.0004089
h     2.2468771    3.3724246    0.6275633  0.00    0.0065399   -0.0034745   -0.0003534
h    -1.6893728    2.2085840   -0.5037350  0.00    0.0005797    0.0083158    0.0034143
c     1.7688763   -0.9699658   -0.8712644  0.00    0.0153019   -0.0155879   -0.0186779
c     0.9487875   -2.0289077   -1.6479439  0.00    0.0429387    0.0732726   -0.0009270
h     2.1057723   -1.4070917    0.0869095  0.00   -0.0019710    0.0048770   -0.0054417
h     2.6907205   -0.7770955   -1.4531046  0.00   -0.0057751   -0.0127915   -0.0005063
c     1.8764202   -3.1886906   -2.0452146  0.00   -0.0354830   -0.2261792   -0.0208331
o     1.5148176   -4.4320553   -2.0885160  0.00    0.0537244    0.1585703    0.0107554
o     3.1774868   -2.8257600   -2.3027261  0.00   -0.0268398    0.0414623    0.0237973
h     3.6795133   -3.6732559   -2.4795128  0.00   -0.0214652    0.0109221    0.0074485
n    -0.1928326   -2.5859798   -0.8698300  0.00   -0.0349308   -0.0280441   -0.0001788
h     0.5703744   -1.6043278   -2.5938156  0.00   -0.0051808   -0.0062813    0.0117417
h    -0.0638326   -2.3899579    0.1405915  0.00    0.0000504    0.0028023   -0.0173568
h    -1.0710696   -2.1200814   -1.1475232  0.00    0.0194564    0.0006280    0.0076567
    24
 Energy =       0.0821440580
c     1.4774535    2.6499783    0.1984799  0.00    0.0179314    0.0265256    0.0112703
c     0.1503910    2.9168189    0.0285721  0.00   -0.0045389    0.0393574    0.0121677
c    -0.6823581    1.9535077   -0.4710279  0.00   -0.0370106    0.0291742    0.0043808
c     1.9684417    1.4055129   -0.1040414  0.00    0.0260045   -0.0045336    0.0027425
c     1.1411255    0.4144492   -0.5966193  0.00    0.0058621   -0.0361530   -0.0093006
c    -0.1915822    0.7095719   -0.7896033  0.00   -0.0133242   -0.0174042   -0.0079987
o    -0.3596765    4.1570822    0.3696219  0.00   -0.0247023   -0.0150698   -0.0089986
h    -1.3546026    4.1745855    0.2780789  0.00    0.0254511   -0.0237595   -0.0034372
h    -0.8838131   -0.0139233   -1.1941173  0.00   -0.0036635   -0.0025967   -0.0006358
h     3.0270073    1.2072567    0.0622484  0.00    0.0022074   -0.0004790   -0.0002005
h     2.1377373    3.4174493    0.5905090  0.00    0.0048328   -0.0020375   -0.0000777
h    -1.7356511    2.1739130   -0.6165878  0.00   -0.0001405    0.0059804    0.0022849
c     1.7699201   -0.9520152   -0.8283808  0.00    0.0102942   -0.0106118   -0.0128612
c     1.0059605   -2.0410653   -1.6299232  0.00    0.0283127    0.0497801   -0.0012758
h     2.0598523   -1.3666364    0.1590054  0.00   -0.0007124    0.0030707   -0.0020148
h     2.7256813   -0.7614343   -1.3620333  0.00   -0.0024655   -0.0090847   -0.0012920
c     1.9754995   -3.1799308   -1.9809277  0.00   -0.0250831   -0.1538024   -0.0157044
o     1.6235156   -4.4583224   -2.0095464  0.00    0.0374562    0.1073091    0.0079184
o     3.2925880   -2.8247771   -2.1984784  0.00   -0.0185135    0.0302292    0.0168809
h     3.8146812   -3.6762707   -2.3207596  0.00   -0.0128102    0.0052423    0.0051760
n    -0.1472378   -2.6060307   -0.8813774  0.00   -0.0252456   -0.0198787   -0.0040711
h     0.6557062   -1.6325527   -2.5973280  0.00   -0.0039132   -0.0043498    0.0073884
h    -0.0182174   -2.4840594    0.1463028  0.00    0.0005773    0.0023008   -0.0073626
h    -1.0274754   -2.1294689   -1.1454736  0.00    0.0131939    0.0007911    0.0050211
    24
 Energy =       0.0817063322
c     1.4839132    2.6618336    0.1594041  0.00    0.0160973    0.0239374    0.0101205
c     0.1596825    2.9344647   -0.0095073  0.00   -0.0040893    0.0353256    0.0108644
c    -0.6749695    1.9778638   -0.5148547  0.00   -0.0332977    0.0259848    0.0038029
c     1.9675276    1.4139854   -0.1339786  0.00    0.0233590   -0.0039659    0.0025083
c     1.1360180    0.4257025   -0.6217519  0.00    0.0045795   -0.0318553   -0.0084566
c    -0.1911947    0.7313178   -0.8269762  0.00   -0.0120796   -0.0156581   -0.0071825
o    -0.3448372    4.1739180    0.3471718  0.00   -0.0146153   -0.0132723   -0.0080729
h    -1.3503662    4.1699858    0.3495322  0.00    0.0152256   -0.0211714   -0.0027312
h    -0.8867579    0.0142238   -1.2325547  0.00   -0.0033037   -0.0026490   -0.0005786
h     3.0226983    1.2086901    0.0441437  0.00    0.0020971   -0.0004841   -0.0001624
h     2.1457679    3.4261283    0.5547853  0.00    0.0043628   -0.0018259   -0.0000632
h    -1.7258657    2.2054373   -0.6666204  0.00   -0.0001907    0.0052899    0.0019481
c     1.7476875   -0.9581077   -0.8059531  0.00    0.0082466   -0.0096430   -0.0119014
c     1.0109702   -2.0453203   -1.6390759  0.00    0.0256868    0.0455559   -0.0014239
h     1.9747096   -1.3664679    0.2026395  0.00   -0.0000776    0.0020429    0.0001287
h     2.7385317   -0.7928355   -1.2865668  0.00   -0.0002105   -0.0080522   -0.0022048
c     1.9868956   -3.1948565   -1.9398980  0.00   -0.0237802   -0.1379835   -0.0142203
o     1.6219417   -4.4770204   -1.9462838  0.00    0.0338928    0.0960087    0.0071468
o     3.3193532   -2.8626094   -2.1078973  0.00   -0.0159022    0.0284625    0.0151451
h     3.8387048   -3.7239977   -2.1796355  0.00   -0.0100006    0.0030178    0.0045461
n    -0.1766702   -2.5995569   -0.9371462  0.00   -0.0237309   -0.0203173   -0.0065782
h     0.7055237   -1.6381421   -2.6234334  0.00   -0.0038891   -0.0036587    0.0056531
h    -0.0482393   -2.5581797    0.1004050  0.00    0.0018495    0.0022176   -0.0015002
h    -1.0360782   -2.0728183   -1.1793552  0.00    0.0097702    0.0026937    0.0032122
    24
 Energy =       0.0796770788
c     1.3944260    2.6735666    0.1679895  0.00    0.0160184    0.0234334    0.0099242
c     0.0662408    2.9094827   -0.0275614  0.00   -0.0035887    0.0337631    0.0105099
c    -0.7351622    1.9214181   -0.5283817  0.00   -0.0324800    0.0244161    0.0033514
c     1.9175055    1.4381074   -0.1093802  0.00    0.0232209   -0.0038390    0.0025556
c     1.1218713    0.4242274   -0.6030440  0.00    0.0042411   -0.0305730   -0.0085189
c    -0.2121765    0.6862921   -0.8229734  0.00   -0.0121088   -0.0155361   -0.0071515
o    -0.4743936    4.1474880    0.2880602  0.00   -0.0069515   -0.0113645   -0.0065567
h    -1.4805131    4.1487159    0.1907791  0.00    0.0064294   -0.0192441   -0.0032023
h    -0.8802220   -0.0579266   -1.2312711  0.00   -0.0036733   -0.0032008   -0.0008727
h     2.9773684    1.2655186    0.0786074  0.00    0.0026500   -0.0005502   -0.0000297
h     2.0297336    3.4617556    0.5611306  0.00    0.0045795   -0.0012544    0.0001854
h    -1.7906708    2.1154621   -0.6964542  0.00   -0.0009428    0.0049903    0.0016341
c     1.7871422   -0.9320935   -0.8037793  0.00    0.0073933   -0.0097680   -0.0116805
c     1.0637693   -2.0519467   -1.6042627  0.00    0.0247630    0.0444511   -0.0013354
h     2.0712250   -1.3286918    0.1970542  0.00    0.0004554    0.0010151    0.0014631
h     2.7510846   -0.7239660   -1.3252732  0.00    0.0015655   -0.0070159   -0.0028870
c     2.0692376   -3.1704669   -1.9212147  0.00   -0.0237143   -0.1319704   -0.0131773
o     1.7454909   -4.4666828   -1.9412700  0.00    0.0322445    0.0907314    0.0067264
o     3.3886455   -2.7949865   -2.1155441  0.00   -0.0143520    0.0286280    0.0143263
h     3.9338160   -3.6386059   -2.2136302  0.00   -0.0086614    0.0018387    0.0041911
n    -0.0902664   -2.6308223   -0.8659048  0.00   -0.0209310   -0.0241482   -0.0088389
h     0.7221842   -1.6641046   -2.5860604  0.00   -0.0040896   -0.0031238    0.0047438
h     0.0290968   -2.5063773    0.1695893  0.00    0.0033932    0.0028467    0.0039736
h    -0.9804865   -2.1717249   -1.1506119  0.00    0.0045391    0.0054747    0.0006659
    24
 Energy =       0.0795817150
c     1.2936068    2.6719284    0.2087866  0.00    0.0154614    0.0230568    0.0096742
c    -0.0408809    2.8665727    0.0106252  0.00   -0.0027308    0.0317019    0.0098443
c    -0.8030610    1.8648601   -0.5246420  0.00   -0.0314525    0.0227539    0.0028117
c     1.8598698    1.4611245   -0.0916743  0.00    0.0229148   -0.0038466    0.0025274
c     1.1024048    0.4318825   -0.6122796  0.00    0.0037937   -0.0291858   -0.0084423
c    -0.2371082    0.6537030   -0.8412433  0.00   -0.0117993   -0.0157354   -0.0071651
o    -0.6298696    4.0741078    0.3664185  0.00   -0.0057949   -0.0082254   -0.0053102
h    -1.6392663    4.0325941    0.2958654  0.00    0.0038508   -0.0176035   -0.0028293
h    -0.8750488   -0.1053785   -1.2730363  0.00   -0.0039577   -0.0036808   -0.0011697
h     2.9240208    1.3199178    0.1007697  0.00    0.0030806   -0.0005884    0.0000849
h     1.8980302    3.4715951    0.6282843  0.00    0.0047506   -0.0004109    0.0005423
h    -1.8631877    2.0276535   -0.6984622  0.00   -0.0014517    0.0047095    0.0013843
c     1.8207792   -0.8928766   -0.8422940  0.00    0.0067155   -0.0101491   -0.0107835
c     1.1343087   -2.0418776   -1.6336336  0.00    0.0228329    0.0424597   -0.0010584
h     2.1442561   -1.2865099    0.1489361  0.00    0.0006680    0.0002368    0.0019404
h     2.7629836   -0.6375071   -1.3852921  0.00    0.0027212   -0.0059186   -0.0033443
c     2.1776678   -3.1328889   -1.9256746  0.00   -0.0230618   -0.1250433   -0.0125596
o     1.8967048   -4.4428492   -1.9418350  0.00    0.0304892    0.0847506    0.0064142
o     3.4915702   -2.7199159   -2.0945153  0.00   -0.0129313    0.0280905    0.0134424
h     4.0657019   -3.5473779   -2.1718017  0.00   -0.0073366    0.0007969    0.0038727
n    -0.0103243   -2.6408195   -0.8976523  0.00   -0.0170677   -0.0256236   -0.0101394
h     0.7919177   -1.6746387   -2.6236245  0.00   -0.0040650   -0.0028952    0.0042900
h     0.0745361   -2.4617201    0.1352415  0.00    0.0039808    0.0034585    0.0070113
h    -0.9146651   -2.2379407   -1.2306735  0.00    0.0003899    0.0068914   -0.0010382
    24
 Energy =       0.0795577145
c     1.2146596    2.6943899    0.1645357  0.00    0.0149696    0.0223553    0.0093995
c    -0.1190735    2.8627701   -0.0594150  0.00   -0.0023413    0.0300560    0.0094073
c    -0.8559867    1.8355996   -0.5819091  0.00   -0.0303568    0.0215227    0.0025454
c     1.8060581    1.4884892   -0.1035616  0.00    0.0223930   -0.0038362    0.0024763
c     1.0753056    0.4364176   -0.6162318  0.00    0.0035546   -0.0280036   -0.0081037
c    -0.2645092    0.6286882   -0.8669603  0.00   -0.0115143   -0.0154737   -0.0070684
o    -0.7318140    4.0726049    0.2519929  0.00   -0.0047176   -0.0065795   -0.0046005
h    -1.7380988    4.0264372    0.1371123  0.00    0.0019587   -0.0163306   -0.0027499
h    -0.8824047   -0.1502767   -1.2926491  0.00   -0.0040037   -0.0037467   -0.0012912
h     2.8698529    1.3705241    0.1074578  0.00    0.0034045   -0.0006261    0.0001706
h     1.7990353    3.5138360    0.5747473  0.00    0.0047409   -0.0000151    0.0006931
h    -1.9164171    1.9754831   -0.7740426  0.00   -0.0018362    0.0044907    0.0012141
c     1.8244136   -0.8779016   -0.8087941  0.00    0.0069063   -0.0093080   -0.0099267
c     1.1894973   -2.0574014   -1.6012992  0.00    0.0208500    0.0404937   -0.0013514
h     2.1346830   -1.2484740    0.1958023  0.00    0.0009103    0.0002276    0.0022713
h     2.7730445   -0.6071263   -1.3328922  0.00    0.0028805   -0.0054932   -0.0032638
c     2.2732792   -3.1204047   -1.8558538  0.00   -0.0225749   -0.1190368   -0.0122036
o     2.0345742   -4.4422003   -1.8664410  0.00    0.0290476    0.0793667    0.0061497
o     3.5820581   -2.6722790   -1.9880177  0.00   -0.0114350    0.0277790    0.0126136
h     4.1834722   -3.4835111   -2.0378238  0.00   -0.0058984   -0.0002751    0.0036075
n     0.0469497   -2.6794698   -0.8821070  0.00   -0.0167844   -0.0245521   -0.0098514
h     0.8573795   -1.7127242   -2.6032569  0.00   -0.0041737   -0.0027735    0.0037711
h     0.1286521   -2.5224458    0.1546091  0.00    0.0036775    0.0032677    0.0071141
h    -0.8596644   -2.2773865   -1.2084093  0.00    0.0003429    0.0064907   -0.0010229
    24
 Energy =       0.0767516148
c     1.2258445    2.7096146    0.1210613  0.00    0.0130149    0.0197890    0.0082882
c    -0.1035437    2.8773466   -0.1205794  0.00   -0.0015236    0.0258743    0.0083204
c    -0.8392296    1.8376393   -0.6167750  0.00   -0.0267111    0.0185569    0.0022094
c     1.8167996    1.4975591   -0.1127992  0.00    0.0198740   -0.0036282    0.0021084
c     1.0886536    0.4370897   -0.6062659  0.00    0.0030890   -0.0247619   -0.0073040
c    -0.2485333    0.6246853   -0.8673207  0.00   -0.0099790   -0.0140688   -0.0063815
o    -0.7090205    4.1050223    0.1400564  0.00   -0.0029856   -0.0044347   -0.0035620
h    -1.7108997    4.0805943   -0.0216408  0.00   -0.0005605   -0.0136803   -0.0026855
h    -0.8653414   -0.1642334   -1.2754392  0.00   -0.0035335   -0.0035770   -0.0012378
h     2.8785669    1.3826161    0.1078286  0.00    0.0030196   -0.0005627    0.0001486
h     1.8083143    3.5396368    0.5120477  0.00    0.0041386    0.0002745    0.0006750
h    -1.8980593    1.9734778   -0.8193269  0.00   -0.0017333    0.0038515    0.0010084
c     1.8318965   -0.8849453   -0.7682231  0.00    0.0061324   -0.0083226   -0.0087303
c     1.1816879   -2.0645950   -1.5480554  0.00    0.0182255    0.0358436   -0.0013808
h     2.1283697   -1.2441814    0.2444025  0.00    0.0008261    0.0000964    0.0021618
h     2.7885626   -0.6340485   -1.2877965  0.00    0.0027570   -0.0047844   -0.0029494
c     2.2479098   -3.1408078   -1.8100892  0.00   -0.0204754   -0.1044227   -0.0106530
o     1.9798359   -4.4630456   -1.8167527  0.00    0.0253649    0.0692341    0.0054979
o     3.5614512   -2.7180418   -1.9771087  0.00   -0.0094248    0.0251579    0.0110764
h     4.1463559   -3.5404772   -2.0477319  0.00   -0.0045818   -0.0006816    0.0031711
n     0.0390391   -2.6681059   -0.8144756  0.00   -0.0135760   -0.0228542   -0.0094688
h     0.8467504   -1.7217133   -2.5502009  0.00   -0.0036304   -0.0024723    0.0033036
h     0.1004125   -2.4670691    0.2165933  0.00    0.0034443    0.0030581    0.0081458
h    -0.8708763   -2.3003789   -1.1748159  0.00   -0.0011713    0.0065151   -0.0017618
    24
 Energy =       0.0741137183
c     1.2407074    2.7285652    0.0618614  0.00    0.0104834    0.0165863    0.0069112
c    -0.0847281    2.8920204   -0.1938300  0.00   -0.0007805    0.0209097    0.0069992
c    -0.8189889    1.8381631   -0.6577059  0.00   -0.0220966    0.0150075    0.0018409
c     1.8320129    1.5116323   -0.1340314  0.00    0.0165652   -0.0031624    0.0017044
c     1.1065084    0.4404448   -0.6008621  0.00    0.0023763   -0.0204782   -0.0062822
c    -0.2288056    0.6199670   -0.8684620  0.00   -0.0079926   -0.0122330   -0.0054369
o    -0.6832039    4.1349781    0.0163711  0.00   -0.0020922   -0.0022569   -0.0025873
h    -1.6796205    4.1260740   -0.1803940  0.00   -0.0017789   -0.0107132   -0.0024457
h    -0.8455552   -0.1821640   -1.2498419  0.00   -0.0029714   -0.0035748   -0.0011186
h     2.8921396    1.4021654    0.0945637  0.00    0.0025056   -0.0004512    0.0001316
h     1.8207631    3.5708031    0.4293542  0.00    0.0034077    0.0006156    0.0006537
h    -1.8769907    1.9671828   -0.8675282  0.00   -0.0015375    0.0030658    0.0007817
c     1.8425073   -0.8902657   -0.7239466  0.00    0.0050451   -0.0069722   -0.0074189
c     1.1780773   -2.0701163   -1.4911640  0.00    0.0148671    0.0302102   -0.0016227
h     2.1170549   -1.2357877    0.2995381  0.00    0.0007900   -0.0000731    0.0021305
h     2.8108825   -0.6648375   -1.2340308  0.00    0.0027069   -0.0039647   -0.0026416
c     2.2211556   -3.1691912   -1.7397123  0.00   -0.0171641   -0.0855581   -0.0088210
o     1.9121949   -4.4906875   -1.7284691  0.00    0.0203629    0.0558037    0.0047253
o     3.5433508   -2.7852165   -1.9339708  0.00   -0.0069020    0.0217620    0.0091238
h     4.1048110   -3.6241458   -2.0097966  0.00   -0.0032083   -0.0010719    0.0026176
n     0.0216965   -2.6405194   -0.7536955  0.00   -0.0050829   -0.0239140   -0.0111396
h     0.8568532   -1.7320234   -2.5001724  0.00   -0.0029138   -0.0020166    0.0025767
h     0.0267957   -2.3553200    0.2633644  0.00    0.0029630    0.0043410    0.0148413
h    -0.8846717   -2.3380827   -1.1908466  0.00   -0.0075525    0.0081386   -0.0055234
    24
 Energy =       0.0722974777
c     1.3271520    2.7249979    0.0517522  0.00    0.0094190    0.0150848    0.0062346
c     0.0059672    2.9179831   -0.2020102  0.00   -0.0005724    0.0183774    0.0061995
c    -0.7556193    1.8763659   -0.6476539  0.00   -0.0199581    0.0131764    0.0015407
c     1.8888552    1.4926262   -0.1314978  0.00    0.0150933   -0.0028026    0.0015761
c     1.1361151    0.4349176   -0.5828134  0.00    0.0020757   -0.0181878   -0.0057536
c    -0.1958189    0.6430777   -0.8446325  0.00   -0.0072010   -0.0113053   -0.0050047
o    -0.5573919    4.1810622   -0.0091161  0.00   -0.0015154   -0.0009429   -0.0020263
h    -1.5520190    4.2026131   -0.2145377  0.00   -0.0023688   -0.0092497   -0.0023491
h    -0.8344632   -0.1492577   -1.2109202  0.00   -0.0027861   -0.0035467   -0.0011300
h     2.9471042    1.3603017    0.0933054  0.00    0.0025107   -0.0004044    0.0001649
h     1.9282341    3.5585158    0.4055013  0.00    0.0031856    0.0008849    0.0006576
h    -1.8114325    2.0275385   -0.8543299  0.00   -0.0016406    0.0027179    0.0006184
c     1.8331266   -0.9181984   -0.6989489  0.00    0.0048346   -0.0058654   -0.0058095
c     1.1185192   -2.0690690   -1.4676694  0.00    0.0120160    0.0272347   -0.0015892
h     2.0919173   -1.2731204    0.3251479  0.00    0.0007905   -0.0002411    0.0020007
h     2.8109216   -0.7283802   -1.2065237  0.00    0.0030143   -0.0030380   -0.0023481
c     2.1163492   -3.1991421   -1.7580939  0.00   -0.0171475   -0.0752904   -0.0074399
o     1.7534418   -4.5119423   -1.7517643  0.00    0.0175730    0.0474201    0.0042275
o     3.4425420   -2.8629643   -2.0136349  0.00   -0.0040276    0.0211342    0.0075446
h     3.9685134   -3.7220524   -2.1298537  0.00   -0.0009601   -0.0030485    0.0019794
n    -0.0407358   -2.6100680   -0.7127401  0.00   -0.0050176   -0.0215321   -0.0101098
h     0.7887070   -1.7066787   -2.4662124  0.00   -0.0029151   -0.0017656    0.0019934
h    -0.0397761   -2.2960313    0.2951264  0.00    0.0024484    0.0038736    0.0139057
h    -0.9452626   -2.3194562   -1.1612872  0.00   -0.0068509    0.0073163   -0.0050830
    24
 Energy =       0.0713599207
c     1.3407111    2.7076143    0.1044425  0.00    0.0087668    0.0142366    0.0058385
c     0.0210676    2.9078613   -0.1490348  0.00   -0.0004321    0.0171128    0.0057798
c    -0.7413260    1.8760795   -0.6148789  0.00   -0.0186708    0.0121993    0.0013838
c     1.9001628    1.4777024   -0.0977017  0.00    0.0141428   -0.0025275    0.0015248
c     1.1463292    0.4301376   -0.5681407  0.00    0.0016833   -0.0168310   -0.0053337
c    -0.1839715    0.6456146   -0.8307183  0.00   -0.0066983   -0.0107399   -0.0046981
o    -0.5390792    4.1690037    0.0667483  0.00   -0.0014307   -0.0005479   -0.0017999
h    -1.5341719    4.1974691   -0.1349573  0.00   -0.0022639   -0.0085759   -0.0021779
h    -0.8228950   -0.1390040   -1.2142522  0.00   -0.0026413   -0.0035287   -0.0011634
h     2.9578211    1.3392803    0.1255555  0.00    0.0023707   -0.0003682    0.0001673
h     1.9423140    3.5339958    0.4736898  0.00    0.0030289    0.0009605    0.0006616
h    -1.7959664    2.0331441   -0.8227137  0.00   -0.0015544    0.0025080    0.0005597
c     1.8418682   -0.9204689   -0.7183186  0.00    0.0043988   -0.0055462   -0.0053146
c     1.1021255   -2.0577660   -1.4833523  0.00    0.0108905    0.0256925   -0.0014086
h     2.1252256   -1.2898770    0.2944378  0.00    0.0008890   -0.0003120    0.0022946
h     2.8069116   -0.7249018   -1.2479788  0.00    0.0031021   -0.0028202   -0.0023491
c     2.0858048   -3.1854358   -1.8250452  0.00   -0.0170407   -0.0702130   -0.0066937
o     1.7153543   -4.4982039   -1.8322307  0.00    0.0165849    0.0439007    0.0038306
o     3.4019289   -2.8504224   -2.1328348  0.00   -0.0028035    0.0202772    0.0067036
h     3.9191034   -3.7093851   -2.2886068  0.00    0.0000874   -0.0038225    0.0015754
n    -0.0366079   -2.6045355   -0.7015551  0.00   -0.0049899   -0.0201628   -0.0089785
h     0.7445883   -1.6784014   -2.4668463  0.00   -0.0029675   -0.0014720    0.0013010
h    -0.0205659   -2.2844233    0.3038297  0.00    0.0022748    0.0036482    0.0131781
h    -0.9517858   -2.3214389   -1.1329443  0.00   -0.0067268    0.0069317   -0.0048812
    24
 Energy =       0.0702500479
c     1.3603328    2.6889836    0.1534199  0.00    0.0076703    0.0125940    0.0051196
c     0.0430551    2.8984045   -0.0999531  0.00   -0.0003121    0.0149352    0.0050352
c    -0.7218611    1.8773503   -0.5829352  0.00   -0.0163966    0.0105912    0.0011540
c     1.9154438    1.4610607   -0.0652231  0.00    0.0124333   -0.0021268    0.0013845
c     1.1589514    0.4247739   -0.5522794  0.00    0.0012599   -0.0146180   -0.0046059
c    -0.1692933    0.6490802   -0.8146212  0.00   -0.0058624   -0.0095629   -0.0041370
o    -0.5105087    4.1592984    0.1357192  0.00   -0.0012109   -0.0002053   -0.0014852
h    -1.5053536    4.1985094   -0.0644803  0.00   -0.0020723   -0.0074820   -0.0019029
h    -0.8103853   -0.1274310   -1.2117362  0.00   -0.0023271   -0.0033133   -0.0011074
h     2.9722008    1.3153628    0.1564893  0.00    0.0021095   -0.0003128    0.0001600
h     1.9636151    3.5077534    0.5362017  0.00    0.0027009    0.0009513    0.0006192
h    -1.7751326    2.0414477   -0.7914652  0.00   -0.0013903    0.0021775    0.0004734
c     1.8497918   -0.9243572   -0.7338048  0.00    0.0038256   -0.0048561   -0.0044841
c     1.0837862   -2.0460516   -1.4959723  0.00    0.0090821    0.0227396   -0.0011001
h     2.1532748   -1.3086156    0.2676311  0.00    0.0009172   -0.0003333    0.0023482
h     2.8033800   -0.7256533   -1.2825520  0.00    0.0029384   -0.0024515   -0.0021538
c     2.0483462   -3.1728677   -1.8876220  0.00   -0.0162175   -0.0614732   -0.0054592
o     1.6651618   -4.4854745   -1.9038872  0.00    0.0146395    0.0380936    0.0032395
o     3.3520481   -2.8431009   -2.2523020  0.00   -0.0012544    0.0184068    0.0054017
h     3.8554334   -3.7028998   -2.4473600  0.00    0.0011131   -0.0043668    0.0010262
n    -0.0362863   -2.5952926   -0.6898560  0.00   -0.0046605   -0.0177056   -0.0075114
h     0.7024667   -1.6483089   -2.4639950  0.00   -0.0028539   -0.0011292    0.0006535
h    -0.0135360   -2.2602776    0.3096400  0.00    0.0020326    0.0032287    0.0117574
h    -0.9599845   -2.3280558   -1.1124633  0.00   -0.0061643    0.0062188   -0.0044256
    24
 Energy =       0.0691443981
c     1.3818621    2.6685059    0.2023131  0.00    0.0062066    0.0103245    0.0041471
c     0.0672684    2.8875802   -0.0499371  0.00   -0.0002068    0.0120354    0.0040391
c    -0.7009173    1.8775438   -0.5477471  0.00   -0.0133350    0.0085049    0.0008766
c     1.9319976    1.4429607   -0.0325065  0.00    0.0101161   -0.0016474    0.0011655
c     1.1723300    0.4185348   -0.5345944  0.00    0.0008387   -0.0117503   -0.0036596
c    -0.1540341    0.6516038   -0.7942628  0.00   -0.0047500   -0.0079004   -0.0033715
o    -0.4780246    4.1488961    0.2045642  0.00   -0.0008935    0.0000970   -0.0011052
h    -1.4720455    4.2014332    0.0044428  0.00   -0.0018105   -0.0060523   -0.0015484
h    -0.7985050   -0.1171131   -1.2015202  0.00   -0.0018827   -0.0029456   -0.0009494
h     2.9878689    1.2899057    0.1868351  0.00    0.0017436   -0.0002445    0.0001426
h     1.9872273    3.4795168    0.5973624  0.00    0.0022285    0.0008693    0.0005365
h    -1.7530076    2.0486578   -0.7554225  0.00   -0.0011543    0.0017558    0.0003698
c     1.8571674   -0.9291268   -0.7462758  0.00    0.0031336   -0.0039063   -0.0034675
c     1.0670054   -2.0328732   -1.5097684  0.00    0.0068196    0.0186329   -0.0006510
h     2.1753044   -1.3301459    0.2438518  0.00    0.0008678   -0.0003254    0.0021757
h     2.8012964   -0.7274418   -1.3094703  0.00    0.0025249   -0.0019707   -0.0017835
c     2.0107137   -3.1577863   -1.9497224  0.00   -0.0145625   -0.0499029   -0.0039015
o     1.6145278   -4.4712165   -1.9703465  0.00    0.0118979    0.0305755    0.0025393
o     3.2985865   -2.8331678   -2.3732436  0.00    0.0003369    0.0156073    0.0037909
h     3.7858865   -3.6931896   -2.6061131  0.00    0.0019085   -0.0045169    0.0004301
n    -0.0368227   -2.5848829   -0.6845959  0.00   -0.0036854   -0.0146470   -0.0060349
h     0.6668757   -1.6141029   -2.4619165  0.00   -0.0025473   -0.0007517    0.0000913
h    -0.0209397   -2.2240957    0.3049942  0.00    0.0017911    0.0027930    0.0101155
h    -0.9666751   -2.3463578   -1.1103276  0.00   -0.0055859    0.0053658   -0.0039475
    24
 Energy =       0.0681863503
c     1.4038731    2.6457726    0.2535067  0.00    0.0045959    0.0078114    0.0030835
c     0.0917806    2.8745233    0.0045045  0.00   -0.0001175    0.0088733    0.0029537
c    -0.6802979    1.8758337   -0.5067974  0.00   -0.0099703    0.0062677    0.0005919
c     1.9488766    1.4233036    0.0009402  0.00    0.0075664   -0.0011729    0.0009063
c     1.1856198    0.4112806   -0.5154417  0.00    0.0004737   -0.0086833   -0.0026543
c    -0.1394471    0.6526766   -0.7692136  0.00   -0.0035350   -0.0060509   -0.0025212
o    -0.4445447    4.1360777    0.2786667  0.00   -0.0005586    0.0003583   -0.0007121
h    -1.4374060    4.2032908    0.0783382  0.00   -0.0015050   -0.0044958   -0.0011647
h    -0.7882940   -0.1085659   -1.1841320  0.00   -0.0013983   -0.0025396   -0.0007068
h     3.0041011    1.2630191    0.2163889  0.00    0.0013337   -0.0001766    0.0001187
h     2.0117055    3.4486803    0.6602325  0.00    0.0016915    0.0007446    0.0004332
h    -1.7316246    2.0537110   -0.7112805  0.00   -0.0008879    0.0013064    0.0002632
c     1.8639132   -0.9344797   -0.7571024  0.00    0.0024152   -0.0028432   -0.0024512
c     1.0527873   -2.0178140   -1.5272762  0.00    0.0045085    0.0140145   -0.0001252
h     2.1910781   -1.3547897    0.2217699  0.00    0.0007652   -0.0003091    0.0018644
h     2.8009293   -0.7289018   -1.3297732  0.00    0.0019583   -0.0014412   -0.0013220
c     1.9761065   -3.1382679   -2.0140256  0.00   -0.0122841   -0.0373560   -0.0023328
o     1.5710154   -4.4541689   -2.0332551  0.00    0.0087922    0.0225354    0.0018745
o     3.2440074   -2.8154387   -2.4966910  0.00    0.0017364    0.0122867    0.0021200
h     3.7152681   -3.6740825   -2.7648662  0.00    0.0023291   -0.0042092   -0.0000869
n    -0.0370474   -2.5751201   -0.6887878  0.00   -0.0015957   -0.0119972   -0.0050936
h     0.6382729   -1.5750917   -2.4628693  0.00   -0.0020895   -0.0003682   -0.0003836
h    -0.0456237   -2.1750996    0.2852175  0.00    0.0016142    0.0028016    0.0092506
h    -0.9701028   -2.3827100   -1.1314602  0.00   -0.0058383    0.0046434   -0.0039058
    24
 Energy =       0.0674715363
c     1.4257252    2.6210978    0.3073965  0.00    0.0032166    0.0056596    0.0021868
c     0.1156385    2.8599411    0.0639694  0.00   -0.0000532    0.0061846    0.0020352