    27
 Energy =       0.4252878819
c    -1.4235396    2.6054793   -0.0667700  0.00   -0.0465558    0.0383394    0.0028306
c    -1.3072796    1.2134697   -0.1072300  0.00   -0.0851481   -0.0325936    0.0020493
c    -0.0178900    0.6711998   -0.1697000  0.00   -0.0888265   -0.1882966   -0.0012100
c    -0.2940599    3.4190890   -0.0891300  0.00   -0.0219149    0.0690995    0.0031234
c     0.9872197    2.8590292   -0.1560400  0.00    0.0502711    0.0711036    0.0020390
c     1.1340797    1.4562096   -0.1970299  0.00    0.0576732    0.0532216   -0.0043729
n     0.3879399   -0.6395298   -0.2140799  0.00    0.1427191    0.1102992   -0.0030725
c     2.2666594    0.5727398   -0.2659299  0.00    0.1539118   -0.1007986    0.0048164
c     1.7555995   -0.7123598   -0.2706899  0.00   -0.1018277   -0.0973859   -0.0006618
h    -0.2400399   -1.4313496   -0.2047299  0.00    0.0368268    0.0478531   -0.0005620
c     3.7030089    1.0223397   -0.3320099  0.00    0.0124273    0.0254761   -0.0309194
c     3.9341689    2.4461793   -0.8604738  0.00   -0.0863257   -0.1227809   -0.0599273
h     4.2453388    0.3150949   -0.9737027  0.00    0.0007610    0.0173760    0.0079023
h     4.1472888    0.9178277    0.6672218  0.00   -0.0039168   -0.0015991   -0.0125808
c     5.4257385    2.6142793   -1.2047197  0.00    0.2845021    0.2712997    0.1351534
n     3.5749390    3.5208790    0.1316430  0.00   -1.0764005    0.0832283   -0.1644948
h     3.3678090    2.6262393   -1.7818095  0.00    0.0008566    0.0102815    0.0254553
h     4.1089188    3.3319090    0.9861927  0.00   -0.0175004    0.0025746   -0.0400807
h     3.9666689    4.4045787   -0.2125809  0.00   -0.0077149   -0.0465429    0.0086596
h    -2.4108593    3.0588691   -0.0157800  0.00   -0.0008049    0.0002597    0.0000116
h    -2.1896094    0.5822398   -0.0890100  0.00   -0.0036018    0.0036943    0.0000544
h    -0.4052699    4.5000487   -0.0535400  0.00    0.0009539   -0.0000560    0.0001240
h     1.8590495    3.5066790   -0.1715100  0.00    1.1287360    0.0051763    0.1862838
h     2.2327294   -1.6813195   -0.3062999  0.00   -0.0407679   -0.0111418    0.0024006
o     6.1645482    3.4761890   -0.7584458  0.00   -0.1889159   -0.2104258   -0.1073065
o     5.8368683    1.6637395   -2.0867794  0.00   -0.0635032   -0.0086267    0.0233172
h     6.8034981    1.8416595   -2.2230694  0.00   -0.0359139    0.0109650    0.0209678
    27
 Energy =       0.2971715953
c    -1.4343845    2.5701765   -0.1076653  0.00   -0.0212102    0.0183560    0.0013662
c    -1.2983812    1.1991954   -0.1439034  0.00   -0.0405011   -0.0154001    0.0010134
c    -0.0295238    0.6783852   -0.2127410  0.00   -0.0416808   -0.0887210   -0.0030705
c    -0.3248149    3.3857725   -0.1271912  0.00   -0.0101771    0.0324759    0.0014661
c     0.9423174    2.8428929   -0.1902655  0.00    0.0260500    0.0338022    0.0005296
c     1.0851907    1.4674234   -0.2420416  0.00    0.0265015    0.0272485   -0.0023377
n     0.3544285   -0.6659466   -0.2066900  0.00    0.0640260    0.0498470    0.0019522
c     2.2053180    0.6403911   -0.2996109  0.00    0.0719726   -0.0469305    0.0018108
c     1.7544572   -0.6446761   -0.2840142  0.00   -0.0503904   -0.0397668   -0.0019996
h    -0.2568192   -1.4939444   -0.1690815  0.00    0.0174737    0.0212956    0.0006851
c     3.6653341    1.0470977   -0.2877897  0.00    0.0068535    0.0123136   -0.0154965
c     3.9769678    2.4493582   -0.8388362  0.00   -0.0415532   -0.0559790   -0.0291617
h     4.2346257    0.3053283   -0.8853103  0.00    0.0032991    0.0084578    0.0023699
h     4.0439479    0.9551123    0.7489965  0.00   -0.0016237   -0.0008048   -0.0032158
c     5.4632001    2.5563348   -1.1806871  0.00    0.1353808    0.1284154    0.0674552
n     3.5901744    3.5116499    0.1315507  0.00   -0.6633476    0.0342060   -0.1208378
h     3.4380887    2.6170050   -1.7899189  0.00    0.0002674    0.0053955    0.0118884
h     3.9937472    3.2631159    1.0687433  0.00   -0.0014871   -0.0067260   -0.0005560
h     4.0685707    4.4031591   -0.1304537  0.00    0.0022978   -0.0139409    0.0017877
h    -2.4269389    3.0111780   -0.0522248  0.00   -0.0004526    0.0002191    0.0000063
h    -2.1679375    0.5509728   -0.1111111  0.00   -0.0019600    0.0016368    0.0001095
h    -0.4467324    4.4656901   -0.0836294  0.00    0.0005057    0.0000554    0.0000611
h     1.8064128    3.5005407   -0.1771417  0.00    0.6757252    0.0043874    0.1132796
h     2.3450477   -1.5585984   -0.2792953  0.00   -0.0150353   -0.0100469    0.0011731
o     6.2457801    3.4864537   -0.6966907  0.00   -0.0927665   -0.1000454   -0.0506202
o     5.9281931    1.6453424   -2.0971775  0.00   -0.0630325   -0.0189954    0.0234161
h     6.8572539    1.9719989   -2.3818225  0.00    0.0148649    0.0192446   -0.0030743
    27
 Energy =       0.2927261196
c    -1.4273090    2.5791213   -0.1346934  0.00   -0.0209325    0.0178471    0.0013265
c    -1.2974297    1.2086603   -0.2017347  0.00   -0.0395135   -0.0155376    0.0009927
c    -0.0304389    0.6834878   -0.2565535  0.00   -0.0400655   -0.0846360   -0.0028443
c    -0.3134496    3.3896861   -0.1142137  0.00   -0.0094846    0.0319916    0.0014173
c     0.9519541    2.8420241   -0.1629682  0.00    0.0256629    0.0332855    0.0004851
c     1.0875406    1.4674953   -0.2412535  0.00    0.0261569    0.0269615   -0.0022726
n     0.3448953   -0.6640944   -0.3067660  0.00    0.0603610    0.0470183    0.0017244
c     2.2043511    0.6384165   -0.2914400  0.00    0.0703462   -0.0448705    0.0016632
c     1.7495809   -0.6452666   -0.3183537  0.00   -0.0471483   -0.0381655   -0.0018449
h    -0.2726065   -1.4906339   -0.3278346  0.00    0.0152659    0.0184484    0.0005724
c     3.6635817    1.0441573   -0.2381183  0.00    0.0069737    0.0123951   -0.0151543
c     3.9786400    2.4467152   -0.7875906  0.00   -0.0406830   -0.0544494   -0.0283938
h     4.2501932    0.3009460   -0.8178182  0.00    0.0033963    0.0080488    0.0021305
h     4.0136957    0.9565475    0.8093720  0.00   -0.0013893   -0.0007851   -0.0027193
c     5.4566006    2.5472242   -1.1600711  0.00    0.1310867    0.1249580    0.0661454
n     3.6083078    3.5063306    0.1932508  0.00   -0.6450417    0.0334039   -0.1173717
h     3.4270055    2.6212870   -1.7309241  0.00    0.0001297    0.0052054    0.0114661
h     4.0276558    3.2551097    1.1227765  0.00   -0.0013595   -0.0065537   -0.0003065
h     4.0860265    4.3969472   -0.0737265  0.00    0.0022411   -0.0135146    0.0017450
h    -2.4188919    3.0237619   -0.0909594  0.00   -0.0005637    0.0001558    0.0000066
h    -2.1711019    0.5639030   -0.2096086  0.00   -0.0025637    0.0009989    0.0000967
h    -0.4309414    4.4692735   -0.0500564  0.00    0.0005937    0.0003043    0.0000731
h     1.8210421    3.4940822   -0.1201754  0.00    0.6572697    0.0045533    0.1100893
h     2.3383336   -1.5604013   -0.3150614  0.00   -0.0146962   -0.0098457    0.0011678
o     6.2586248    3.4728715   -0.6931573  0.00   -0.0897812   -0.0968768   -0.0491299
o     5.8917230    1.6455687   -2.1023158  0.00   -0.0610239   -0.0190538    0.0220977
h     6.8159402    1.9681885   -2.4060074  0.00    0.0147629    0.0187129   -0.0031624
    27
 Energy =       0.2671846630
c    -1.4345707    2.5203216   -0.1188295  0.00   -0.0166575    0.0142932    0.0010216
c    -1.2853894    1.1577973   -0.2304458  0.00   -0.0308045   -0.0130207    0.0008652
c    -0.0159025    0.6516268   -0.2844832  0.00   -0.0311720   -0.0634386   -0.0010417
c    -0.3333601    3.3418130   -0.0556296  0.00   -0.0067910    0.0255974    0.0009542
c     0.9355175    2.8119427   -0.1043906  0.00    0.0201042    0.0267825    0.0001667
c     1.0868625    1.4463438   -0.2288283  0.00    0.0203604    0.0214056   -0.0019252
n     0.3698550   -0.6949750   -0.4096878  0.00    0.0469427    0.0338465    0.0002054
c     2.2104841    0.6411565   -0.3030643  0.00    0.0554456   -0.0334797    0.0015917
c     1.7798117   -0.6455789   -0.3862408  0.00   -0.0364503   -0.0294704   -0.0008165
h    -0.2369295   -1.5320103   -0.4865878  0.00    0.0104408    0.0120586   -0.0000138
c     3.6711306    1.0531910   -0.2476235  0.00    0.0049583    0.0090415   -0.0114219
c     3.9712414    2.4809737   -0.7439447  0.00   -0.0305614   -0.0431800   -0.0232798
h     4.2548739    0.3381741   -0.8686673  0.00    0.0032139    0.0054445    0.0009059
h     4.0345729    0.9246624    0.7926871  0.00   -0.0008899   -0.0008871   -0.0012287
c     5.4349907    2.6173412   -1.1593460  0.00    0.1013397    0.0975409    0.0528012
n     3.6103640    3.4836916    0.2962285  0.00   -0.5225552    0.0263201   -0.0933328
h     3.3943564    2.6916359   -1.6685426  0.00   -0.0003121    0.0045825    0.0078391
h     4.0987636    3.2226812    1.1917634  0.00    0.0009942   -0.0069509    0.0037918
h     4.0259282    4.4092964    0.0303261  0.00    0.0030988   -0.0070620   -0.0004987
h    -2.4324483    2.9508014   -0.0755863  0.00   -0.0005655    0.0001876    0.0000138
h    -2.1497618    0.5014067   -0.2795846  0.00   -0.0026765    0.0000198    0.0000177
h    -0.4651762    4.4177508    0.0439133  0.00    0.0005453    0.0010221    0.0001153
h     1.7934362    3.4749255   -0.0232719  0.00    0.5269137    0.0045969    0.0883912
h     2.3949938   -1.5432465   -0.4215993  0.00   -0.0111016   -0.0088723    0.0009565
o     6.2323061    3.5684945   -0.6849199  0.00   -0.0694500   -0.0749001   -0.0383856
o     5.8750126    1.7662296   -2.1509011  0.00   -0.0461088   -0.0160733    0.0150038
h     6.7925609    2.1049620   -2.4487465  0.00    0.0117385    0.0145951   -0.0026964
    27
 Energy =       0.2582483838
c    -1.4220870    2.5291531   -0.0754109  0.00   -0.0153344    0.0128278    0.0009218
c    -1.2769773    1.1652030   -0.1601162  0.00   -0.0278864   -0.0121319    0.0007044
c    -0.0110422    0.6558962   -0.2217539  0.00   -0.0280708   -0.0568447   -0.0011182
c    -0.3187820    3.3492243   -0.0475885  0.00   -0.0058295    0.0233600    0.0009179
c     0.9469664    2.8157384   -0.1065809  0.00    0.0181489    0.0244459    0.0002303
c     1.0916453    1.4488765   -0.2008495  0.00    0.0184989    0.0193479   -0.0017094
n     0.3684314   -0.6971005   -0.3101388  0.00    0.0417829    0.0299727    0.0003776
c     2.2111025    0.6440783   -0.2767877  0.00    0.0501918   -0.0298567    0.0014842
c     1.7809491   -0.6436187   -0.3266561  0.00   -0.0323865   -0.0265647   -0.0009001
h    -0.2415125   -1.5365758   -0.3474829  0.00    0.0086649    0.0098489   -0.0000098
c     3.6733085    1.0554058   -0.2526927  0.00    0.0043846    0.0082605   -0.0101609
c     3.9632730    2.4771836   -0.7738726  0.00   -0.0286465   -0.0391254   -0.0208955
h     4.2441604    0.3301049   -0.8744484  0.00    0.0028877    0.0047381    0.0007594
h     4.0557994    0.9408117    0.7827888  0.00   -0.0007202   -0.0008160   -0.0008383
c     5.4071031    2.6001684   -1.2551892  0.00    0.0908559    0.0882709    0.0487208
n     3.6392459    3.4908050    0.2702213  0.00   -0.4749648    0.0240340   -0.0839037
h     3.3538526    2.6778122   -1.6813476  0.00   -0.0007506    0.0041511    0.0065161
h     4.1572832    3.2383158    1.1514637  0.00    0.0013041   -0.0063220    0.0042739
h     4.0506266    4.4119695   -0.0184344  0.00    0.0030321   -0.0059699   -0.0005652
h    -2.4184425    2.9624006   -0.0255596  0.00   -0.0005619    0.0001417    0.0000106
h    -2.1428817    0.5088531   -0.1792813  0.00   -0.0027500   -0.0003222   -0.0000014
h    -0.4466875    4.4277252    0.0285673  0.00    0.0005789    0.0012361    0.0001299
h     1.8104458    3.4769510   -0.0645535  0.00    0.4788507    0.0044047    0.0797433
h     2.3998773   -1.5386475   -0.3599956  0.00   -0.0100454   -0.0080424    0.0008311
o     6.2440001    3.5438787   -0.8161632  0.00   -0.0613014   -0.0662541   -0.0343695
o     5.7910802    1.7522070   -2.2766409  0.00   -0.0415719   -0.0161616    0.0117996
h     6.7027856    2.0745892   -2.6074996  0.00    0.0116390    0.0133713   -0.0029487
    27
 Energy =       0.2091840545
c    -1.4623678    2.4588529   -0.0264224  0.00   -0.0017249    0.0020159   -0.0001384
c    -1.2797070    1.1130033   -0.1351183  0.00   -0.0033162   -0.0012976   -0.0000320
c    -0.0163658    0.6415754   -0.2316129  0.00   -0.0029392   -0.0064926    0.0000282
c    -0.3861329    3.2997976   -0.0122774  0.00   -0.0006470    0.0027141   -0.0001360
c     0.8819295    2.8015432   -0.1077441  0.00    0.0046295    0.0023064   -0.0000333
c     1.0525533    1.4528278   -0.2209502  0.00    0.0023548    0.0026844   -0.0001996
n     0.3727713   -0.7170379   -0.3376312  0.00    0.0018441    0.0026771    0.0010572
c     2.1759482    0.6956821   -0.3285762  0.00    0.0063263   -0.0036075    0.0009491
c     1.7959576   -0.5963189   -0.3902846  0.00   -0.0022205   -0.0014325   -0.0002771
h    -0.2204330   -1.5774283   -0.3700356  0.00    0.0010242    0.0002202    0.0002866
c     3.6462430    1.0936560   -0.2873387  0.00    0.0000913    0.0002620   -0.0012322
c     3.9836341    2.5132390   -0.7892279  0.00   -0.0042269   -0.0032615   -0.0024463
h     4.2068915    0.3597443   -0.9120711  0.00   -0.0002116    0.0002316   -0.0002562
h     4.0198240    0.9630204    0.7509429  0.00    0.0001668   -0.0001702   -0.0002587
c     5.4346288    2.6179577   -1.2557998  0.00    0.0061429    0.0121508    0.0083324
n     3.6675259    3.4818957    0.2823953  0.00   -0.2094096   -0.0120531   -0.0384051
h     3.3821120    2.7348750   -1.7012221  0.00   -0.0004118    0.0007795    0.0006361
h     4.3049175    3.2934824    1.1084169  0.00    0.0100855   -0.0058398    0.0127770
h     3.9474211    4.4481944   -0.0542894  0.00    0.0048352    0.0139433   -0.0079048
h    -2.4690938    2.8636804    0.0552426  0.00   -0.0009436    0.0003043    0.0003102
h    -2.1243817    0.4310926   -0.1408072  0.00   -0.0008240   -0.0004461    0.0002545
h    -0.5411864    4.3730005    0.0813675  0.00   -0.0000946    0.0005406    0.0002149
h     1.7200782    3.4900602   -0.0867314  0.00    0.1956766    0.0042465    0.0323073
h     2.4755703   -1.4472220   -0.4455841  0.00    0.0009215   -0.0023114   -0.0001759
o     6.2711666    3.6128495   -0.7762943  0.00   -0.0078776   -0.0048733   -0.0020123
o     5.9124803    1.7417175   -2.2241000  0.00   -0.0080322   -0.0069437    0.0007952
h     6.8615387    2.0176683   -2.4702490  0.00    0.0087812    0.0036525   -0.0044408
    27
 Energy =       0.2060534223
c    -1.4683051    2.4883019   -0.1114233  0.00   -0.0024851    0.0013343   -0.0001639
c    -1.2946087    1.1436129   -0.2482019  0.00   -0.0037187   -0.0017455   -0.0000630
c    -0.0326920    0.6630194   -0.3148360  0.00   -0.0030282   -0.0063449   -0.0000133
c    -0.3847161    3.3188655   -0.0406959  0.00    0.0000829    0.0032464   -0.0000579
c     0.8817628    2.8110867   -0.1059188  0.00    0.0050514    0.0026622    0.0000281
c     1.0428815    1.4639085   -0.2466746  0.00    0.0028649    0.0028157   -0.0001104
n     0.3476348   -0.6964701   -0.4430922  0.00    0.0002446    0.0024044    0.0009522
c     2.1627503    0.7000419   -0.3327311  0.00    0.0052619   -0.0024111    0.0007025
c     1.7739846   -0.5870952   -0.4402951  0.00   -0.0015176   -0.0016773   -0.0002487
h    -0.2524862   -1.5504935   -0.5192452  0.00   -0.0000751   -0.0010801    0.0001400
c     3.6333931    1.0876041   -0.2172601  0.00    0.0006501    0.0013992   -0.0014698
c     4.0026986    2.4977881   -0.7271758  0.00   -0.0039051   -0.0021857   -0.0022180
h     4.2239835    0.3378940   -0.7962959  0.00    0.0011227   -0.0004398   -0.0011443
h     3.9486532    0.9728640    0.8439213  0.00    0.0006979   -0.0005054    0.0016526
c     5.4616890    2.5790126   -1.1761765  0.00    0.0034971    0.0103303    0.0082590
n     3.6862899    3.4787699    0.3331383  0.00   -0.1890349   -0.0108156   -0.0344544
h     3.4175536    2.7227167   -1.6491818  0.00   -0.0004480    0.0007996    0.0004278
h     4.3218598    3.2992330    1.1611838  0.00    0.0090945   -0.0052237    0.0115186
h     3.9668229    4.4404879   -0.0129528  0.00    0.0043485    0.0125990   -0.0071144
h    -2.4738938    2.9004806   -0.0533826  0.00   -0.0012478    0.0001815    0.0002782
h    -2.1453381    0.4697193   -0.2995603  0.00   -0.0016436   -0.0011017    0.0001797
h    -0.5328699    4.3912380    0.0734541  0.00    0.0000863    0.0007731    0.0002206
h     1.7258608    3.4904993   -0.0428047  0.00    0.1772926    0.0044464    0.0291355
h     2.4482263   -1.4424766   -0.4885650  0.00    0.0008906   -0.0021268   -0.0001481
o     6.2790336    3.6211689   -0.7596454  0.00   -0.0058157   -0.0005401    0.0003475
o     5.9617897    1.6453426   -2.0814428  0.00   -0.0062463   -0.0099973   -0.0025271
h     6.9115654    1.9142889   -2.3301427  0.00    0.0079799    0.0032030   -0.0041089
    27
 Energy =       0.2016596179
c    -1.4715501    2.5362474   -0.2094222  0.00   -0.0029180    0.0007121   -0.0001944
c    -1.3093774    1.1916240   -0.3589937  0.00   -0.0039420   -0.0016163   -0.0000641
c    -0.0514374    0.6969115   -0.3899758  0.00   -0.0028848   -0.0057235   -0.0000496
c    -0.3805401    3.3526766   -0.0914312  0.00    0.0002885    0.0033084    0.0000114
c     0.8817382    2.8303076   -0.1201025  0.00    0.0052234    0.0024052    0.0000698
c     1.0306390    1.4835050   -0.2726419  0.00    0.0029099    0.0026665   -0.0000188
n     0.3170680   -0.6654531   -0.5235009  0.00   -0.0012807    0.0022512    0.0007691
c     2.1438126    0.7081407   -0.3263360  0.00    0.0039315   -0.0015825    0.0003673
c     1.7445516   -0.5729190   -0.4653448  0.00   -0.0004879   -0.0014945   -0.0001542
h    -0.2906615   -1.5109750   -0.6338122  0.00   -0.0007486   -0.0017014    0.0000137
c     3.6122593    1.0793234   -0.1373602  0.00    0.0009097    0.0019446   -0.0015106
c     4.0258949    2.4701184   -0.6695880  0.00   -0.0039126   -0.0020894   -0.0029405
h     4.2271148    0.3049723   -0.6595876  0.00    0.0026642   -0.0014361   -0.0019736
h     3.8650572    0.9918536    0.9450723  0.00    0.0010322   -0.0009821    0.0037540
c     5.4957771    2.5031325   -1.0901722  0.00    0.0000470    0.0048182    0.0048874
n     3.7128647    3.4807992    0.3638760  0.00   -0.1615405   -0.0090194   -0.0283136
h     3.4651563    2.6906933   -1.6082832  0.00   -0.0005244    0.0009772    0.0000186
h     4.3372836    3.3123105    1.2011868  0.00    0.0078124   -0.0044207    0.0098584
h     4.0105427    4.4290559   -0.0006442  0.00    0.0036992    0.0112130   -0.0062027
h    -2.4739414    2.9597782   -0.1799009  0.00   -0.0015916    0.0001574    0.0002301
h    -2.1661676    0.5287230   -0.4482835  0.00   -0.0021011   -0.0013524    0.0001020
h    -0.5196290    4.4253427    0.0307992  0.00    0.0001378    0.0007513    0.0001975
h     1.7320251    3.4976956   -0.0224706  0.00    0.1511763    0.0041645    0.0246942
h     2.4105237   -1.4354477   -0.4953985  0.00    0.0010143   -0.0019038   -0.0001126
o     6.3624078    3.4779484   -0.6008922  0.00    0.0001619    0.0048645    0.0029122
o     5.9672959    1.5819131   -2.0225031  0.00   -0.0078237   -0.0104326   -0.0026309
h     6.9348154    1.8131312   -2.2402918  0.00    0.0087475    0.0035206   -0.0037199
    27
 Energy =       0.1960700604
c    -1.4726503    2.5810478   -0.3086532  0.00   -0.0030513    0.0000428   -0.0002349
c    -1.3189922    1.2377922   -0.4758389  0.00   -0.0037524   -0.0014198   -0.0000850
c    -0.0658794    0.7306201   -0.4709429  0.00   -0.0024919   -0.0046493   -0.0000872
c    -0.3778804    3.3837664   -0.1385829  0.00    0.0005777    0.0030793    0.0000951
c     0.8793133    2.8484242   -0.1307670  0.00    0.0049044    0.0020236    0.0001347
c     1.0189185    1.5032249   -0.2999355  0.00    0.0027493    0.0022987    0.0000734
n     0.2931738   -0.6333729   -0.6143847  0.00   -0.0024855    0.0018884    0.0004868
c     2.1250280    0.7179614   -0.3229508  0.00    0.0025556   -0.0005900    0.0000789
c     1.7189167   -0.5564065   -0.4991483  0.00    0.0004053   -0.0012675   -0.0000479
h    -0.3192445   -1.4702003   -0.7627764  0.00   -0.0013561   -0.0021871   -0.0001492
c     3.5870569    1.0728200   -0.0607081  0.00    0.0011801    0.0021098   -0.0013576
c     4.0470966    2.4459364   -0.6039403  0.00   -0.0033288   -0.0013179   -0.0027247
h     4.2196393    0.2773726   -0.5289747  0.00    0.0034288   -0.0019233   -0.0022175
h     3.7787558    1.0071960    1.0367459  0.00    0.0010752   -0.0012049    0.0048103
c     5.5231699    2.4331723   -1.0051870  0.00   -0.0002385    0.0028559    0.0031284
n     3.7470833    3.4768969    0.4131872  0.00   -0.1229391   -0.0066493   -0.0208569
h     3.5061983    2.6710898   -1.5533632  0.00   -0.0005058    0.0009185   -0.0001772
h     4.3657023    3.3134958    1.2532502  0.00    0.0057530   -0.0031925    0.0072328
h     4.0578239    4.4137954    0.0366732  0.00    0.0027044    0.0085269   -0.0046140
h    -2.4712548    3.0146147   -0.3077722  0.00   -0.0017119    0.0000914    0.0001490
h    -2.1789034    0.5855329   -0.6070366  0.00   -0.0023668   -0.0015052   -0.0000107
h    -0.5101361    4.4558161   -0.0045065  0.00    0.0002035    0.0006777    0.0001632
h     1.7328040    3.5041829    0.0053206  0.00    0.1155721    0.0036438    0.0186462
h     2.3770218   -1.4248883   -0.5148954  0.00    0.0009335   -0.0014707   -0.0000651
o     6.4165778    3.3735612   -0.4967869  0.00    0.0012739    0.0043967    0.0024508
o     5.9778182    1.5007865   -1.9329730  0.00   -0.0067804   -0.0081041   -0.0017941
h     6.9563660    1.6971708   -2.1310553  0.00    0.0076919    0.0029283   -0.0030277
    27
 Energy =       0.1915342072
c    -1.4691501    2.6296225   -0.4140023  0.00   -0.0030978   -0.0004344   -0.0002929
c    -1.3237050    1.2874055   -0.5941395  0.00   -0.0035986   -0.0011044   -0.0001206
c    -0.0770951    0.7665649   -0.5504084  0.00   -0.0020990   -0.0037190   -0.0001335
c    -0.3726098    3.4177792   -0.1933895  0.00    0.0006504    0.0028046    0.0001583
c     0.8777239    2.8683386   -0.1463241  0.00    0.0045669    0.0015527    0.0001951
c     1.0083464    1.5243838   -0.3277178  0.00    0.0025353    0.0019371    0.0001460
n     0.2725544   -0.5994416   -0.6986537  0.00   -0.0033032    0.0016258    0.0002321
c     2.1057236    0.7280325   -0.3172319  0.00    0.0016781    0.0000008   -0.0001059
c     1.6939577   -0.5393284   -0.5267107  0.00    0.0011654   -0.0010051    0.0000620
h    -0.3429748   -1.4272064   -0.8821829  0.00   -0.0016677   -0.0023387   -0.0002693
c     3.5579680    1.0658327    0.0143187  0.00    0.0012971    0.0019816   -0.0011537
c     4.0658590    2.4199588   -0.5367215  0.00   -0.0027982   -0.0007039   -0.0024721
h     4.2020343    0.2497493   -0.4005842  0.00    0.0038149   -0.0022094   -0.0021922
h     3.6908336    1.0222668    1.1219966  0.00    0.0009545   -0.0013114    0.0053079
c     5.5462396    2.3600068   -0.9186728  0.00   -0.0004019    0.0014349    0.0018036
n     3.7815812    3.4695015    0.4658021  0.00   -0.0913166   -0.0047874   -0.0147917
h     3.5451842    2.6514915   -1.4960432  0.00   -0.0004860    0.0008610   -0.0003236
h     4.3930975    3.3071570    1.3092467  0.00    0.0041262   -0.0022279    0.0051488
h     4.1089675    4.3946834    0.0794044  0.00    0.0019358    0.0064169   -0.0033769
h    -2.4625717    3.0741614   -0.4440310  0.00   -0.0018361    0.0000840    0.0000675
h    -2.1851603    0.6465147   -0.7657897  0.00   -0.0024834   -0.0015096   -0.0001141
h    -0.4981710    4.4894476   -0.0508200  0.00    0.0002153    0.0005679    0.0001313
h     1.7331012    3.5119764    0.0274379  0.00    0.0863065    0.0031498    0.0136791
h     2.3431235   -1.4143328   -0.5264811  0.00    0.0008872   -0.0011421   -0.0000233
o     6.4650597    3.2652600   -0.3921164  0.00    0.0020580    0.0038953    0.0020615
o     5.9826727    1.4158911   -1.8418838  0.00   -0.0059452   -0.0062048   -0.0011810
h     6.9709334    1.5756924   -2.0203050  0.00    0.0068420    0.0023855   -0.0024422
    27
 Energy =       0.1882071373
c    -1.4597832    2.6829499   -0.5243436  0.00   -0.0031529   -0.0007359   -0.0003711
c    -1.3234830    1.3412625   -0.7138674  0.00   -0.0035472   -0.0007815   -0.0001788
c    -0.0855610    0.8049362   -0.6294828  0.00   -0.0017761   -0.0030300   -0.0001838
c    -0.3627781    3.4552589   -0.2547807  0.00    0.0005969    0.0025997    0.0002043
c     0.8784361    2.8900170   -0.1668033  0.00    0.0043171    0.0011141    0.0002596
c     0.9991929    1.5467682   -0.3570865  0.00    0.0023585    0.0016470    0.0002067
n     0.2534494   -0.5637192   -0.7788872  0.00   -0.0038694    0.0014575    0.0000059
c     2.0855101    0.7375623   -0.3114294  0.00    0.0012020    0.0002714   -0.0001987
c     1.6680778   -0.5223953   -0.5509873  0.00    0.0017973   -0.0007843    0.0001758
h    -0.3644442   -1.3818526   -0.9950964  0.00   -0.0018160   -0.0023403   -0.0003622
c     3.5253966    1.0568237    0.0858146  0.00    0.0013904    0.0017067   -0.0009501
c     4.0819911    2.3916315   -0.4676444  0.00   -0.0023602   -0.0002276   -0.0021891
h     4.1752188    0.2212854   -0.2784130  0.00    0.0039541   -0.0023292   -0.0020093
h     3.6020807    1.0335940    1.1995576  0.00    0.0007563   -0.0013466    0.0054725
c     5.5652999    2.2849394   -0.8284962  0.00   -0.0004138    0.0005566    0.0009367
n     3.8138583    3.4564622    0.5230897  0.00   -0.0679363   -0.0035351   -0.0104019
h     3.5829993    2.6320649   -1.4364335  0.00   -0.0004936    0.0008374   -0.0004656
h     4.4156492    3.2902576    1.3713977  0.00    0.0030246   -0.0015775    0.0037277
h     4.1617867    4.3702331    0.1308130  0.00    0.0014329    0.0049856   -0.0025455
h    -2.4462147    3.1398643   -0.5866354  0.00   -0.0019874    0.0001234   -0.0000141
h    -2.1854750    0.7128009   -0.9245429  0.00   -0.0025489   -0.0014577   -0.0002120
h    -0.4808491    4.5268922   -0.1062205  0.00    0.0001958    0.0004752    0.0001075
h     1.7348764    3.5207553    0.0437994  0.00    0.0645776    0.0027737    0.0100053
h     2.3066040   -1.4048467   -0.5336854  0.00    0.0008879   -0.0009406    0.0000141
o     6.5061479    3.1565818   -0.2846653  0.00    0.0025108    0.0033953    0.0017403
o     5.9846674    1.3286683   -1.7460441  0.00   -0.0053066   -0.0047795   -0.0007760
h     6.9808693    1.4526135   -1.9049293  0.00    0.0062063    0.0019222   -0.0019984
    27
 Energy =       0.1858453649
c    -1.4422584    2.7478303   -0.6387198  0.00   -0.0032563   -0.0008912   -0.0004677
c    -1.3190839    1.4059704   -0.8350684  0.00   -0.0036015   -0.0004904   -0.0002648
c    -0.0933012    0.8499849   -0.7093230  0.00   -0.0015281   -0.0025335   -0.0002346
c    -0.3443582    3.5008822   -0.3219552  0.00    0.0004620    0.0025033    0.0002378
c     0.8842207    2.9158038   -0.1924416  0.00    0.0041764    0.0007453    0.0003391
c     0.9911932    1.5724813   -0.3891794  0.00    0.0022267    0.0014222    0.0002596
n     0.2305504   -0.5226126   -0.8574559  0.00   -0.0043044    0.0013349   -0.0002145
c     2.0622583    0.7464358   -0.3076294  0.00    0.0009737    0.0003178   -0.0002198
c     1.6361140   -0.5048512   -0.5746862  0.00    0.0023659   -0.0006314    0.0003039
h    -0.3909614   -1.3292722   -1.1043239  0.00   -0.0018971   -0.0023019   -0.0004464
c     3.4883191    1.0421488    0.1523319  0.00    0.0015225    0.0012596   -0.0006988
c     4.0965966    2.3571941   -0.3960529  0.00   -0.0020099    0.0001996   -0.0018779
h     4.1372303    0.1875456   -0.1658310  0.00    0.0039232   -0.0023196   -0.0017263
h     3.5115744    1.0354378    1.2686494  0.00    0.0005202   -0.0013689    0.0054206
c     5.5815896    2.2026961   -0.7331073  0.00   -0.0002975    0.0000485    0.0003940
n     3.8454542    3.4330136    0.5871058  0.00   -0.0509856   -0.0027969   -0.0073410
h     3.6219488    2.6108792   -1.3738887  0.00   -0.0005523    0.0008702   -0.0006547
h     4.4340891    3.2566583    1.4417423  0.00    0.0023601   -0.0011716    0.0028654
h     4.2187374    4.3357118    0.1945073  0.00    0.0011616    0.0041345   -0.0020354
h    -2.4188666    3.2203826   -0.7337708  0.00   -0.0021829    0.0002091   -0.0001015
h    -2.1820217    0.7926506   -1.0832960  0.00   -0.0026126   -0.0013950   -0.0003125
h    -0.4517559    4.5730235   -0.1692191  0.00    0.0001539    0.0004319    0.0000926
h     1.7421393    3.5314030    0.0539324  0.00    0.0487026    0.0025381    0.0073380
h     2.2602973   -1.3969554   -0.5395777  0.00    0.0009503   -0.0008664    0.0000532
o     6.5418468    3.0418210   -0.1726086  0.00    0.0027865    0.0029542    0.0014924
o     5.9846896    1.2333769   -1.6435194  0.00   -0.0048556   -0.0037380   -0.0005242
h     6.9872818    1.3217689   -1.7826176  0.00    0.0057983    0.0015357   -0.0016764
    27
 Energy =       0.1843737284
c    -1.4289575    2.7710674   -0.7624656  0.00   -0.0032096   -0.0008747   -0.0005192
c    -1.3051450    1.4287095   -0.9546058  0.00   -0.0035948   -0.0001276   -0.0003159
c    -0.0872743    0.8666258   -0.7847485  0.00   -0.0013171   -0.0021333   -0.0002551
c    -0.3394115    3.5184853   -0.4065303  0.00    0.0001704    0.0023449    0.0002041
c     0.8807443    2.9269575   -0.2326932  0.00    0.0040269    0.0003514    0.0003857
c     0.9878227    1.5835024   -0.4247342  0.00    0.0020071    0.0012374    0.0002709
n     0.2356897   -0.5075332   -0.9203762  0.00   -0.0044783    0.0012943   -0.0003735
c     2.0510093    0.7529055   -0.3019035  0.00    0.0008147    0.0000450   -0.0003120
c     1.6300201   -0.4963269   -0.5850024  0.00    0.0027849   -0.0004459    0.0004376
h    -0.3800518   -1.3111167   -1.1900013  0.00   -0.0017784   -0.0020446   -0.0004484
c     3.4579273    1.0440870    0.2161859  0.00    0.0016781    0.0012208   -0.0006793
c     4.1006819    2.3463213   -0.3247333  0.00   -0.0016219    0.0002978   -0.0015470
h     4.1126421    0.1791534   -0.0587282  0.00    0.0038383   -0.0022949   -0.0015517
h     3.4314773    1.0544061    1.3324186  0.00    0.0003728   -0.0012218    0.0054291
c     5.5887509    2.1638333   -0.6324196  0.00   -0.0002300   -0.0002303    0.0000801