    24
 Energy =       0.1500821212
c     0.0448833    2.3534058   -1.3813971  0.00   -0.0493284    0.0726255   -0.0494852
c     0.1418476    2.9248573   -0.1206726  0.00   -0.0476476    0.0978847   -0.0129168
c     0.7555652    2.2402731    0.9181560  0.00   -0.0006719    0.0524594    0.0794243
c     0.5800579    1.0803682   -1.5985351  0.00   -0.0080633   -0.0362704   -0.0686808
c     1.2047783    0.3610782   -0.5608861  0.00    0.0772644   -0.0975209    0.0514575
c     1.2772621    0.9610456    0.7017654  0.00    0.0226174   -0.0356476    0.0364660
o    -0.3596449    4.1638607    0.1435223  0.00   -0.0069823   -0.0149248   -0.0386523
h    -0.7857423    4.5034896   -0.6604687  0.00    0.0403043   -0.0552639    0.0424312
h     1.7275121    0.4624698    1.5506282  0.00   -0.0061163    0.0130993    0.0069004
h     0.4997167    0.6426498   -2.5929302  0.00   -0.0072433   -0.0525865   -0.0115852
h    -0.4370006    2.8749235   -2.2021886  0.00    0.0000963   -0.0019117   -0.0019693
h     0.8245662    2.6993933    1.9006814  0.00    0.0034507   -0.0018961    0.0035836
c     1.7669373   -1.0073413   -0.8964724  0.00   -0.0662908   -0.0293232    0.0090906
c     0.8861134   -2.0194266   -1.6556448  0.00    0.1502412    0.0594295    0.0360161
h     2.1212937   -1.4658931    0.0371405  0.00   -0.0065183    0.0110743   -0.0087195
h     2.6645729   -0.8285312   -1.5058794  0.00   -0.0097247    0.0008522    0.0068422
c    -0.2550706   -2.4993401   -0.7313897  0.00   -0.2435266   -0.3185924   -0.0150555
o    -0.8587891   -3.5562519   -0.8247086  0.00    0.1355834    0.2578450    0.0196841
o    -0.5457168   -1.5582366    0.2075950  0.00    0.0709764    0.0303277   -0.0534572
h    -0.5009462   -2.0340917    1.0754909  0.00    0.0219583    0.0073220   -0.0343817
n     0.2410616   -1.4915667   -2.9017470  0.00   -0.0831956    0.0102990   -0.0429635
h     1.4642165   -2.9122299   -1.9206526  0.00   -0.0184001    0.0164574   -0.0102891
h     0.7142380   -1.9162587   -3.7076332  0.00   -0.0174449    0.0083430    0.0305051
h    -0.7141630   -1.8528277   -2.9524509  0.00    0.0486617    0.0059183    0.0257549
    24
 Energy =       0.1325188466
c     0.1586779    2.3797254   -1.3418365  0.00   -0.0417540    0.0604857   -0.0422246
c     0.2304047    2.9040500   -0.0641074  0.00   -0.0401293    0.0822379   -0.0109731
c     0.8027093    2.1753400    0.9615836  0.00   -0.0001628    0.0442122    0.0671316
c     0.6748823    1.1112117   -1.5862992  0.00   -0.0083099   -0.0283056   -0.0581411
c     1.2288295    0.3375420   -0.5554073  0.00    0.0654745   -0.0819418    0.0447217
c     1.2888767    0.8926168    0.7222596  0.00    0.0196463   -0.0300209    0.0313204
o    -0.2518725    4.1495692    0.2319241  0.00   -0.0051598   -0.0124852   -0.0309328
h    -0.7087970    4.5200568   -0.5501773  0.00    0.0326168   -0.0454451    0.0343925
h     1.6968149    0.3458887    1.5655366  0.00   -0.0043339    0.0098934    0.0074113
h     0.6476439    0.7234002   -2.6043534  0.00   -0.0054268   -0.0413021   -0.0119976
h    -0.2782475    2.9466952   -2.1598662  0.00   -0.0007235   -0.0007779   -0.0034641
h     0.8561671    2.6028182    1.9597082  0.00    0.0030637   -0.0014657    0.0038213
c     1.7279004   -1.0557473   -0.9027166  0.00   -0.0548378   -0.0245460    0.0093169
c     0.7939212   -1.9991141   -1.6977703  0.00    0.1246490    0.0480407    0.0318159
h     2.0377869   -1.5578348    0.0288281  0.00   -0.0049105    0.0079907   -0.0059580
h     2.6484583   -0.9188117   -1.4938688  0.00   -0.0067938    0.0011202    0.0054882
c    -0.3526296   -2.4747173   -0.7920253  0.00   -0.2034648   -0.2670289   -0.0115848
o    -0.9494001   -3.5631117   -0.9216681  0.00    0.1137641    0.2148620    0.0157900
o    -0.6732139   -1.5583791    0.1656260  0.00    0.0569732    0.0347496   -0.0562336
h    -0.5046822   -2.0281555    1.0352726  0.00    0.0210584   -0.0014383   -0.0183445
n     0.1784864   -1.3980710   -2.9226941  0.00   -0.0707806    0.0080710   -0.0369165
h     1.3363803   -2.9099924   -1.9958168  0.00   -0.0149296    0.0121498   -0.0084688
h     0.6615105   -1.7764757   -3.7512419  0.00   -0.0140895    0.0065121    0.0232202
h    -0.7930580   -1.7226842   -3.0095670  0.00    0.0385609    0.0044322    0.0208096
    24
 Energy =       0.1321689680
c     0.2676830    2.3972326   -1.3138597  0.00   -0.0403555    0.0581222   -0.0412483
c     0.3140819    2.8902556   -0.0232859  0.00   -0.0388375    0.0796468   -0.0105921
c     0.8468461    2.1288129    0.9995423  0.00    0.0000314    0.0426899    0.0651989
c     0.7684592    1.1268651   -1.5722735  0.00   -0.0090650   -0.0252501   -0.0568338
c     1.2581783    0.3114337   -0.5417632  0.00    0.0631648   -0.0787164    0.0442317
c     1.3015513    0.8374646    0.7478960  0.00    0.0193210   -0.0293619    0.0306946
o    -0.1509518    4.1393151    0.2893267  0.00   -0.0046628   -0.0120077   -0.0290412
h    -0.6384868    4.5129505   -0.4747998  0.00    0.0308446   -0.0433175    0.0324225
h     1.6650936    0.2578859    1.5912629  0.00   -0.0036194    0.0086566    0.0083493
h     0.7867987    0.7699163   -2.6028526  0.00   -0.0043832   -0.0363209   -0.0126667
h    -0.1274454    2.9955770   -2.1322792  0.00   -0.0011695   -0.0001385   -0.0045547
h     0.8844709    2.5345299    2.0077877  0.00    0.0030671   -0.0014441    0.0041777
c     1.6907282   -1.1031029   -0.9019007  0.00   -0.0517606   -0.0237640    0.0101998
c     0.7195047   -1.9796703   -1.7387278  0.00    0.1189892    0.0446279    0.0329495
h     1.9537395   -1.6402575    0.0267683  0.00   -0.0042589    0.0064892   -0.0045908
h     2.6321038   -1.0055119   -1.4702376  0.00   -0.0052869    0.0015364    0.0050216
c    -0.4243815   -2.4727495   -0.8441533  0.00   -0.1955868   -0.2575477   -0.0102534
o    -1.0090084   -3.5708915   -0.9955719  0.00    0.1095037    0.2066335    0.0151621
o    -0.7683470   -1.5633076    0.1125933  0.00    0.0541233    0.0358447   -0.0565476
h    -0.5460221   -2.0139960    0.9827824  0.00    0.0209530   -0.0030312   -0.0155486
n     0.0973415   -1.3031458   -2.9227314  0.00   -0.0719512    0.0075052   -0.0360859
h     1.2328917   -2.8907118   -2.0939081  0.00   -0.0136802    0.0096839   -0.0085618
h     0.5802492   -1.6177226   -3.7809718  0.00   -0.0121085    0.0053041    0.0186342
h    -0.8775291   -1.6153524   -3.0273204  0.00    0.0367280    0.0041596    0.0194829
    24
 Energy =       0.1283550641
c     0.1527471    2.3889923   -1.3237643  0.00   -0.0400316    0.0575495   -0.0411474
c     0.2232385    2.8983264   -0.0403339  0.00   -0.0386131    0.0791782   -0.0106523
c     0.7962852    2.1588528    0.9773669  0.00    0.0001101    0.0423654    0.0648859
c     0.6693943    1.1248659   -1.5812254  0.00   -0.0100574   -0.0231349   -0.0570118
c     1.2229394    0.3388160   -0.5566402  0.00    0.0621293   -0.0771830    0.0447480
c     1.2833928    0.8794967    0.7262883  0.00    0.0194217   -0.0295608    0.0305943
o    -0.2618971    4.1409501    0.2707179  0.00   -0.0044269   -0.0118719   -0.0280349
h    -0.7206033    4.5252553   -0.5068900  0.00    0.0301463   -0.0425301    0.0313470
h     1.6942928    0.3222441    1.5645542  0.00   -0.0029959    0.0077493    0.0093116
h     0.6463344    0.7538512   -2.6067966  0.00   -0.0039051   -0.0322190   -0.0130148
h    -0.2835631    2.9664974   -2.1375489  0.00   -0.0015772    0.0003685   -0.0054235
h     0.8489993    2.5755786    1.9805839  0.00    0.0031304   -0.0015133    0.0043972
c     1.7315387   -1.0531541   -0.9138278  0.00   -0.0502503   -0.0239032    0.0112430
c     0.7937656   -1.9984729   -1.7112773  0.00    0.1165304    0.0425712    0.0351240
h     2.0494245   -1.5647201    0.0139939  0.00   -0.0036027    0.0050712   -0.0033891
h     2.6520447   -0.9053266   -1.5083714  0.00   -0.0035478    0.0021769    0.0044021
c    -0.3526323   -2.4745565   -0.8068143  0.00   -0.1932581   -0.2550211   -0.0094410
o    -0.9473224   -3.5707214   -0.9442349  0.00    0.1082857    0.2043920    0.0150351
o    -0.6805375   -1.5657875    0.1567226  0.00    0.0534480    0.0359220   -0.0560136
h    -0.4562678   -2.0218426    1.0239191  0.00    0.0207443   -0.0030369   -0.0153587
n     0.1841995   -1.3935062   -2.9417444  0.00   -0.0747158    0.0072485   -0.0364435
h     1.3372148   -2.9145251   -2.0081493  0.00   -0.0127193    0.0075256   -0.0087781
h     0.6663478   -1.7764757   -3.7756631  0.00   -0.0103180    0.0039253    0.0146334
h    -0.7917870   -1.7088186   -3.0295423  0.00    0.0360730    0.0039305    0.0189872
    24
 Energy =       0.1181894932
c     0.0691329    2.3769849   -1.3252846  0.00   -0.0348173    0.0503147   -0.0360042
c     0.1545085    2.8934904   -0.0490154  0.00   -0.0336883    0.0692679   -0.0094070
c     0.7524040    2.1673906    0.9586887  0.00    0.0000574    0.0370591    0.0567235
c     0.5936962    1.1213516   -1.5863928  0.00   -0.0092197   -0.0192374   -0.0499913
c     1.1878051    0.3571631   -0.5731377  0.00    0.0536079   -0.0668149    0.0395052
c     1.2605977    0.9020428    0.7032812  0.00    0.0169619   -0.0260762    0.0267373
o    -0.3454359    4.1337125    0.2641624  0.00   -0.0039402   -0.0103765   -0.0242413
h    -0.7928517    4.5329900   -0.5178461  0.00    0.0262906   -0.0369826    0.0271061
h     1.7064669    0.3569139    1.5321522  0.00   -0.0022809    0.0063092    0.0086379
h     0.5394038    0.7414302   -2.6067993  0.00   -0.0036954   -0.0260131   -0.0115577
h    -0.3948308    2.9431917   -2.1315608  0.00   -0.0015554    0.0005515   -0.0051336
h     0.8141620    2.5891651    1.9589514  0.00    0.0027623   -0.0013693    0.0039328
c     1.7555305   -1.0141529   -0.9261989  0.00   -0.0435567   -0.0210381    0.0102726
c     0.8399696   -2.0093983   -1.6838036  0.00    0.1007772    0.0359283    0.0331406
h     2.1200258   -1.5031365   -0.0012855  0.00   -0.0027499    0.0035082   -0.0020795
h     2.6537848   -0.8323998   -1.5482922  0.00   -0.0020762    0.0024396    0.0033792
c    -0.3193019   -2.4610771   -0.7822610  0.00   -0.1685448   -0.2226888   -0.0068318
o    -0.9184382   -3.5737500   -0.9188227  0.00    0.0947553    0.1783182    0.0134610
o    -0.6550227   -1.5632138    0.1915468  0.00    0.0406026    0.0396374   -0.0635431
h    -0.2975147   -1.9702764    1.0521118  0.00    0.0241493   -0.0104664    0.0004248
n     0.2741868   -1.4617769   -2.9591102  0.00   -0.0678244    0.0081666   -0.0325232
h     1.4055830   -2.9331435   -1.9189782  0.00   -0.0101775    0.0047091   -0.0079687
h     0.7642659   -1.9104184   -3.7602465  0.00   -0.0068909    0.0016157    0.0092606
h    -0.7105785   -1.7572635   -3.0505361  0.00    0.0310532    0.0032380    0.0166999
    24
 Energy =       0.1149808179
c     0.0870842    2.3804540   -1.3245941  0.00   -0.0343560    0.0496403   -0.0355267
c     0.1704241    2.8947020   -0.0476083  0.00   -0.0332375    0.0683457   -0.0092840
c     0.7647925    2.1660821    0.9598438  0.00    0.0000561    0.0365658    0.0559658
c     0.6097143    1.1246197   -1.5865209  0.00   -0.0091075   -0.0189680   -0.0493307
c     1.1983781    0.3573491   -0.5731750  0.00    0.0528660   -0.0659548    0.0390142
c     1.2698138    0.9000411    0.7038346  0.00    0.0167138   -0.0257584    0.0263830
o    -0.3284350    4.1355172    0.2664958  0.00   -0.0038789   -0.0102467   -0.0238982
h    -0.7807639    4.5340453   -0.5135325  0.00    0.0259264   -0.0364777    0.0267264
h     1.7108765    0.3512727    1.5328556  0.00   -0.0022493    0.0061953    0.0085288
h     0.5576625    0.7466984   -2.6075162  0.00   -0.0036431   -0.0256567   -0.0114071
h    -0.3736116    2.9490648   -2.1309581  0.00   -0.0015376    0.0005479   -0.0050723
h     0.8250319    2.5860149    1.9608954  0.00    0.0027290   -0.0013512    0.0038835
c     1.7589823   -1.0174513   -0.9245047  0.00   -0.0431164   -0.0207986    0.0102402
c     0.8395036   -2.0059622   -1.6863785  0.00    0.0992750    0.0355495    0.0326528
h     2.1119078   -1.5098203    0.0034343  0.00   -0.0028321    0.0034018   -0.0019269
h     2.6624509   -0.8423979   -1.5409155  0.00   -0.0020057    0.0024216    0.0033159
c    -0.3228114   -2.4502634   -0.7870288  0.00   -0.1661424   -0.2200700   -0.0063228
o    -0.9361678   -3.5569045   -0.9284937  0.00    0.0935389    0.1757997    0.0135374
o    -0.6607402   -1.5472256    0.1814801  0.00    0.0352028    0.0520667   -0.0840913
h    -0.4562678   -2.0306533    1.0678100  0.00    0.0289285   -0.0227374    0.0209766
n     0.2813234   -1.4552139   -2.9632523  0.00   -0.0669196    0.0080767   -0.0321011
h     1.4001119   -2.9334057   -1.9192376  0.00   -0.0100206    0.0046287   -0.0078570
h     0.7730334   -1.9052052   -3.7627163  0.00   -0.0067927    0.0015931    0.0091293
h    -0.7047442   -1.7455385   -3.0588945  0.00    0.0306029    0.0031865    0.0164641
    24
 Energy =       0.1006480003
c     0.0820491    2.3760522   -1.3223743  0.00   -0.0279514    0.0404794   -0.0289021
c     0.1640700    2.8857705   -0.0478830  0.00   -0.0270336    0.0556908   -0.0076492
c     0.7610209    2.1574587    0.9511559  0.00    0.0000537    0.0298431    0.0455487
c     0.6057584    1.1276974   -1.5902235  0.00   -0.0074335   -0.0154509   -0.0401596
c     1.1980917    0.3647553   -0.5850398  0.00    0.0429428   -0.0537402    0.0318542
c     1.2706807    0.9006894    0.6894453  0.00    0.0135760   -0.0209993    0.0214599
o    -0.3423102    4.1272878    0.2707777  0.00   -0.0031195   -0.0084185   -0.0193867
h    -0.8003760    4.5377302   -0.5062928  0.00    0.0210636   -0.0296945    0.0217167
h     1.7196287    0.3485299    1.5115493  0.00   -0.0017995    0.0049872    0.0069515
h     0.5491269    0.7518588   -2.6104655  0.00   -0.0031226   -0.0209574   -0.0093156
h    -0.3833832    2.9463716   -2.1237595  0.00   -0.0012579    0.0004600   -0.0041495
h     0.8197772    2.5741682    1.9530940  0.00    0.0022211   -0.0010891    0.0031691
c     1.7760705   -1.0040798   -0.9299570  0.00   -0.0354216   -0.0170252    0.0084742
c     0.8548845   -2.0051154   -1.6690646  0.00    0.0808905    0.0284787    0.0277928
h     2.1419817   -1.4881744   -0.0016380  0.00   -0.0024292    0.0026912   -0.0014203
h     2.6708975   -0.8265330   -1.5594489  0.00   -0.0015569    0.0020444    0.0026357
c    -0.3203392   -2.4230555   -0.7775453  0.00   -0.1345297   -0.1792637   -0.0047722
o    -0.9528790   -3.5419509   -0.9342220  0.00    0.0758079    0.1432636    0.0107825
o    -0.6869780   -1.5208647    0.1862021  0.00    0.0268501    0.0497637   -0.0814259
h    -0.6150209   -2.0363986    1.0795490  0.00    0.0253311   -0.0256466    0.0300248
n     0.3426130   -1.4787455   -2.9711287  0.00   -0.0546282    0.0085551   -0.0265767
h     1.4174838   -2.9425921   -1.8622631  0.00   -0.0077808    0.0030992   -0.0064647
h     0.8392402   -1.9675220   -3.7474671  0.00   -0.0045665    0.0005198    0.0062523
h    -0.6545393   -1.7375185   -3.0816774  0.00    0.0238940    0.0024093    0.0135601
    24
 Energy =       0.0901286855
c     0.0865636    2.3725333   -1.3112928  0.00   -0.0223274    0.0323716   -0.0231017
c     0.1651963    2.8736939   -0.0369805  0.00   -0.0215626    0.0445323   -0.0061962
c     0.7626597    2.1420464    0.9530992  0.00    0.0000607    0.0239238    0.0363784
c     0.6112629    1.1315494   -1.5876596  0.00   -0.0059584   -0.0124193   -0.0320888
c     1.2028169    0.3678431   -0.5909570  0.00    0.0343018   -0.0429964    0.0255086
c     1.2751335    0.8935648    0.6832260  0.00    0.0108329   -0.0167755    0.0171430
o    -0.3482065    4.1147236    0.2893757  0.00   -0.0023976   -0.0067964   -0.0153688
h    -0.8175923    4.5347857   -0.4817157  0.00    0.0166955   -0.0236787    0.0172832
h     1.7282033    0.3350880    1.4984278  0.00   -0.0014125    0.0039463    0.0055677
h     0.5541760    0.7616882   -2.6088230  0.00   -0.0026002   -0.0169053   -0.0074697
h    -0.3807028    2.9476399   -2.1072586  0.00   -0.0010144    0.0003767   -0.0033401
h     0.8187278    2.5525067    1.9573144  0.00    0.0017746   -0.0008466    0.0025562
c     1.7900555   -0.9972747   -0.9337117  0.00   -0.0285064   -0.0137006    0.0068298
c     0.8638994   -2.0017272   -1.6596269  0.00    0.0649336    0.0223862    0.0233087
h     2.1632819   -1.4793178   -0.0064652  0.00   -0.0020281    0.0021250   -0.0010880
h     2.6795993   -0.8199078   -1.5717597  0.00   -0.0012282    0.0016537    0.0020672
c    -0.3294902   -2.3948915   -0.7829097  0.00   -0.1066017   -0.1433753   -0.0034972
o    -0.9810797   -3.5221298   -0.9602736  0.00    0.0600321    0.1144870    0.0083044
o    -0.7280386   -1.4918929    0.1722850  0.00    0.0208442    0.0454355   -0.0746631
h    -0.7737741   -2.0239418    1.0585333  0.00    0.0204589   -0.0259317    0.0338416
n     0.4003677   -1.4920657   -2.9831315  0.00   -0.0432725    0.0087746   -0.0217687
h     1.4237117   -2.9490987   -1.8183342  0.00   -0.0058826    0.0019674   -0.0051759
h     0.8980055   -2.0163658   -3.7377565  0.00   -0.0027755   -0.0002939    0.0040732
h    -0.6072276   -1.7132300   -3.1122823  0.00    0.0176334    0.0017396    0.0108962
    24
 Energy =       0.0830582825
c     0.0962345    2.3686581   -1.2914939  0.00   -0.0177832    0.0258055   -0.0184673
c     0.1718169    2.8589344   -0.0157586  0.00   -0.0171152    0.0355311   -0.0050129
c     0.7715466    2.1225502    0.9644504  0.00    0.0000620    0.0191413    0.0290026
c     0.6224287    1.1348285   -1.5785419  0.00   -0.0047667   -0.0099979   -0.0256035
c     1.2127631    0.3672660   -0.5908680  0.00    0.0274140   -0.0343058    0.0203584
c     1.2860238    0.8814464    0.6843847  0.00    0.0086364   -0.0133789    0.0136881
o    -0.3504140    4.0970367    0.3212734  0.00   -0.0015230   -0.0056255   -0.0117513
h    -0.8471369    4.5174275   -0.4377568  0.00    0.0127996   -0.0185978    0.0133626
h     1.7422017    0.3155334    1.4924406  0.00   -0.0011024    0.0031114    0.0044670
h     0.5650841    0.7729507   -2.6014301  0.00   -0.0021459   -0.0135972   -0.0059750
h    -0.3730114    2.9498026   -2.0811668  0.00   -0.0008205    0.0003105   -0.0027046
h     0.8255242    2.5249920    1.9716733  0.00    0.0014134   -0.0006456    0.0020751
c     1.8021731   -0.9964417   -0.9349407  0.00   -0.0227481   -0.0109977    0.0054374
c     0.8695219   -1.9965866   -1.6579791  0.00    0.0523562    0.0174927    0.0197309
h     2.1753426   -1.4822417   -0.0090467  0.00   -0.0016772    0.0016798   -0.0008506
h     2.6908678   -0.8212124   -1.5755830  0.00   -0.0009933    0.0013139    0.0016307
c    -0.3491479   -2.3624101   -0.8043848  0.00   -0.0840500   -0.1144960   -0.0023863
o    -1.0222492   -3.4913046   -1.0057875  0.00    0.0470697    0.0911620    0.0063662
o    -0.7787190   -1.4547061    0.1372618  0.00    0.0166445    0.0410653   -0.0673908
h    -0.9325272   -1.9930877    1.0069397  0.00    0.0155773   -0.0253200    0.0352295
n     0.4605092   -1.4985460   -3.0015273  0.00   -0.0336518    0.0091400   -0.0180833
h     1.4209496   -2.9552170   -1.7840899  0.00   -0.0043166    0.0010746   -0.0040756
h     0.9540805   -2.0597544   -3.7340492  0.00   -0.0012316   -0.0010665    0.0023327
h    -0.5563134   -1.6740985   -3.1526970  0.00    0.0119522    0.0012008    0.0086199
    24
 Energy =       0.0789576587
c     0.0970105    2.3545491   -1.2634790  0.00   -0.0140473    0.0204521   -0.0150340
c     0.1803360    2.8372098    0.0122300  0.00   -0.0133441    0.0282660   -0.0043164
c     0.8075294    2.1068669    0.9761954  0.00    0.0002963    0.0150301    0.0234243
c     0.6322896    1.1311376   -1.5645850  0.00   -0.0038045   -0.0081631   -0.0205515
c     1.2390086    0.3658543   -0.5901864  0.00    0.0220463   -0.0274658    0.0162970
c     1.3293443    0.8751204    0.6833051  0.00    0.0069395   -0.0108070    0.0111538
o    -0.3708219    4.0611537    0.3661172  0.00    0.0078111   -0.0092128    0.0012612
h    -0.9860293    4.4287968   -0.3486057  0.00    0.0003133   -0.0090959    0.0003559
h     1.8027067    0.3082273    1.4807038  0.00   -0.0008059    0.0023792    0.0037266
h     0.5617938    0.7728731   -2.5869300  0.00   -0.0018131   -0.0108143   -0.0048394
h    -0.3910639    2.9348952   -2.0419532  0.00   -0.0007185    0.0003355   -0.0024322
h     0.8687211    2.5043806    1.9846910  0.00    0.0011335   -0.0005137    0.0017198
c     1.8222410   -0.9999870   -0.9370733  0.00   -0.0179645   -0.0088030    0.0041731
c     0.8775970   -1.9907293   -1.6587217  0.00    0.0430193    0.0134863    0.0176266
h     2.1912325   -1.4920672   -0.0123733  0.00   -0.0013850    0.0012922   -0.0006641
h     2.7116966   -0.8314178   -1.5791433  0.00   -0.0008008    0.0010456    0.0012712
c    -0.3795899   -2.3062997   -0.8379359  0.00   -0.0661396   -0.0920938   -0.0013239
o    -1.0878908   -3.4251083   -1.0575288  0.00    0.0361575    0.0726193    0.0050932
o    -0.8350628   -1.3762009    0.0739126  0.00    0.0133798    0.0375324   -0.0604053
h    -1.0912803   -1.9027998    0.9256861  0.00    0.0109795   -0.0244915    0.0355627
n     0.5400025   -1.5124596   -3.0285483  0.00   -0.0250346    0.0115987   -0.0155132
h     1.4082754   -2.9677561   -1.7399203  0.00   -0.0026557   -0.0002753   -0.0030779
h     1.0157565   -2.1306659   -3.7299281  0.00    0.0012431   -0.0030864   -0.0002323
h    -0.4862534   -1.6197537   -3.2046061  0.00    0.0051944    0.0007852    0.0067247
    24
 Energy =       0.0768802592
c     0.1438026    2.3591692   -1.2316034  0.00   -0.0122508    0.0176859   -0.0130633
c     0.2272680    2.8294584    0.0475387  0.00   -0.0115261    0.0241147   -0.0038463
c     0.8294454    2.0772671    1.0089508  0.00    0.0004272    0.0127773    0.0204042
c     0.6580308    1.1302342   -1.5398681  0.00   -0.0033563   -0.0069795   -0.0179013
c     1.2412834    0.3456807   -0.5691374  0.00    0.0193765   -0.0235921    0.0140648
c     1.3301573    0.8401216    0.7088306  0.00    0.0061643   -0.0094871    0.0097532
o    -0.2934078    4.0675704    0.4057427  0.00    0.0082144   -0.0086128    0.0032571
h    -0.8651721    4.4782272   -0.3243026  0.00   -0.0015623   -0.0063198   -0.0018938
h     1.7872159    0.2562686    1.5036950  0.00   -0.0005650    0.0018766    0.0034033
h     0.5903545    0.7841254   -2.5658001  0.00   -0.0015994   -0.0092917   -0.0042466
h    -0.3255565    2.9566100   -2.0086667  0.00   -0.0007731    0.0004833   -0.0023294
h     0.8913109    2.4652499    2.0210010  0.00    0.0009956   -0.0004348    0.0015467
c     1.8032946   -1.0283400   -0.9200573  0.00   -0.0151237   -0.0073326    0.0035248
c     0.8512566   -1.9905816   -1.6723831  0.00    0.0379983    0.0107780    0.0161973
h     2.1423176   -1.5402224    0.0063517  0.00   -0.0009742    0.0007702   -0.0000886
h     2.7097708   -0.8719100   -1.5421218  0.00   -0.0003246    0.0010671    0.0009383
c    -0.4408625   -2.2779553   -0.8947890  0.00   -0.0563191   -0.0794630   -0.0008440
o    -1.1686162   -3.3859776   -1.1473399  0.00    0.0299911    0.0619957    0.0043441
o    -0.9237166   -1.3368657   -0.0060447  0.00    0.0113306    0.0343011   -0.0549671
h    -1.2500334   -1.8554517    0.8246607  0.00    0.0083782   -0.0230254    0.0342973
n     0.5777734   -1.5010929   -3.0523127  0.00   -0.0190552    0.0122538   -0.0144670
h     1.3598097   -2.9812737   -1.7363979  0.00   -0.0019579   -0.0006476   -0.0023926
h     1.0328944   -2.1513762   -3.7392438  0.00    0.0020088   -0.0036390   -0.0007527
h    -0.4510715   -1.5431163   -3.2553800  0.00    0.0005026    0.0007213    0.0050614
    24
 Energy =       0.0765921830
c     0.2065943    2.3606699   -1.1978739  0.00   -0.0113698    0.0164021   -0.0120134
c     0.2938865    2.8200336    0.0843045  0.00   -0.0105465    0.0218714   -0.0036627
c     0.8701673    2.0459035    1.0434657  0.00    0.0004771    0.0116188    0.0188598
c     0.6932660    1.1227853   -1.5119914  0.00   -0.0031543   -0.0062955   -0.0166059
c     1.2495302    0.3170431   -0.5439249  0.00    0.0181871   -0.0212558    0.0128274
c     1.3424211    0.7995763    0.7375610  0.00    0.0058484   -0.0089651    0.0090133
o    -0.1933508    4.0717789    0.4469081  0.00    0.0079176   -0.0077527    0.0038945
h    -0.7360937    4.5120846   -0.2890210  0.00   -0.0022280   -0.0049870   -0.0026547
h     1.7803090    0.1983749    1.5306008  0.00   -0.0003626    0.0014801    0.0033236
h     0.6242528    0.7868314   -2.5405056  0.00   -0.0014996   -0.0084694   -0.0039520
h    -0.2425412    2.9755117   -1.9735222  0.00   -0.0008754    0.0006956   -0.0023547
h     0.9360298    2.4257678    2.0583071  0.00    0.0009160   -0.0003796    0.0014650
c     1.7754889   -1.0713126   -0.8975596  0.00   -0.0131749   -0.0063733    0.0029957
c     0.8115661   -1.9936057   -1.6874738  0.00    0.0359798    0.0083462    0.0160113
h     2.0721575   -1.6065372    0.0315498  0.00   -0.0005089   -0.0000064    0.0007509
h     2.7039078   -0.9374112   -1.4935011  0.00    0.0004556    0.0012758    0.0005766
c    -0.5225820   -2.2334152   -0.9621319  0.00   -0.0507504   -0.0734931   -0.0009812
o    -1.2769987   -3.3224732   -1.2400608  0.00    0.0259125    0.0561074    0.0041862
o    -1.0294476   -1.2626013   -0.1166443  0.00    0.0088992    0.0329798   -0.0509402
h    -1.4087865   -1.7578240    0.7046084  0.00    0.0067339   -0.0221544    0.0336431
n     0.6149322   -1.4928712   -3.0775750  0.00   -0.0120136    0.0158504   -0.0133027
h     1.2848921   -3.0037953   -1.7317078  0.00   -0.0012270   -0.0014579   -0.0017408
h     1.0214832   -2.1931734   -3.7492250  0.00    0.0041228   -0.0065085   -0.0024544
h    -0.4135350   -1.4355215   -3.3032642  0.00   -0.0077390    0.0014713    0.0031152
    24
 Energy =       0.0756048154
c     0.1838339    2.3569063   -1.1620769  0.00   -0.0104561    0.0150696   -0.0111368
c     0.2875687    2.8127528    0.1195803  0.00   -0.0097003    0.0201241   -0.0033575
c     0.8765408    2.0365293    1.0682106  0.00    0.0004490    0.0106652    0.0174098
c     0.6668757    1.1211045   -1.4863087  0.00   -0.0029450   -0.0057491   -0.0153148
c     1.2388780    0.3145448   -0.5290827  0.00    0.0167599   -0.0195460    0.0117948
c     1.3477729    0.7932257    0.7520331  0.00    0.0053957   -0.0082640    0.0083851
o    -0.1959505    4.0637374    0.4921980  0.00    0.0072807   -0.0070787    0.0036497
h    -0.7396498    4.5115967   -0.2383966  0.00   -0.0020854   -0.0045389   -0.0024798
h     1.7990380    0.1908900    1.5366874  0.00   -0.0002845    0.0013047    0.0031602
h     0.5789696    0.7873748   -2.5137465  0.00   -0.0014464   -0.0075667   -0.0037183
h    -0.2776444    2.9728380   -1.9294599  0.00   -0.0008466    0.0006854   -0.0022629
h     0.9550785    2.4135307    2.0832183  0.00    0.0008537   -0.0003324    0.0014356
c     1.7692961   -1.0703596   -0.8916165  0.00   -0.0119899   -0.0057989    0.0028022
c     0.8156596   -1.9846594   -1.7037901  0.00    0.0329698    0.0074095    0.0151236
h     2.0522299   -1.6160070    0.0358529  0.00   -0.0004342   -0.0000644    0.0008216
h     2.7060379   -0.9304052   -1.4731522  0.00    0.0005441    0.0012203    0.0004438
c    -0.5373188   -2.2157534   -1.0101863  0.00   -0.0467295   -0.0674966   -0.0002562
o    -1.2922381   -3.3019067   -1.3131737  0.00    0.0234982    0.0512548    0.0037476
o    -1.0594356   -1.2495654   -0.1679711  0.00    0.0085428    0.0310251   -0.0480111
h    -1.4775965   -1.7474639    0.6309864  0.00    0.0056150   -0.0210443    0.0322231
n     0.6591535   -1.4812976   -3.0973714  0.00   -0.0058607    0.0229888   -0.0026694
h     1.2800761   -2.9994553   -1.7374061  0.00   -0.0010385   -0.0015943   -0.0011775
h     1.1802364   -2.1281225   -3.7548150  0.00    0.0101718   -0.0136328   -0.0106073
h    -0.3598627   -1.5242154   -3.3888906  0.00   -0.0182635    0.0009596   -0.0000054
    24
 Energy =       0.0741162006
c     0.1343411    2.3635045   -1.2037919  0.00   -0.0103896    0.0150025   -0.0110458
c     0.2075334    2.8214942    0.0795891  0.00   -0.0094216    0.0195829   -0.0032010
c     0.8033643    2.0604414    1.0362012  0.00    0.0003121    0.0108928    0.0173091
c     0.6539930    1.1403298   -1.5216524  0.00   -0.0028521   -0.0060678   -0.0151485
c     1.2336273    0.3492768   -0.5566101  0.00    0.0167528   -0.0186277    0.0109857
c     1.3110301    0.8297254    0.7263033  0.00    0.0054503   -0.0082211    0.0084429
o    -0.3160507    4.0590042    0.4458091  0.00    0.0068597   -0.0060226    0.0041058
h    -0.8635033    4.4918775   -0.2911921  0.00   -0.0022180   -0.0042544   -0.0025326
h     1.7666929    0.2386470    1.5170316  0.00   -0.0002322    0.0012530    0.0031865
h     0.5955259    0.8053461   -2.5517787  0.00   -0.0013202   -0.0075482   -0.0040062
h    -0.3311676    2.9683635   -1.9775927  0.00   -0.0008750    0.0007504   -0.0022765
h     0.8568334    2.4385245    2.0526841  0.00    0.0007968   -0.0001133    0.0016830
c     1.8127374   -1.0171602   -0.9146915  0.00   -0.0109409   -0.0052756    0.0020351
c     0.8723433   -1.9801998   -1.6855541  0.00    0.0336215    0.0063895    0.0157384
h     2.1477155   -1.5387359    0.0110463  0.00    0.0002038   -0.0011644    0.0018800
h     2.7260534   -0.8460638   -1.5265366  0.00    0.0015943    0.0016919    0.0000113
c    -0.4398286   -2.2789792   -0.9366069  0.00   -0.0453131   -0.0691110   -0.0019078
o    -1.1698462   -3.3831625   -1.2397951  0.00    0.0221600    0.0499398    0.0039390
o    -0.9450373   -1.3663924   -0.0230078  0.00    0.0054877    0.0336217   -0.0447922
h    -1.3499733   -1.9062171    0.7566171  0.00    0.0047108   -0.0216041    0.0330297
n     0.6363922   -1.4856807   -3.0734818  0.00   -0.0044344    0.0248867   -0.0044787
h     1.3871104   -2.9712921   -1.7354927  0.00   -0.0001124   -0.0030688   -0.0003176
h     1.1253027   -2.1338984   -3.7546989  0.00    0.0105040   -0.0138757   -0.0116817
h    -0.3976400   -1.5329334   -3.3114759  0.00   -0.0203441    0.0009434   -0.0009579
    24
 Energy =       0.0722696310
c     0.0735830    2.3668455   -1.2125771  0.00   -0.0096441    0.0140042   -0.0101900
c     0.1198635    2.8186309    0.0740615  0.00   -0.0085403    0.0178609   -0.0028710