    13
 Energy =       0.4176669063
c    -3.7133889    1.6950595    0.3173519  0.00   -0.1172355    0.1240907   -0.0283781
c    -2.4962693    2.6345192    0.2419999  0.00    0.3552443   -0.0534988    0.1018859
c    -4.9565486    2.3924193   -0.2155699  0.00    0.7116188    0.7654547   -0.2479318
h    -5.8072983    1.7014095   -0.2223689  0.00    0.0103869    0.0150500   -0.0000705
h    -4.8071186    2.7393792   -1.2437896  0.00    0.7354203    0.6643662    0.4165278
h    -5.2375685    3.2516891    0.4029209  0.00    0.0558384    0.0028226   -0.0525363
n    -3.4097890    0.4519539   -0.4549189  0.00    0.0806415   -0.0591154   -0.0114610
h    -3.8575589    1.4177196    1.3669296  0.00    0.0054477   -0.0106386   -0.0273313
h    -2.5963493    0.6418898   -1.0496997  0.00   -0.0248600    0.0153413    0.0435843
h    -3.0749291   -0.2623099    0.1989099  0.00   -0.0112359    0.0315526   -0.0228523
o    -1.4040496    2.4172293    0.7380088  0.00   -0.2610329    0.0548531   -0.1190703
o    -2.7835192    3.7545589   -0.4737969  0.00   -0.1102119   -0.0723591    0.0001679
h    -3.7512389    3.6942389   -0.6738148  0.00   -1.4300218   -1.4779191   -0.0525343
    13
 Energy =       0.2648015544
c    -3.7050772    1.7159653    0.3112518  0.00   -0.0595539    0.0727215   -0.0166568
c    -2.4802322    2.6070413    0.1737562  0.00    0.1673096   -0.0208899    0.0412978
c    -4.9278733    2.4190069   -0.2496095  0.00    0.4348692    0.4577139   -0.1599816
h    -5.7749433    1.7091053   -0.2831992  0.00    0.0050235    0.0062225   -0.0004797
h    -4.8035919    2.8054649   -1.2493041  0.00    0.4318140    0.3928961    0.2555518
h    -5.2260951    3.2558123    0.4014847  0.00    0.0332007    0.0022542   -0.0299336
n    -3.5039593    0.4137996   -0.3781731  0.00    0.0296040   -0.0341521   -0.0038603
h    -3.8488067    1.5424144    1.3994472  0.00    0.0013951   -0.0041699   -0.0077594
h    -2.6959962    0.4831367   -1.0375833  0.00   -0.0009937    0.0077865    0.0129628
h    -3.2178205   -0.2936732    0.3279559  0.00   -0.0046913    0.0119889   -0.0071629
o    -1.3429105    2.3042466    0.7508569  0.00   -0.1237037    0.0196627   -0.0494224
o    -2.6810745    3.7648863   -0.5383253  0.00   -0.0405781   -0.0349339   -0.0024819
h    -3.6872456    3.8025499   -0.6963959  0.00   -0.8736954   -0.8771004   -0.0320738
    13
 Energy =       0.2244457111
c    -3.7047810    1.6939911    0.2976289  0.00   -0.0466698    0.0609110   -0.0122193
c    -2.4893596    2.6059396    0.2259586  0.00    0.1301809   -0.0157361    0.0328429
c    -4.9288409    2.4283708   -0.2193443  0.00    0.3490741    0.3695390   -0.1294045
h    -5.7875828    1.7300593   -0.2539142  0.00    0.0037443    0.0047965   -0.0003754
h    -4.7942068    2.8083997   -1.2215362  0.00    0.3475174    0.3142738    0.2054435
h    -5.2046173    3.2593395    0.4543376  0.00    0.0263461    0.0022404   -0.0233341
n    -3.5066207    0.4455260   -0.4878049  0.00    0.0197988   -0.0270716   -0.0114225
h    -3.8497568    1.4445417    1.3752969  0.00    0.0006796   -0.0038652   -0.0031540
h    -2.6696412    0.5428892   -1.1110067  0.00    0.0010833    0.0070938    0.0083343
h    -3.2817974   -0.3380866    0.1692027  0.00   -0.0021188    0.0022009    0.0007185
o    -1.3464733    2.2723566    0.8149799  0.00   -0.0961175    0.0146246   -0.0381902
o    -2.6682519    3.8014758   -0.4386102  0.00   -0.0264258   -0.0241736   -0.0018132
h    -3.6636965    3.8349539   -0.6730260  0.00   -0.7070924   -0.7048336   -0.0274260
    13
 Energy =       0.1614556441
c    -3.6981291    1.6856813    0.2818142  0.00   -0.0223415    0.0322060   -0.0064568
c    -2.4968521    2.6202512    0.2567978  0.00    0.0636532   -0.0083286    0.0155488
c    -4.9363165    2.4204480   -0.2211209  0.00    0.2104496    0.2242428   -0.0791692
h    -5.7906627    1.7129551   -0.2651147  0.00    0.0017937    0.0022481   -0.0002121
h    -4.7989804    2.8172760   -1.2271274  0.00    0.2099493    0.1901179    0.1230102
h    -5.2157875    3.2431845    0.4666208  0.00    0.0155898    0.0018547   -0.0134687
n    -3.5002512    0.4741315   -0.5504331  0.00   -0.0074969    0.0009444   -0.0150242
h    -3.8459722    1.4027464    1.3526546  0.00    0.0000080   -0.0017767   -0.0007454
h    -2.5746499    0.5246464   -1.0642754  0.00    0.0161362    0.0067734   -0.0043290
h    -3.4405505   -0.3763836    0.0838345  0.00   -0.0004322   -0.0186901    0.0170043
o    -1.3361750    2.2721537    0.8722967  0.00   -0.0470252    0.0069964   -0.0178947
o    -2.6433374    3.8441099   -0.3742772  0.00   -0.0089776   -0.0103688   -0.0000753
h    -3.6179617    3.8885560   -0.6795076  0.00   -0.4313063   -0.4262194   -0.0181879
    13
 Energy =       0.1065632153
c    -3.6984271    1.6587993    0.2678607  0.00   -0.0066036    0.0098798   -0.0015498
c    -2.5274768    2.6371030    0.3356013  0.00    0.0097088   -0.0001286   -0.0009280
c    -4.9696927    2.3696726   -0.2020646  0.00    0.0909717    0.0963837   -0.0340575
h    -5.8028330    1.6342732   -0.2634625  0.00   -0.0002188   -0.0002301    0.0000740
h    -4.8495806    2.8167928   -1.2030701  0.00    0.0909981    0.0851902    0.0506341
h    -5.2637090    3.1653705    0.5160809  0.00    0.0066550    0.0021768   -0.0050553
n    -3.4596840    0.5167731   -0.6425226  0.00   -0.0087949    0.0025533   -0.0073884
h    -3.8548483    1.2991825    1.3178508  0.00   -0.0012630   -0.0008413    0.0031224
h    -2.5815317    0.6523080   -1.2159316  0.00    0.0116669    0.0001841   -0.0064560
h    -3.3062176   -0.3582738   -0.0712017  0.00   -0.0001259   -0.0114632    0.0086932
o    -1.3771513    2.2998620    1.0310498  0.00   -0.0044481    0.0016113    0.0010791
o    -2.6326102    3.8817599   -0.2745540  0.00    0.0042140   -0.0008536    0.0021112
h    -3.5718641    3.9561333   -0.6634741  0.00   -0.1927602   -0.1844623   -0.0102789
    13
 Energy =       0.0893004172
c    -3.6938317    1.6428032    0.2556980  0.00   -0.0018755    0.0050549   -0.0003042
c    -2.5284971    2.6283288    0.3417068  0.00    0.0024499    0.0007954   -0.0007267
c    -4.9974267    2.3413529   -0.1440264  0.00    0.0522246    0.0553182   -0.0195829
h    -5.8146278    1.5888382   -0.2150712  0.00   -0.0003230   -0.0004004    0.0002174
h    -4.9133635    2.8401830   -1.1295069  0.00    0.0542095    0.0520848    0.0281481
h    -5.2868769    3.0981491    0.6190037  0.00    0.0033275    0.0024026   -0.0019102
n    -3.4619026    0.5443092   -0.7057342  0.00   -0.0217001    0.0099753   -0.0035188
h    -3.8164579    1.2332213    1.2918835  0.00   -0.0009522   -0.0008105    0.0034023
h    -2.6653589    0.7705467   -1.3746847  0.00    0.0201225    0.0028914   -0.0151346
h    -3.1653304   -0.3261127   -0.1739266  0.00    0.0037608   -0.0196314    0.0136829
o    -1.3533135    2.2487101    0.9775104  0.00    0.0005998   -0.0010656    0.0022179
o    -2.6337804    3.9026101   -0.2113549  0.00    0.0020025    0.0015766    0.0001893
h    -3.5648589    4.0168166   -0.5993352  0.00   -0.1138464   -0.1081915   -0.0066805
    13
 Energy =       0.0751772592
c    -3.7024699    1.6354983    0.2560796  0.00   -0.0007522    0.0026674   -0.0003735
c    -2.5527761    2.6399615    0.3890475  0.00    0.0010658    0.0006285    0.0001354
c    -5.0268266    2.2905443   -0.1413536  0.00    0.0203902    0.0225272   -0.0072152
h    -5.8213301    1.5144916   -0.2183205  0.00   -0.0005080   -0.0003836    0.0001190
h    -4.9320982    2.7804670   -1.1317183  0.00    0.0265637    0.0226189    0.0125790
h    -5.3400335    3.0420558    0.6168042  0.00    0.0012976    0.0008601   -0.0004358
n    -3.4282492    0.5697997   -0.7264846  0.00   -0.0176454    0.0089815   -0.0009677
h    -3.8269310    1.1924787    1.2759810  0.00   -0.0005579   -0.0002012    0.0014406
h    -2.7134845    0.8832433   -1.4437856  0.00    0.0139599    0.0033658   -0.0109637
h    -3.0065773   -0.2659524   -0.2307820  0.00    0.0041440   -0.0159890    0.0091123
o    -1.3935814    2.2546786    1.0493969  0.00    0.0008035   -0.0004236    0.0003215
o    -2.6261077    3.9200902   -0.1607446  0.00    0.0034211    0.0003047    0.0011716
h    -3.5251607    4.0723999   -0.6019578  0.00   -0.0521824   -0.0449566   -0.0049234
    13
 Energy =       0.0726279131
c    -3.7171167    1.6459648    0.2794005  0.00    0.0003056    0.0050186    0.0022773
c    -2.5951461    2.6789705    0.4390290  0.00   -0.0027297   -0.0004603   -0.0011822
c    -5.0348801    2.2526425   -0.2182273  0.00    0.0133751    0.0161067   -0.0064808
h    -5.8110270    1.4570945   -0.2860325  0.00   -0.0006397   -0.0006369   -0.0002099
h    -4.8995462    2.6807182   -1.2354712  0.00    0.0206835    0.0184817    0.0069827
h    -5.3976653    3.0451626    0.4786372  0.00   -0.0002969    0.0033669    0.0019862
n    -3.3628306    0.5503144   -0.6463228  0.00   -0.0160612    0.0066510   -0.0070595
h    -3.8888780    1.2366881    1.3077873  0.00   -0.0005456   -0.0000857    0.0030959
h    -2.6785793    0.8839048   -1.3812312  0.00    0.0114914    0.0036383   -0.0089079
h    -2.8763031   -0.2258926   -0.1111263  0.00    0.0065255   -0.0181243    0.0100051
o    -1.4791965    2.3504741    1.2081500  0.00    0.0086124   -0.0037680    0.0062430
o    -2.6433594    3.9250087   -0.1948172  0.00    0.0044421    0.0029843    0.0002925
h    -3.5110980    4.0487057   -0.7076132  0.00   -0.0451625   -0.0331723   -0.0070424
    13
 Energy =       0.0694407806
c    -3.7044010    1.6465902    0.2827122  0.00    0.0003444    0.0030184    0.0022180
c    -2.6316372    2.7329050    0.4479630  0.00   -0.0016136    0.0007388   -0.0010580
c    -5.0524644    2.1759944   -0.2220974  0.00    0.0071913    0.0103449   -0.0039482
h    -5.7902871    1.3415277   -0.2653514  0.00   -0.0015116   -0.0016091   -0.0002685
h    -4.9432894    2.5827292   -1.2508056  0.00    0.0126681    0.0113702    0.0039421
h    -5.4490122    2.9674321    0.4554108  0.00   -0.0002978    0.0024471    0.0013563
n    -3.2889769    0.5650627   -0.6314678  0.00   -0.0150732    0.0051173   -0.0051543
h    -3.8608788    1.2318250    1.3101867  0.00   -0.0004612   -0.0002376    0.0017955
h    -2.6644699    0.9430381   -1.3956271  0.00    0.0093581    0.0041719   -0.0078580
h    -2.7175500   -0.1520309   -0.0997189  0.00    0.0073027   -0.0160909    0.0090498
o    -1.5198035    2.4593086    1.2410032  0.00    0.0064443   -0.0023853    0.0044038
o    -2.7094775    3.9689103   -0.2019664  0.00    0.0033284    0.0021819    0.0002983
h    -3.5633783    4.0664642   -0.7380790  0.00   -0.0276798   -0.0190675   -0.0047767
    13
 Energy =       0.0684016848
c    -3.6766200    1.6513024    0.2875182  0.00    0.0005085    0.0008122    0.0028965
c    -2.6735507    2.8095434    0.4309316  0.00   -0.0017011    0.0008240   -0.0009688
c    -5.0649704    2.0804418   -0.2094482  0.00    0.0034699    0.0092213   -0.0031348
h    -5.7508324    1.1990020   -0.2161938  0.00   -0.0029864   -0.0034727   -0.0002948
h    -4.9977425    2.4611176   -1.2522457  0.00    0.0089246    0.0086838    0.0017820
h    -5.4999967    2.8663655    0.4506373  0.00   -0.0005743    0.0025724    0.0012660
n    -3.1982957    0.5863689   -0.6155874  0.00   -0.0132061    0.0029648   -0.0049177
h    -3.7954238    1.2389522    1.3212780  0.00   -0.0003522   -0.0010298    0.0017972
h    -2.6117080    0.9942487   -1.3927879  0.00    0.0079156    0.0039015   -0.0068555
h    -2.5732961   -0.0815398   -0.0820996  0.00    0.0074528   -0.0145019    0.0080948
o    -1.5453754    2.6180617    1.2270001  0.00    0.0081898   -0.0021677    0.0055503
o    -2.8253473    4.0303779   -0.2391037  0.00    0.0042377    0.0049790   -0.0003236
h    -3.6824675    4.0755140   -0.7777367  0.00   -0.0218788   -0.0127868   -0.0048917
    13
 Energy =       0.0672698733
c    -3.7156978    1.6346709    0.2782880  0.00    0.0002093   -0.0023964    0.0011952
c    -2.6599285    2.7350776    0.5138087  0.00   -0.0026518   -0.0009631   -0.0009035
c    -5.0621292    2.1449655   -0.2683704  0.00    0.0002277    0.0082156   -0.0027259
h    -5.7882576    1.2964019   -0.3252747  0.00   -0.0040572   -0.0045022   -0.0002867
h    -4.9382653    2.5511008   -1.2986498  0.00    0.0065882    0.0075212   -0.0006463
h    -5.4879684    2.9322022    0.3951034  0.00   -0.0005883    0.0020792    0.0009745
n    -3.2429159    0.5795954   -0.6361740  0.00   -0.0116520    0.0022671   -0.0037630
h    -3.9028750    1.1895466    1.2906198  0.00   -0.0006381   -0.0024115    0.0039556
h    -2.6880701    1.0022534   -1.4273339  0.00    0.0065934    0.0033720   -0.0062836
h    -2.5868251   -0.0681625   -0.1183673  0.00    0.0065256   -0.0118182    0.0069183
o    -1.5856683    2.4593086    1.3636845  0.00    0.0126419   -0.0030085    0.0090805
o    -2.7070745    3.9834877   -0.1260615  0.00    0.0075010    0.0102772   -0.0007392
h    -3.5299508    4.0893083   -0.7091106  0.00   -0.0206998   -0.0086323   -0.0067758
    13
 Energy =       0.0662547140
c    -3.7309298    1.6207173    0.2619311  0.00   -0.0016391   -0.0005131    0.0015675
c    -2.7079977    2.7271108    0.5981221  0.00   -0.0001477   -0.0019407    0.0008634
c    -5.0514852    2.1124319   -0.3575034  0.00   -0.0011203    0.0025011   -0.0021448
h    -5.7560231    1.2526710   -0.4676957  0.00   -0.0034561   -0.0031591   -0.0003745
h    -4.8753047    2.5330328   -1.3749703  0.00    0.0039548    0.0039710   -0.0021909
h    -5.5332114    2.8794720    0.2921514  0.00   -0.0011106    0.0020095    0.0018501
n    -3.1771142    0.5978844   -0.6437981  0.00   -0.0097687    0.0004645   -0.0050993
h    -3.9738929    1.1466172    1.2487148  0.00   -0.0013277   -0.0013264    0.0042828
h    -2.6647762    1.0609548   -1.4391932  0.00    0.0047132    0.0031664   -0.0049588
h    -2.4632732    0.0167662   -0.1246384  0.00    0.0074297   -0.0098511    0.0056192
o    -1.6666985    2.4223901    1.4727263  0.00    0.0078074   -0.0010682    0.0052211
o    -2.7466804    4.0100137    0.0326916  0.00    0.0059887    0.0093675   -0.0009762
h    -3.5482392    4.1496941   -0.5663758  0.00   -0.0113236   -0.0036216   -0.0036595
    13
 Energy =       0.0653542117
c    -3.7376287    1.6089855    0.2533979  0.00   -0.0035380    0.0016823   -0.0004066
c    -2.7538543    2.7210262    0.6664618  0.00   -0.0026846    0.0009492   -0.0020579
c    -5.0542265    2.0930059   -0.3739790  0.00   -0.0002653    0.0009142   -0.0010063
h    -5.7470330    1.2284523   -0.4927784  0.00   -0.0011616   -0.0012463   -0.0004141
h    -4.8819787    2.5150166   -1.3887326  0.00    0.0015647    0.0013978   -0.0008837
h    -5.5472533    2.8531710    0.2721355  0.00   -0.0004084    0.0007291    0.0004462
n    -3.1332078    0.6385315   -0.6756470  0.00   -0.0059064   -0.0017296   -0.0026961
h    -3.9934650    1.0874958    1.2112622  0.00   -0.0013115   -0.0008718    0.0028921
h    -2.6619927    1.1461791   -1.4676561  0.00    0.0033514    0.0023918   -0.0038365
h    -2.3773047    0.1014644   -0.1750303  0.00    0.0048665   -0.0055958    0.0031867
o    -1.7894944    2.4289740    1.6314794  0.00    0.0093413   -0.0020151    0.0074621
o    -2.7416152    3.9909136    0.0785427  0.00    0.0079306    0.0032194    0.0045424
h    -3.4765720    4.1165404   -0.6072936  0.00   -0.0117788    0.0001746   -0.0072283
    13
 Energy =       0.0648225061
c    -3.7329855    1.6092558    0.2627862  0.00   -0.0021258    0.0020064    0.0028599
c    -2.7127746    2.7034152    0.6314276  0.00   -0.0023705   -0.0037284    0.0016151
c    -5.0819570    2.1258052   -0.2713119  0.00   -0.0022178    0.0000403   -0.0014139
h    -5.8069371    1.2796392   -0.3340253  0.00   -0.0030351   -0.0023473   -0.0008607
h    -4.9761617    2.5367332   -1.3013022  0.00    0.0011142    0.0010078   -0.0033231
h    -5.5057505    2.9047057    0.4055750  0.00   -0.0014713    0.0024650    0.0025214
n    -3.1989116    0.6472546   -0.7203806  0.00   -0.0061671   -0.0028833   -0.0060215
h    -3.9369284    1.0752559    1.2276064  0.00   -0.0013679   -0.0008517    0.0042780
h    -2.7633831    1.1618820   -1.5286986  0.00    0.0038306    0.0023964   -0.0047455
h    -2.4247024    0.0879007   -0.2722863  0.00    0.0066864   -0.0065926    0.0040660
o    -1.7780284    2.4299776    1.6307019  0.00    0.0090658   -0.0031888    0.0078273
o    -2.6322938    3.9319889   -0.0423820  0.00    0.0084633    0.0098190    0.0008341
h    -3.3448122    4.0359425   -0.7555480  0.00   -0.0104050    0.0018572   -0.0076372
    13
 Energy =       0.0638265760
c    -3.7265587    1.5989898    0.2617593  0.00    0.0008717    0.0027920    0.0037234
c    -2.6996863    2.6803626    0.6268432  0.00   -0.0041311   -0.0044257    0.0017411
c    -5.1024314    2.1440936   -0.1663204  0.00   -0.0035616   -0.0005994   -0.0002704
h    -5.8346059    1.3061620   -0.2107548  0.00   -0.0012519   -0.0006828   -0.0004861
h    -5.0661334    2.5938152   -1.1847564  0.00   -0.0006772    0.0005519   -0.0039365
h    -5.4762236    2.9010070    0.5631271  0.00   -0.0015354    0.0025790    0.0024040
n    -3.2432497    0.6925241   -0.7972297  0.00   -0.0055394   -0.0035438   -0.0042978
h    -3.8753010    1.0137605    1.2068064  0.00   -0.0005867   -0.0012247    0.0040711
h    -2.8798674    1.2484893   -1.6143502  0.00    0.0034968    0.0030546   -0.0060584
h    -2.4266934    0.1371178   -0.4275214  0.00    0.0065802   -0.0054032    0.0037142
o    -1.8429078    2.4484475    1.7032057  0.00    0.0072689   -0.0047808    0.0083151
o    -2.5359087    3.8524103   -0.1270313  0.00    0.0059064    0.0086957   -0.0009677
h    -3.1860591    3.9125767   -0.9016151  0.00   -0.0068405    0.0029873   -0.0079519
    13
 Energy =       0.0629639432
c    -3.7210763    1.5874438    0.2563487  0.00    0.0003997    0.0011624    0.0017647
c    -2.6930954    2.6624724    0.6243304  0.00   -0.0041740   -0.0004159   -0.0029307
c    -5.1098917    2.1512191   -0.0808272  0.00   -0.0001318   -0.0021996    0.0008305
h    -5.8338854    1.3103103   -0.1701000  0.00    0.0000334   -0.0011420    0.0001079
h    -5.1101248    2.6936167   -1.0545548  0.00   -0.0007573    0.0019362   -0.0043521
h    -5.4647473    2.8408951    0.7218802  0.00   -0.0014598    0.0030296    0.0026802
n    -3.2836180    0.7397651   -0.8656965  0.00   -0.0035296   -0.0017928   -0.0007607
h    -3.8256353    0.9536390    1.1731712  0.00   -0.0002649   -0.0008443    0.0016665
h    -2.9958750    1.3347798   -1.6828915  0.00    0.0018913    0.0025030   -0.0037665
h    -2.4292825    0.1991725   -0.5753070  0.00    0.0037207   -0.0027305    0.0016911
o    -1.9283976    2.4934354    1.7772818  0.00    0.0051191   -0.0032424    0.0073592
o    -2.4542669    3.7759100   -0.1866551  0.00    0.0014915    0.0028168   -0.0006461
h    -3.0457302    3.7870972   -1.0048179  0.00   -0.0023384    0.0009193   -0.0036441
    13
 Energy =       0.0626497758
c    -3.7224358    1.5850224    0.2595494  0.00    0.0001450   -0.0015518    0.0025017
c    -2.6645956    2.6408925    0.6000725  0.00   -0.0006347   -0.0012063    0.0008549
c    -5.1094992    2.1822256   -0.0117462  0.00    0.0001997   -0.0006442    0.0002278
h    -5.8460711    1.3592942   -0.1544017  0.00   -0.0005430   -0.0010202   -0.0003137
h    -5.1155235    2.8033257   -0.9336876  0.00   -0.0005134    0.0007718   -0.0014175
h    -5.4410958    2.8083927    0.8474268  0.00   -0.0002368    0.0010380    0.0011100
n    -3.3494581    0.7451298   -0.8897821  0.00   -0.0022592   -0.0006231    0.0003168
h    -3.8017389    0.9396067    1.1680511  0.00    0.0000444    0.0004145   -0.0003058
h    -3.1355652    1.3392275   -1.7275317  0.00    0.0009545    0.0010667   -0.0019959
h    -2.4677714    0.2225104   -0.6621869  0.00    0.0013573   -0.0006185    0.0005562
o    -1.9711108    2.5320902    1.7992794  0.00    0.0003776   -0.0014929    0.0018717
o    -2.3518669    3.6929290   -0.2657711  0.00    0.0002416    0.0037432   -0.0041203
h    -2.9188940    3.6791098   -1.0971096  0.00    0.0008670    0.0001227    0.0007142
    13
 Energy =       0.0626202893
c    -3.7214591    1.5835326    0.2589733  0.00   -0.0000158    0.0001724   -0.0002748
c    -2.6674398    2.6407245    0.6035926  0.00   -0.0000545    0.0001201   -0.0002744
c    -5.1084867    2.1796221   -0.0104994  0.00    0.0000838   -0.0000140    0.0000117
h    -5.8419812    1.3583353   -0.1693480  0.00   -0.0000218   -0.0000105    0.0000348
h    -5.1097993    2.8157904   -0.9202601  0.00    0.0000611   -0.0000024   -0.0000250
h    -5.4468928    2.7894744    0.8559194  0.00   -0.0000076    0.0000081    0.0000127
n    -3.3459482    0.7474942   -0.8917044  0.00   -0.0001547   -0.0000138    0.0001692
h    -3.7997287    0.9342938    1.1654295  0.00   -0.0000114   -0.0000529    0.0000356
h    -3.1544800    1.3425350   -1.7324726  0.00    0.0000167    0.0001486   -0.0000886
h    -2.4540502    0.2397858   -0.6740970  0.00    0.0001339   -0.0001311    0.0000412
o    -1.9891510    2.5465337    1.8114662  0.00    0.0001333    0.0000885    0.0000764
o    -2.3468775    3.6841453   -0.2648232  0.00   -0.0000644   -0.0003031    0.0003887
h    -2.9093317    3.6674894   -1.1000139  0.00   -0.0000988   -0.0000100   -0.0001074
    13
 Energy =       0.0626198056
c    -3.7214363    1.5834804    0.2593120  0.00    0.0000002    0.0000000   -0.0000002
c    -2.6677259    2.6410903    0.6038328  0.00   -0.0000079   -0.0000028   -0.0000062
c    -5.1087668    2.1793134   -0.0095554  0.00    0.0000043   -0.0000025    0.0000011
h    -5.8414610    1.3579715   -0.1717297  0.00   -0.0000028   -0.0000049   -0.0000006
h    -5.1098515    2.8186285   -0.9171046  0.00    0.0000004    0.0000039   -0.0000054
h    -5.4483335    2.7860887    0.8585545  0.00   -0.0000017    0.0000033    0.0000052
n    -3.3460173    0.7477140   -0.8916882  0.00   -0.0000149   -0.0000021    0.0000073
h    -3.7991550    0.9340133    1.1655768  0.00   -0.0000002   -0.0000003    0.0000001
h    -3.1586886    1.3422983   -1.7335795  0.00    0.0000032    0.0000095   -0.0000111
h    -2.4520100    0.2431560   -0.6758978  0.00    0.0000116   -0.0000070    0.0000039
o    -1.9934075    2.5499957    1.8140978  0.00    0.0000078   -0.0000041    0.0000175
o    -2.3440406    3.6821017   -0.2667066  0.00    0.0000030    0.0000058   -0.0000066
h    -2.9047324    3.6639046   -1.1029499  0.00   -0.0000031    0.0000011   -0.0000049
    13
 Energy =       0.0626198052
c    -3.7214353    1.5834775    0.2593160  0.00    0.0000000    0.0000000    0.0000000
c    -2.6677271    2.6410888    0.6038397  0.00   -0.0000000    0.0000000   -0.0000000
c    -5.1087647    2.1793125   -0.0095561  0.00    0.0000000   -0.0000000   -0.0000000
h    -5.8414599    1.3579794   -0.1717348  0.00    0.0000000   -0.0000000    0.0000000
h    -5.1098451    2.8186284   -0.9170972  0.00   -0.0000000   -0.0000000   -0.0000000
h    -5.4483324    2.7860840    0.8585482  0.00   -0.0000000   -0.0000000    0.0000000
n    -3.3460118    0.7477064   -0.8916797  0.00   -0.0000000   -0.0000000    0.0000000
h    -3.7991556    0.9340123    1.1655817  0.00    0.0000000   -0.0000000    0.0000000
h    -3.1587704    1.3422720   -1.7335923  0.00    0.0000000    0.0000000   -0.0000000
h    -2.4519670    0.2432171   -0.6759240  0.00    0.0000000   -0.0000000    0.0000000
o    -1.9934312    2.5500117    1.8141057  0.00    0.0000000   -0.0000000    0.0000000
o    -2.3440333    3.6820941   -0.2666923  0.00    0.0000000    0.0000000    0.0000000
h    -2.9046927    3.6638722   -1.1029526  0.00   -0.0000000    0.0000000   -0.0000000
