    24
 Energy =       0.1422743200
c     1.6703672    2.6182922    0.2614132  0.00    0.0469661    0.0713449    0.0240817
c     0.3248649    2.9356558    0.1418766  0.00   -0.0070156    0.1044844    0.0285697
c    -0.5827484    1.9945952   -0.3219261  0.00   -0.0888101    0.0438980    0.0043630
c     2.1038063    1.3347474   -0.0833024  0.00    0.0673311   -0.0107192    0.0085782
c     1.2047783    0.3610782   -0.5608861  0.00    0.0189622   -0.0962011   -0.0237350
c    -0.1441045    0.7159142   -0.6796715  0.00   -0.0316210   -0.0461508   -0.0211037
o    -0.1504797    4.1703171    0.4675790  0.00   -0.0524149   -0.0245547   -0.0597866
h    -0.5871159    4.5498648   -0.3125495  0.00    0.0450023   -0.0386535    0.0476307
h    -0.8895274    0.0262790   -1.0546636  0.00   -0.0074138   -0.0054665   -0.0011089
h     3.1621727    1.0964802    0.0165124  0.00    0.0025440    0.0000029   -0.0008122
h     2.3926004    3.3457758    0.6178375  0.00    0.0099928   -0.0069843   -0.0018323
h    -1.6336796    2.2563998   -0.4108671  0.00   -0.0018532    0.0003941   -0.0009023
c     1.7669373   -1.0073413   -0.8964724  0.00    0.0127583   -0.0115534   -0.0188047
c     0.8861134   -2.0194266   -1.6556448  0.00    0.0347635    0.1187784   -0.0545600
h     2.1212937   -1.4658931    0.0371405  0.00   -0.0035087    0.0090078   -0.0124990
h     2.6645729   -0.8285312   -1.5058794  0.00   -0.0139003    0.0012986    0.0103254
c     1.7481012   -3.2276699   -2.0845864  0.00    0.1064410   -0.3532490    0.1796117
o     2.0121944   -4.2017215   -1.3977638  0.00   -0.0629359    0.2365836   -0.1626109
o     2.2274762   -3.0566202   -3.3466422  0.00   -0.0312587    0.0305375    0.0232299
h     1.9686788   -3.8778597   -3.8368213  0.00   -0.0132930    0.0322957    0.0239715
n    -0.2697763   -2.5678537   -0.8742070  0.00   -0.0625757   -0.0430811    0.0119407
h     0.4960411   -1.5757973   -2.5789902  0.00   -0.0046415   -0.0154871    0.0206505
h    -0.1377783   -2.3090138    0.1103184  0.00   -0.0003212    0.0043453   -0.0380374
h    -1.1177682   -2.0693246   -1.1533357  0.00    0.0368024   -0.0008706    0.0128402
    24
 Energy =       0.1251366070
c     1.6171416    2.6042856    0.2579833  0.00    0.0363222    0.0548744    0.0183233
c     0.2809221    2.9130548    0.1178444  0.00   -0.0054345    0.0805176    0.0218994
c    -0.6068156    1.9724688   -0.3616555  0.00   -0.0684350    0.0339784    0.0035785
c     2.0640473    1.3354194   -0.0809853  0.00    0.0518651   -0.0083244    0.0064206
c     1.1849695    0.3648093   -0.5701322  0.00    0.0145035   -0.0739840   -0.0183409
c    -0.1573420    0.7048509   -0.7116581  0.00   -0.0245956   -0.0353552   -0.0160879
o    -0.1977764    4.1525780    0.4474465  0.00   -0.0401212   -0.0198177   -0.0444468
h    -0.6059079    4.5612816   -0.3468597  0.00    0.0345421   -0.0290530    0.0352560
h    -0.8869766    0.0057340   -1.1011888  0.00   -0.0059413   -0.0044643   -0.0010634
h     3.1220940    1.1047708    0.0373149  0.00    0.0021521   -0.0000593   -0.0006250
h     2.3220011    3.3401850    0.6313567  0.00    0.0079115   -0.0052059   -0.0013367
h    -1.6573355    2.2286981   -0.4661928  0.00   -0.0015592    0.0003620   -0.0006875
c     1.7676328   -0.9966321   -0.8988877  0.00    0.0100378   -0.0087434   -0.0144744
c     0.8967077   -2.0349424   -1.6392665  0.00    0.0267165    0.0915722   -0.0413843
h     2.1432170   -1.4431325    0.0369711  0.00   -0.0025233    0.0068346   -0.0094118
h     2.6586571   -0.8071589   -1.5224280  0.00   -0.0106013    0.0010569    0.0077995
c     1.7866514   -3.2144334   -2.0675794  0.00    0.0736755   -0.2745698    0.1456144
o     2.0636243   -4.2064462   -1.3444693  0.00   -0.0473809    0.1818710   -0.1267113
o     2.3862293   -3.0150678   -3.2846164  0.00   -0.0038575    0.0492303    0.0237596
h     2.0032120   -3.7439967   -3.8745778  0.00   -0.0229350    0.0022634    0.0063256
n    -0.2336247   -2.5832103   -0.8300729  0.00   -0.0472579   -0.0345745    0.0099074
h     0.4933793   -1.6083171   -2.5699159  0.00   -0.0036965   -0.0120769    0.0155291
h    -0.0984719   -2.3114271    0.1559662  0.00   -0.0001368    0.0035115   -0.0291619
h    -1.1092150   -2.1250248   -1.1159287  0.00    0.0267498    0.0001562    0.0093187
    24
 Energy =       0.1239833915
c     1.6646379    2.6170366    0.2172755  0.00    0.0357856    0.0543194    0.0181378
c     0.3330991    2.9405701    0.0673408  0.00   -0.0048018    0.0779904    0.0212994
c    -0.5674224    1.9977514   -0.3830225  0.00   -0.0676831    0.0332346    0.0034673
c     2.0960779    1.3350421   -0.0940721  0.00    0.0514217   -0.0084344    0.0063076
c     1.2050469    0.3654661   -0.5632714  0.00    0.0140716   -0.0727951   -0.0182477
c    -0.1336305    0.7183147   -0.7060359  0.00   -0.0242529   -0.0353691   -0.0160199
o    -0.1238958    4.2045405    0.3378857  0.00   -0.0396433   -0.0173057   -0.0419418
h    -0.5299265    4.5761010   -0.4775660  0.00    0.0334218   -0.0281481    0.0335161
h    -0.8738032    0.0206499   -1.0768948  0.00   -0.0059785   -0.0046155   -0.0011529
h     3.1512589    1.0937963    0.0282557  0.00    0.0022036   -0.0000978   -0.0006125
h     2.3798519    3.3554294    0.5664209  0.00    0.0079441   -0.0047813   -0.0011980
h    -1.6144165    2.2653105   -0.4954844  0.00   -0.0016460    0.0004523   -0.0006710
c     1.7633152   -1.0158298   -0.8572632  0.00    0.0095487   -0.0090501   -0.0143580
c     0.8752247   -2.0379569   -1.6011817  0.00    0.0261693    0.0906861   -0.0405436
h     2.1048122   -1.4583517    0.0940029  0.00   -0.0023537    0.0062680   -0.0087850
h     2.6738087   -0.8611304   -1.4634110  0.00   -0.0096992    0.0011523    0.0071952
c     1.7375720   -3.2340337   -2.0404072  0.00    0.0709895   -0.2710439    0.1470346
o     2.0066440   -4.2305375   -1.3175991  0.00   -0.0464830    0.1794215   -0.1254316
o     2.2823447   -3.0756215   -3.2905157  0.00   -0.0007038    0.0506091    0.0221575
h     1.8444589   -3.8005430   -3.8512604  0.00   -0.0239529   -0.0000317    0.0043014
n    -0.2618964   -2.5710392   -0.7911077  0.00   -0.0467149   -0.0343760    0.0097704
h     0.4761674   -1.5989257   -2.5282626  0.00   -0.0038198   -0.0118224    0.0153218
h    -0.1202635   -2.3086685    0.1967272  0.00   -0.0000707    0.0035204   -0.0286970
h    -1.1320446   -2.0990237   -1.0720849  0.00    0.0262480    0.0002168    0.0091500
    24
 Energy =       0.1242620883
c     1.6979892    2.6056902    0.2270807  0.00    0.0350953    0.0532600    0.0177874
c     0.3695415    2.9406197    0.0802774  0.00   -0.0046683    0.0763055    0.0208345
c    -0.5377822    2.0088896   -0.3774477  0.00   -0.0663918    0.0325199    0.0033665
c     2.1193011    1.3223630   -0.0905962  0.00    0.0504463   -0.0082660    0.0061882
c     1.2205265    0.3626158   -0.5634866  0.00    0.0137871   -0.0713243   -0.0179102
c    -0.1143885    0.7282286   -0.7062489  0.00   -0.0238119   -0.0346848   -0.0157086
o    -0.0769055    4.2047861    0.3687077  0.00   -0.0387769   -0.0168438   -0.0407769
h    -0.4811397    4.5944839   -0.4399228  0.00    0.0326223   -0.0274321    0.0325934
h    -0.8606497    0.0397585   -1.0806743  0.00   -0.0059116   -0.0045583   -0.0011546
h     3.1721116    1.0713500    0.0323553  0.00    0.0022134   -0.0001009   -0.0005918
h     2.4183176    3.3360820    0.5828111  0.00    0.0078276   -0.0046331   -0.0011489
h    -1.5827118    2.2853658   -0.4875608  0.00   -0.0016609    0.0004519   -0.0006636
c     1.7633819   -1.0256585   -0.8572788  0.00    0.0094080   -0.0088423   -0.0140938
c     0.8648834   -2.0327855   -1.6102335  0.00    0.0256953    0.0889873   -0.0396097
h     2.0905228   -1.4758317    0.0957816  0.00   -0.0022646    0.0060598   -0.0085091
h     2.6811075   -0.8829675   -1.4557981  0.00   -0.0093879    0.0011717    0.0070061
c     1.7101339   -3.2406097   -2.0515128  0.00    0.0687518   -0.2655544    0.1452604
o     1.9655511   -4.2403691   -1.3239297  0.00   -0.0454368    0.1756092   -0.1230394
o     2.2229303   -3.1127909   -3.3190642  0.00    0.0058069    0.0568705    0.0264282
h     1.6857058   -3.7792619   -3.8798092  0.00   -0.0292278   -0.0073458   -0.0016720
n    -0.2818221   -2.5545123   -0.8065759  0.00   -0.0458278   -0.0339067    0.0095496
h     0.4754530   -1.5822945   -2.5362072  0.00   -0.0038545   -0.0115059    0.0149488
h    -0.1391922   -2.3045975    0.1847021  0.00   -0.0000239    0.0034822   -0.0279923
h    -1.1458448   -2.0702071   -1.0869011  0.00    0.0255905    0.0002804    0.0089078
    24
 Energy =       0.1191982715
c     1.7591494    2.5876156    0.2498166  0.00    0.0339473    0.0514251    0.0172018
c     0.4373829    2.9478560    0.1115150  0.00   -0.0043856    0.0730456    0.0199176
c    -0.4862879    2.0396519   -0.3574288  0.00   -0.0642215    0.0311789    0.0031255
c     2.1571127    1.3006457   -0.0806066  0.00    0.0488469   -0.0079690    0.0060006
c     1.2401674    0.3622328   -0.5589914  0.00    0.0132340   -0.0685587   -0.0174749
c    -0.0868356    0.7556734   -0.6975722  0.00   -0.0231385   -0.0334913   -0.0151718
o     0.0155277    4.2135210    0.4331120  0.00   -0.0371142   -0.0157610   -0.0380664
h    -0.3856415    4.6373419   -0.3616490  0.00    0.0309482   -0.0258131    0.0304857
h    -0.8476059    0.0868382   -1.0756480  0.00   -0.0059273   -0.0044870   -0.0012502
h     3.2047474    1.0281611    0.0413830  0.00    0.0023873   -0.0001421   -0.0005353
h     2.4918810    3.3007867    0.6160642  0.00    0.0077225   -0.0042478   -0.0009986
h    -1.5266732    2.3357060   -0.4607626  0.00   -0.0018337    0.0004891   -0.0006663
c     1.7471910   -1.0416687   -0.8526823  0.00    0.0092116   -0.0081105   -0.0135975
c     0.8297111   -2.0079642   -1.6397545  0.00    0.0245820    0.0858301   -0.0373698
h     2.0318406   -1.5134687    0.1048780  0.00   -0.0018782    0.0051876   -0.0073185
h     2.6863416   -0.9260933   -1.4249803  0.00   -0.0081660    0.0014857    0.0064296
c     1.6366184   -3.2344163   -2.0982649  0.00    0.0640160   -0.2562257    0.1435388
o     1.8953335   -4.2335122   -1.3616882  0.00   -0.0437730    0.1687143   -0.1187935
o     2.0825250   -3.1542905   -3.3973106  0.00    0.0170763    0.0704968    0.0294607
h     1.6139976   -3.9380151   -3.8828926  0.00   -0.0372630   -0.0227153   -0.0096858
n    -0.3387866   -2.5158278   -0.8584916  0.00   -0.0443333   -0.0341780    0.0083201
h     0.4638811   -1.5245175   -2.5601881  0.00   -0.0041844   -0.0105291    0.0138100
h    -0.1965200   -2.3072242    0.1435561  0.00    0.0003884    0.0036339   -0.0255268
h    -1.1880372   -2.0006849   -1.1329447  0.00    0.0238583    0.0007414    0.0081650
    24
 Energy =       0.1046185220
c     1.8142419    2.5616069    0.2574538  0.00    0.0258984    0.0388285    0.0129419
c     0.5112366    2.9570145    0.1020116  0.00   -0.0036964    0.0543949    0.0151034
c    -0.4258997    2.0761636   -0.3732332  0.00   -0.0489354    0.0233766    0.0025450
c     2.1826671    1.2709444   -0.0634394  0.00    0.0371761   -0.0057785    0.0044275
c     1.2509783    0.3616109   -0.5474239  0.00    0.0099555   -0.0510721   -0.0136211
c    -0.0584084    0.7875613   -0.7013681  0.00   -0.0176098   -0.0253766   -0.0114494
o     0.1299954    4.2424593    0.4176663  0.00   -0.0277543   -0.0125406   -0.0263832
h    -0.2268884    4.6988715   -0.3910789  0.00    0.0228475   -0.0176212    0.0207152
h    -0.8317833    0.1381890   -1.0831329  0.00   -0.0046297   -0.0034324   -0.0010383
h     3.2205225    0.9706624    0.0757828  0.00    0.0023942   -0.0002282   -0.0003371
h     2.5563983    3.2600672    0.6327735  0.00    0.0059718   -0.0030299   -0.0006959
h    -1.4566531    2.4000735   -0.4892563  0.00   -0.0019038    0.0005045   -0.0005454
c     1.7142711   -1.0648128   -0.8187604  0.00    0.0065322   -0.0057283   -0.0102983
c     0.7812179   -1.9877888   -1.6464309  0.00    0.0183460    0.0649097   -0.0274271
h     1.9373104   -1.5513001    0.1520359  0.00   -0.0011783    0.0026397   -0.0038813
h     2.6853096   -0.9928028   -1.3517341  0.00   -0.0040781    0.0015621    0.0041462
c     1.5504398   -3.2227075   -2.1292039  0.00    0.0468674   -0.1931827    0.1090332
o     1.8168187   -4.2366743   -1.3625257  0.00   -0.0330586    0.1268374   -0.0888934
o     1.9575974   -3.1946448   -3.4469365  0.00    0.0220836    0.0698562    0.0279510
h     1.6003274   -4.0749095   -3.8694370  0.00   -0.0360441   -0.0342766   -0.0152201
n    -0.4056625   -2.4735981   -0.8848831  0.00   -0.0342163   -0.0275373    0.0035501
h     0.4445045   -1.4669249   -2.5623216  0.00   -0.0036196   -0.0072244    0.0096879
h    -0.2645264   -2.3262268    0.1333536  0.00    0.0011042    0.0031512   -0.0161681
h    -1.2469944   -1.9344868   -1.1514431  0.00    0.0175475    0.0009680    0.0058572
    24
 Energy =       0.0954639043
c     1.8443278    2.5414807    0.2574028  0.00    0.0190379    0.0278438    0.0093628
c     0.5609546    2.9686735    0.0722310  0.00   -0.0031015    0.0383490    0.0111444
c    -0.3861026    2.1086550   -0.4052446  0.00   -0.0356766    0.0169688    0.0021845
c     2.1857032    1.2443674   -0.0408026  0.00    0.0271569   -0.0042461    0.0029859
c     1.2437004    0.3585061   -0.5297388  0.00    0.0071227   -0.0363014   -0.0103059
c    -0.0477605    0.8125097   -0.7086274  0.00   -0.0128450   -0.0184734   -0.0083244
o     0.2156194    4.2758655    0.3589611  0.00   -0.0194700   -0.0105845   -0.0143385
h    -0.0681352    4.7503713   -0.4792765  0.00    0.0154130   -0.0095519    0.0101327
h    -0.8300953    0.1772478   -1.0919617  0.00   -0.0034195   -0.0024915   -0.0007871
h     3.2125149    0.9194838    0.1233205  0.00    0.0023821   -0.0004040   -0.0001818
h     2.5936088    3.2289636    0.6381599  0.00    0.0043951   -0.0020816   -0.0004876
h    -1.4057837    2.4582857   -0.5434024  0.00   -0.0019888    0.0006297   -0.0004263
c     1.6704250   -1.0868710   -0.7685513  0.00    0.0040664   -0.0037340   -0.0075882
c     0.7455933   -1.9784706   -1.6444552  0.00    0.0134257    0.0467433   -0.0199826
h     1.8267144   -1.5772741    0.2168504  0.00   -0.0005648    0.0006853   -0.0008618
h     2.6737720   -1.0545208   -1.2511914  0.00   -0.0005803    0.0013932    0.0021273
c     1.5041298   -3.2121638   -2.1329838  0.00    0.0329980   -0.1387573    0.0778960
o     1.7780771   -4.2348236   -1.3360732  0.00   -0.0236424    0.0910778   -0.0631466
o     1.9126534   -3.2150814   -3.4529782  0.00    0.0200511    0.0598402    0.0243200
h     1.6591127   -4.1450314   -3.8371064  0.00   -0.0297370   -0.0344759   -0.0154672
n    -0.4663199   -2.4512248   -0.9198337  0.00   -0.0259385   -0.0216669   -0.0009146
h     0.4467128   -1.4308041   -2.5617779  0.00   -0.0028221   -0.0046768    0.0061552
h    -0.3374611   -2.3769679    0.1130096  0.00    0.0017258    0.0025130   -0.0071879
h    -1.2949407   -1.8828299   -1.1774618  0.00    0.0120118    0.0014012    0.0036917
    24
 Energy =       0.0911102372
c     1.8612135    2.5326642    0.2428121  0.00    0.0144198    0.0209655    0.0072053
c     0.5948469    2.9857513    0.0295044  0.00   -0.0027054    0.0282057    0.0085561
c    -0.3624636    2.1399723   -0.4419692  0.00   -0.0270749    0.0131680    0.0018931
c     2.1766890    1.2261179   -0.0242790  0.00    0.0206565   -0.0035408    0.0020998
c     1.2241736    0.3559321   -0.5097769  0.00    0.0048856   -0.0265972   -0.0083856
c    -0.0514655    0.8335853   -0.7126588  0.00   -0.0097016   -0.0142309   -0.0063461
o     0.2797295    4.3107394    0.2814574  0.00   -0.0136518   -0.0107136   -0.0034826
h     0.0906179    4.7952862   -0.5869569  0.00    0.0101690   -0.0028657    0.0002928
h    -0.8429499    0.2073238   -1.0883659  0.00   -0.0025793   -0.0019796   -0.0006599
h     3.1925488    0.8809045    0.1646499  0.00    0.0023233   -0.0006156   -0.0000892
h     2.6181649    3.2122024    0.6221358  0.00    0.0033348   -0.0014683   -0.0003527
h    -1.3715590    2.5109986   -0.6007163  0.00   -0.0019472    0.0007659   -0.0003344
c     1.6151065   -1.1079593   -0.7021690  0.00    0.0019471   -0.0019684   -0.0059036
c     0.7233595   -1.9746621   -1.6413555  0.00    0.0107412    0.0353299   -0.0162972
h     1.6856454   -1.5930201    0.2994640  0.00    0.0000575   -0.0011260    0.0026486
h     2.6554916   -1.1178885   -1.1118449  0.00    0.0034331    0.0011632    0.0002293
c     1.4927422   -3.2033370   -2.1175528  0.00    0.0242203   -0.1034796    0.0578452
o     1.7722387   -4.2228424   -1.2904088  0.00   -0.0174394    0.0678795   -0.0464891
o     1.9211059   -3.2292709   -3.4327357  0.00    0.0173014    0.0517855    0.0210194
h     1.7604188   -4.1893639   -3.7845066  0.00   -0.0242061   -0.0331128   -0.0148069
n    -0.5235191   -2.4458735   -0.9789069  0.00   -0.0220216   -0.0187872   -0.0060047
h     0.4738130   -1.4056570   -2.5634732  0.00   -0.0023423   -0.0029375    0.0033580
h    -0.4181941   -2.4673885    0.0645395  0.00    0.0024729    0.0015226    0.0023737
h    -1.3307338   -1.8358678   -1.2184185  0.00    0.0077072    0.0026375    0.0016307
    24
 Energy =       0.0906211924
c     1.8527436    2.5519700    0.1899635  0.00    0.0130930    0.0197503    0.0067808
c     0.5897562    3.0079372   -0.0301162  0.00   -0.0022378    0.0256235    0.0079612
c    -0.3758474    2.1555334   -0.4695099  0.00   -0.0248931    0.0122351    0.0017599
c     2.1569651    1.2364379   -0.0404831  0.00    0.0190359   -0.0032319    0.0020647
c     1.1961088    0.3596811   -0.4960666  0.00    0.0033880   -0.0236228   -0.0083543
c    -0.0767270    0.8395937   -0.7018421  0.00   -0.0087449   -0.0137463   -0.0058270
o     0.2866811    4.3438986    0.1814520  0.00   -0.0122645   -0.0093689   -0.0016034
h     0.1337532    4.8113364   -0.7048473  0.00    0.0090159   -0.0018088   -0.0011411
h    -0.8764202    0.2063371   -1.0453356  0.00   -0.0025946   -0.0024161   -0.0008973
h     3.1705274    0.8896929    0.1567017  0.00    0.0021746   -0.0006342   -0.0000488
h     2.6160508    3.2374850    0.5457124  0.00    0.0031916   -0.0010255   -0.0002130
h    -1.3833449    2.5290870   -0.6315703  0.00   -0.0017962    0.0007326   -0.0002979
c     1.5661584   -1.1178374   -0.6287347  0.00    0.0002889   -0.0006986   -0.0054839
c     0.7328676   -1.9810767   -1.6289461  0.00    0.0102492    0.0334334   -0.0171284
h     1.5483253   -1.5836210    0.3876924  0.00    0.0006062   -0.0023047    0.0062596
h     2.6397938   -1.1613614   -0.9530918  0.00    0.0075055    0.0006590   -0.0012354
c     1.5409120   -3.1955492   -2.0782455  0.00    0.0221468   -0.0944069    0.0530316
o     1.8193591   -4.2037520   -1.2296712  0.00   -0.0157167    0.0616709   -0.0421921
o     2.0119418   -3.2252290   -3.3796599  0.00    0.0165930    0.0478743    0.0187189
h     1.8896204   -4.1918800   -3.7237304  0.00   -0.0222919   -0.0313111   -0.0141879
n    -0.5418070   -2.4759263   -1.0373621  0.00   -0.0224584   -0.0197186   -0.0122217
h     0.5239342   -1.4027384   -2.5563275  0.00   -0.0023493   -0.0025190    0.0021827
h    -0.4553822   -2.6086043    0.0054572  0.00    0.0029845   -0.0003454    0.0121103
h    -1.3289495   -1.8230676   -1.2329706  0.00    0.0050744    0.0051798   -0.0000376
    24
 Energy =       0.0885344945
c     1.8780184    2.5492846    0.1642133  0.00    0.0106090    0.0158035    0.0055124
c     0.6273112    3.0212075   -0.0800383  0.00   -0.0020457    0.0205165    0.0061855
c    -0.3414285    2.1808791   -0.5287881  0.00   -0.0201134    0.0099219    0.0014141
c     2.1662611    1.2296545   -0.0485136  0.00    0.0154363   -0.0027502    0.0016071
c     1.2017192    0.3652384   -0.5121126  0.00    0.0031724   -0.0189789   -0.0066742
c    -0.0583697    0.8612059   -0.7459977  0.00   -0.0072772   -0.0108795   -0.0046613
o     0.3395669    4.3634493    0.1189374  0.00   -0.0093474   -0.0116497    0.0076019
h     0.2925063    4.8471398   -0.7777548  0.00    0.0066538    0.0029052   -0.0096041
h    -0.8598266    0.2373759   -1.1022040  0.00   -0.0021808   -0.0017726   -0.0007471
h     3.1708350    0.8694332    0.1693521  0.00    0.0020605   -0.0006544    0.0000131
h     2.6437379    3.2272169    0.5286717  0.00    0.0026433   -0.0008010   -0.0001527
h    -1.3399926    2.5686251   -0.7115751  0.00   -0.0017722    0.0007433   -0.0002861
c     1.5556729   -1.1168977   -0.6296001  0.00    0.0002963   -0.0001373   -0.0041404
c     0.6993195   -1.9904887   -1.6002512  0.00    0.0086929    0.0277533   -0.0140771
h     1.5502786   -1.5678068    0.3927400  0.00    0.0005264   -0.0018548    0.0052093
h     2.6217944   -1.1741278   -0.9719061  0.00    0.0062848    0.0006484   -0.0010448
c     1.4781657   -3.2351259   -2.0163721  0.00    0.0169680   -0.0753982    0.0422034
o     1.7499307   -4.2187932   -1.1218517  0.00   -0.0123399    0.0482730   -0.0319883
o     1.9397951   -3.3273420   -3.3202219  0.00    0.0148335    0.0438538    0.0146354
h     1.8781481   -4.3176049   -3.6041977  0.00   -0.0184492   -0.0308712   -0.0132815
n    -0.5824402   -2.4348682   -0.9877055  0.00   -0.0176934   -0.0177671   -0.0107301
h     0.5023705   -1.4346185   -2.5449381  0.00   -0.0017332   -0.0017001    0.0013304
h    -0.5088538   -2.5112412    0.0618765  0.00    0.0021657   -0.0007677    0.0123750
h    -1.3674995   -1.7934482   -1.2332941  0.00    0.0026094    0.0055638   -0.0006998
    24
 Energy =       0.0883951213
c     1.8786518    2.5685393    0.1115130  0.00    0.0099046    0.0148367    0.0051882
c     0.6337192    3.0423885   -0.1550613  0.00   -0.0020241    0.0190886    0.0056519
c    -0.3327578    2.2003089   -0.6032092  0.00   -0.0188251    0.0094544    0.0013402
c     2.1623984    1.2445626   -0.0752519  0.00    0.0144563   -0.0028078    0.0014616
c     1.1996305    0.3777980   -0.5362420  0.00    0.0031768   -0.0175663   -0.0061897
c    -0.0535708    0.8766629   -0.7972405  0.00   -0.0069413   -0.0100418   -0.0043782
o     0.3490856    4.3889582    0.0205204  0.00   -0.0088202   -0.0117193    0.0097375
h     0.3598343    4.8687414   -0.8810976  0.00    0.0061702    0.0039049   -0.0114886
h    -0.8525971    0.2523734   -1.1570172  0.00   -0.0020452   -0.0014713   -0.0006816
h     3.1618292    0.8825165    0.1628073  0.00    0.0021109   -0.0007509    0.0000417
h     2.6427298    3.2485420    0.4753164  0.00    0.0024672   -0.0007396   -0.0001417
h    -1.3266636    2.5905946   -0.8054559  0.00   -0.0018273    0.0008212   -0.0002886
c     1.5478310   -1.1084254   -0.6169800  0.00    0.0003950   -0.0000322   -0.0036845
c     0.6924566   -2.0090781   -1.5635735  0.00    0.0079689    0.0267330   -0.0128972
h     1.5400856   -1.5332325    0.4166572  0.00    0.0004859   -0.0018769    0.0052169
h     2.6136547   -1.1771165   -0.9570118  0.00    0.0059411    0.0006386   -0.0010225
c     1.4635220   -3.2799251   -1.9163223  0.00    0.0150518   -0.0693630    0.0390096
o     1.7157808   -4.2230863   -0.9672693  0.00   -0.0109096    0.0427963   -0.0273580
o     1.9454407   -3.4362178   -3.2080907  0.00    0.0148867    0.0422537    0.0116034
h     1.8980034   -4.4389445   -3.4454446  0.00   -0.0171940   -0.0306832   -0.0130976
n    -0.6006363   -2.4145592   -0.9486952  0.00   -0.0165455   -0.0172868   -0.0098899
h     0.5141217   -1.4890548   -2.5332238  0.00   -0.0016231   -0.0010083    0.0002867
h    -0.5378716   -2.4588362    0.1035399  0.00    0.0019143   -0.0008116    0.0124572
h    -1.3776574   -1.7751629   -1.2246994  0.00    0.0018259    0.0056316   -0.0008769
    24
 Energy =       0.0875310793
c     1.8931800    2.5444913    0.1565398  0.00    0.0097067    0.0144350    0.0050705
c     0.6453583    3.0233259   -0.0869480  0.00   -0.0020470    0.0184966    0.0054441
c    -0.3286206    2.1880560   -0.5310441  0.00   -0.0183825    0.0093148    0.0012816
c     2.1730568    1.2229094   -0.0516683  0.00    0.0141158   -0.0028712    0.0014298
c     1.2031536    0.3638883   -0.5111977  0.00    0.0031918   -0.0168769   -0.0059573
c    -0.0540609    0.8667043   -0.7446626  0.00   -0.0069296   -0.0096354   -0.0042935
o     0.3651969    4.3682374    0.1094344  0.00   -0.0086808   -0.0111738    0.0096411
h     0.3672038    4.8595401   -0.7858543  0.00    0.0059811    0.0038743   -0.0113146
h    -0.8597205    0.2464985   -1.0980390  0.00   -0.0020477   -0.0013490   -0.0006595
h     3.1758527    0.8568607    0.1658422  0.00    0.0022533   -0.0008425    0.0000812
h     2.6629857    3.2190708    0.5184078  0.00    0.0024271   -0.0007029   -0.0001230
h    -1.3251396    2.5818528   -0.7133891  0.00   -0.0019618    0.0008988   -0.0003108
c     1.5492715   -1.1206903   -0.6289079  0.00    0.0005389   -0.0000054   -0.0032749
c     0.6811796   -1.9904469   -1.5933914  0.00    0.0072952    0.0268181   -0.0119859
h     1.5488456   -1.5707928    0.3940332  0.00    0.0004939   -0.0019602    0.0054231
h     2.6120097   -1.1837918   -0.9790483  0.00    0.0058580    0.0006045   -0.0010284
c     1.4509430   -3.2402780   -2.0202596  0.00    0.0139208   -0.0662060    0.0377809
o     1.7288296   -4.2315665   -1.1250279  0.00   -0.0097788    0.0386991   -0.0241312
o     1.8999466   -3.3359928   -3.3322507  0.00    0.0155124    0.0419083    0.0083949
h     1.8699316   -4.3307574   -3.6041977  0.00   -0.0166574   -0.0309971   -0.0130046
n    -0.5971922   -2.4263402   -0.9677401  0.00   -0.0160891   -0.0171714   -0.0093128
h     0.4792365   -1.4313469   -2.5379426  0.00   -0.0017658   -0.0002809   -0.0008250
h    -0.5198464   -2.4937001    0.0823211  0.00    0.0018192   -0.0008392    0.0126853
h    -1.3845807   -1.7873847   -1.2165411  0.00    0.0012264    0.0058625   -0.0010111
    24
 Energy =       0.0858883595
c     1.9224196    2.5153423    0.1846249  0.00    0.0084082    0.0122214    0.0043738
c     0.6747094    3.0040333   -0.0341060  0.00   -0.0018000    0.0156515    0.0045628
c    -0.3118427    2.1789653   -0.4659346  0.00   -0.0157489    0.0079552    0.0009661
c     2.1898179    1.1947398   -0.0375227  0.00    0.0120952   -0.0024766    0.0012843
c     1.2073900    0.3473251   -0.4877723  0.00    0.0027149   -0.0141365   -0.0049893
c    -0.0505094    0.8586288   -0.6927434  0.00   -0.0061155   -0.0080722   -0.0037219
o     0.4063532    4.3495190    0.1782696  0.00   -0.0073887   -0.0101937    0.0099944
h     0.4530377    4.8589653   -0.7058161  0.00    0.0050172    0.0042329   -0.0113695
h    -0.8666755    0.2445302   -1.0344032  0.00   -0.0018805   -0.0012087   -0.0006043
h     3.1939802    0.8206705    0.1585960  0.00    0.0021589   -0.0007977    0.0001317
h     2.7019629    3.1824488    0.5392988  0.00    0.0021454   -0.0005410   -0.0000612
h    -1.3087639    2.5806816   -0.6273396  0.00   -0.0019005    0.0008488   -0.0003128
c     1.5428089   -1.1365182   -0.6388640  0.00    0.0006414   -0.0000209   -0.0022527
c     0.6508167   -1.9730226   -1.6111762  0.00    0.0056153    0.0236735   -0.0093586
h     1.5539475   -1.6076491    0.3737210  0.00    0.0004619   -0.0017495    0.0049007
h     2.5990924   -1.2006004   -1.0055581  0.00    0.0051352    0.0004730   -0.0009033
c     1.4098841   -3.1982413   -2.1207230  0.00    0.0111721   -0.0548844    0.0322131
o     1.7208158   -4.2383907   -1.2837810  0.00   -0.0072058    0.0291850   -0.0180553
o     1.8139815   -3.2339297   -3.4528985  0.00    0.0143928    0.0381641    0.0035371
h     1.8363206   -4.2204353   -3.7478833  0.00   -0.0142096   -0.0288627   -0.0112144
n    -0.6069565   -2.4339635   -0.9638677  0.00   -0.0136487   -0.0148653   -0.0075811
h     0.4185686   -1.3754727   -2.5265768  0.00   -0.0018791    0.0006078   -0.0019755
h    -0.5077800   -2.5220813    0.0819482  0.00    0.0015201   -0.0007578    0.0114655
h    -1.4063584   -1.7971981   -1.1810236  0.00    0.0002986    0.0055537   -0.0010294
    24
 Energy =       0.0836037552
c     1.9692125    2.4888890    0.1697209  0.00    0.0057772    0.0082451    0.0031027
c     0.7274218    2.9957299   -0.0280328  0.00   -0.0011769    0.0103260    0.0030284
c    -0.2790968    2.1847116   -0.4336914  0.00   -0.0106455    0.0051445    0.0004220
c     2.2103876    1.1650522   -0.0473594  0.00    0.0082389   -0.0015588    0.0009892
c     1.2074796    0.3332238   -0.4738417  0.00    0.0017215   -0.0094083   -0.0033562
c    -0.0448007    0.8611521   -0.6554894  0.00   -0.0042672   -0.0054956   -0.0026343
o     0.4837733    4.3469997    0.1850303  0.00   -0.0050623   -0.0092113    0.0117034
h     0.6117908    4.8699847   -0.6841647  0.00    0.0035707    0.0056656   -0.0125029
h    -0.8772334    0.2558155   -0.9748911  0.00   -0.0015685   -0.0010846   -0.0005412
h     3.2117278    0.7764735    0.1317667  0.00    0.0016806   -0.0005314    0.0001683
h     2.7645123    3.1461685    0.5072887  0.00    0.0016406   -0.0001265    0.0000800
h    -1.2722352    2.6013443   -0.5772126  0.00   -0.0015314    0.0006035   -0.0002728
c     1.5162822   -1.1544681   -0.6343943  0.00    0.0004819   -0.0001397   -0.0009720
c     0.5994979   -1.9642990   -1.6056300  0.00    0.0034005    0.0158870   -0.0056091
h     1.5286650   -1.6308582    0.3736402  0.00    0.0003067   -0.0011638    0.0032012
h     2.5666880   -1.2354369   -1.0100055  0.00    0.0035598    0.0003516   -0.0006121
c     1.3420071   -3.1683227   -2.1782831  0.00    0.0071204   -0.0355702    0.0211232
o     1.6777022   -4.2437075   -1.3824831  0.00   -0.0041155    0.0169983   -0.0108298
o     1.7132505   -3.1631617   -3.5207063  0.00    0.0097328    0.0329879    0.0018515
h     1.8352790   -4.1394622   -3.8175253  0.00   -0.0091426   -0.0264570   -0.0086790
n    -0.6394593   -2.4367231   -0.9366525  0.00   -0.0083941   -0.0102820   -0.0055828
h     0.3435681   -1.3400746   -2.4968333  0.00   -0.0014971    0.0008601   -0.0020259
h    -0.5149993   -2.5570139    0.1015445  0.00    0.0010498   -0.0005121    0.0088441
h    -1.4444005   -1.7936699   -1.1133265  0.00   -0.0008802    0.0044717   -0.0008959
    24
 Energy =       0.0830145686
c     1.9803476    2.5037456    0.0997572  0.00    0.0057590    0.0083823    0.0031132
c     0.7356251    3.0100567   -0.0771483  0.00   -0.0002782    0.0098323    0.0028388