    27
 Energy =       1.0267966914
c    -1.4235396    2.6054793   -0.0667700  0.00   -0.0458171    0.0387131    0.0030109
c    -1.3072796    1.2134697   -0.1072300  0.00   -0.0853802   -0.0326281    0.0021665
c    -0.0178900    0.6711998   -0.1697000  0.00   -0.0896346   -0.1891988   -0.0016274
c    -0.2940599    3.4190890   -0.0891300  0.00   -0.0109930    0.0696554    0.0052043
c     0.9872197    2.8590292   -0.1560400  0.00    0.3420998    0.0048582    0.1292936
c     1.1340797    1.4562096   -0.1970299  0.00    0.0948331    0.0918272    0.0137389
n     0.3879399   -0.6395298   -0.2140799  0.00    0.1432081    0.1105023   -0.0024500
c     2.2666594    0.5727398   -0.2659299  0.00    0.1531233   -0.0817371   -0.0283548
c     1.7555995   -0.7123598   -0.2706899  0.00   -0.1010654   -0.0975836    0.0041454
h    -0.2400399   -1.4313496   -0.2047299  0.00    0.0369510    0.0480084   -0.0007764
c     3.7030089    1.0223397   -0.3320099  0.00   -0.0273806    0.0399884    0.0216024
c     4.0547688    2.2615794    0.5049969  0.00   -0.0136064   -0.0620228    0.0907178
h     3.9407589    1.2278196   -1.3843196  0.00    0.0038877   -0.0044509    0.0155668
h     4.3455988    0.1801669   -0.0411573  0.00   -0.0105023    0.0060749   -0.0087443
c     2.9727892    3.3351790    0.2854279  0.00   -0.1059351   -0.1951506   -0.0489264
n     5.3813085    2.8752092    0.1415580  0.00    0.0536697    0.0813232   -0.0342860
h     4.0661188    2.0288794    1.5763396  0.00    0.0058449    0.0134978   -0.0197200
h     5.8112383    2.2667394   -0.5627298  0.00   -0.0340461    0.0107251    0.0190490
h     5.1915785    3.7452789   -0.3681979  0.00   -0.0230013   -0.0390603    0.0236364
h    -2.4108593    3.0588691   -0.0157800  0.00   -0.0008249    0.0001388   -0.0001124
h    -2.1896094    0.5822398   -0.0890100  0.00   -0.0035144    0.0038197   -0.0000446
h    -0.4052699    4.5000487   -0.0535400  0.00   -0.0010639    0.0003115   -0.0000271
h     1.8590495    3.5066790   -0.1715100  0.00    0.0355663    0.5085006    0.4062813
h     2.2327294   -1.6813195   -0.3062999  0.00   -0.0406172   -0.0114184    0.0022514
o     2.7320592    3.8947389   -0.7713858  0.00   -0.0627971   -0.1051210   -0.2397963
o     2.2961393    3.5939090    1.4368496  0.00   -0.2032463   -0.1668365   -0.3116901
h     2.4292893    4.5635987    1.5998795  0.00   -0.0097580   -0.0427367   -0.0401086
    27
 Energy =       0.9871985897
c    -1.4030900    2.6835253   -0.0496384  0.00   -0.0438915    0.0368221    0.0028818
c    -1.3168251    1.2903459   -0.0928659  0.00   -0.0814145   -0.0313715    0.0020269
c    -0.0412920    0.7221671   -0.1507827  0.00   -0.0849961   -0.1785680   -0.0013785
c    -0.2549983    3.4709907   -0.0716846  0.00   -0.0107658    0.0664631    0.0049789
c     1.0101590    2.8769632   -0.1405084  0.00    0.3207522    0.0098595    0.1219515
c     1.1226335    1.4823083   -0.1765457  0.00    0.0925039    0.0901812    0.0134833
n     0.3291118   -0.5985180   -0.2341085  0.00    0.1363682    0.1038412   -0.0025594
c     2.2301167    0.5821892   -0.2664940  0.00    0.1447889   -0.0764031   -0.0265125
c     1.6995188   -0.6940996   -0.2888081  0.00   -0.0959769   -0.0922982    0.0040431
h    -0.3211832   -1.3750857   -0.2417017  0.00    0.0345679    0.0449868   -0.0007686
c     3.6618082    1.0106212   -0.3850949  0.00   -0.0297817    0.0373705    0.0220514
c     4.0624684    2.1928890    0.5111446  0.00   -0.0169482   -0.0668933    0.0853357
h     3.8438325    1.2916592   -1.4361697  0.00    0.0033150   -0.0034068    0.0104264
h     4.3116027    0.1409922   -0.1853566  0.00   -0.0069825    0.0025912   -0.0076387
c     3.0696232    3.3661142    0.3077992  0.00   -0.0968313   -0.1759487   -0.0377390
n     5.4387136    2.7234077    0.2011743  0.00    0.0582994    0.0740691   -0.0289929
h     4.0290727    1.9149272    1.5736332  0.00    0.0062883    0.0116590   -0.0169328
h     5.8486784    2.1079862   -0.5117826  0.00   -0.0316426    0.0098594    0.0178663
h     5.3358161    3.6332221   -0.2730240  0.00   -0.0225445   -0.0293860    0.0182686
h    -2.3804284    3.1588529   -0.0014120  0.00   -0.0010660    0.0002618   -0.0000911
h    -2.2125873    0.6774217   -0.0857660  0.00   -0.0036135    0.0034241   -0.0000487
h    -0.3386467    4.5545611   -0.0372073  0.00   -0.0010074    0.0006990   -0.0000051
h     1.9138849    3.4570627   -0.1542785  0.00    0.0325600    0.4650674    0.3860948
h     2.1647252   -1.6680990   -0.3665880  0.00   -0.0382281   -0.0118214    0.0020649
o     2.7736297    3.8186557   -0.7777241  0.00   -0.0588092   -0.0942971   -0.2366692
o     2.3453367    3.5798101    1.4496387  0.00   -0.1955535   -0.1730549   -0.2971734
h     2.3377048    4.5750619    1.5919334  0.00   -0.0093904   -0.0237063   -0.0349636
    27
 Energy =       0.9740503469
c    -1.3770238    2.7893075   -0.0949079  0.00   -0.0431537    0.0359886    0.0028313
c    -1.3312294    1.3944900   -0.1298094  0.00   -0.0795571   -0.0308930    0.0020272
c    -0.0748284    0.7896221   -0.1886639  0.00   -0.0825546   -0.1718394   -0.0013044
c    -0.2056973    3.5431403   -0.1192886  0.00   -0.0106822    0.0651174    0.0048380
c     1.0419661    2.9108242   -0.1835014  0.00    0.3108265    0.0105351    0.1185548
c     1.1088579    1.5130591   -0.2177553  0.00    0.0892504    0.0874465    0.0129840
n     0.2479642   -0.5450272   -0.2321917  0.00    0.1323862    0.0995987   -0.0024787
c     2.1870002    0.5759601   -0.2894167  0.00    0.1399672   -0.0741876   -0.0257271
c     1.6178212   -0.6853397   -0.2929397  0.00   -0.0925173   -0.0897320    0.0038704
h    -0.4353937   -1.2955129   -0.2194202  0.00    0.0323113    0.0423072   -0.0007305
c     3.6378448    0.9468496   -0.3674670  0.00   -0.0288120    0.0366535    0.0217321
c     4.0512435    2.1092623    0.5465291  0.00   -0.0185765   -0.0672496    0.0824908
h     3.8651006    1.2246054   -1.4121316  0.00    0.0034070   -0.0028923    0.0091605
h     4.2470125    0.0512247   -0.1468614  0.00   -0.0059902    0.0014964   -0.0069554
c     3.1166181    3.3257000    0.3000245  0.00   -0.0937922   -0.1696085   -0.0378866
n     5.4630017    2.5771307    0.2999685  0.00    0.0613871    0.0692242   -0.0265353
h     3.9534711    1.8315357    1.6074457  0.00    0.0061108    0.0101915   -0.0145761
h     5.8782404    1.9492331   -0.4000710  0.00   -0.0300262    0.0097642    0.0170545
h     5.4324971    3.5045276   -0.1550269  0.00   -0.0208930   -0.0242623    0.0153053
h    -2.3403821    3.2932529   -0.0461228  0.00   -0.0015143    0.0004976   -0.0000644
h    -2.2445996    0.8072113   -0.1109115  0.00   -0.0039851    0.0029774   -0.0000303
h    -0.2567780    4.6291499   -0.0852937  0.00   -0.0009981    0.0012450    0.0000069
h     1.9667598    3.4439514   -0.1882534  0.00    0.0302966    0.4500995    0.3744455
h     2.0562794   -1.6762432   -0.3355264  0.00   -0.0366393   -0.0126039    0.0019952
o     2.8557127    3.7711553   -0.7924409  0.00   -0.0556187   -0.0899634   -0.2306343
o     2.3798191    3.5987664    1.4216527  0.00   -0.1917345   -0.1691637   -0.2866595
h     2.4181080    4.5980959    1.5401628  0.00   -0.0088982   -0.0207472   -0.0337141
    27
 Energy =       0.9479045788
c    -1.3985804    2.6968349   -0.0171369  0.00   -0.0411249    0.0344566    0.0026951
c    -1.3208248    1.3049330   -0.0695690  0.00   -0.0756855   -0.0296716    0.0020029
c    -0.0520043    0.7301864   -0.1311177  0.00   -0.0787027   -0.1582867   -0.0003599
c    -0.2459989    3.4764524   -0.0386865  0.00   -0.0102339    0.0620876    0.0045559
c     1.0133560    2.8743922   -0.1138798  0.00    0.2935942    0.0103467    0.1138764
c     1.1115404    1.4830434   -0.1558799  0.00    0.0835414    0.0835105    0.0121622
n     0.3052302   -0.5988921   -0.2540092  0.00    0.1256643    0.0908483   -0.0031681
c     2.2115152    0.5862169   -0.2649782  0.00    0.1305771   -0.0696086   -0.0236831
c     1.6827944   -0.6889943   -0.3047897  0.00   -0.0873256   -0.0835170    0.0041566
h    -0.3506838   -1.3771122   -0.2802384  0.00    0.0291168    0.0380307   -0.0009480
c     3.6446321    1.0133923   -0.4182506  0.00   -0.0262293    0.0354811    0.0216349
c     4.0709807    2.1770493    0.4925494  0.00   -0.0195308   -0.0660626    0.0773754
h     3.7980624    1.3195975   -1.4715717  0.00    0.0036878   -0.0018122    0.0058106
h     4.3017649    0.1368804   -0.2504259  0.00   -0.0038010   -0.0003939   -0.0060000
c     3.0833586    3.3676342    0.3323738  0.00   -0.0896620   -0.1587682   -0.0359098
n     5.4538332    2.6909447    0.1668946  0.00    0.0630613    0.0637387   -0.0239671
h     4.0502618    1.8746939    1.5549404  0.00    0.0058748    0.0083992   -0.0108081
h     5.8524312    2.0789010   -0.5588241  0.00   -0.0275154    0.0092779    0.0151793
h     5.3605649    3.6128461   -0.2991337  0.00   -0.0186428   -0.0199626    0.0122892
h    -2.3734443    3.1784946    0.0336651  0.00   -0.0017308    0.0006291   -0.0000462
h    -2.2205897    0.6961589   -0.0712782  0.00   -0.0042110    0.0024672   -0.0000357
h    -0.3217147    4.5613021   -0.0024222  0.00   -0.0009425    0.0015048    0.0000060
h     1.9218496    3.4411812   -0.1431093  0.00    0.0249318    0.4230764    0.3535373
h     2.1586781   -1.6591514   -0.4127105  0.00   -0.0335020   -0.0148099    0.0016739
o     2.7862238    3.8451609   -0.7310762  0.00   -0.0490640   -0.0818837   -0.2210538
o     2.3673389    3.5785697    1.4843649  0.00   -0.1837623   -0.1611523   -0.2691931
h     2.3688107    4.5752166    1.6320814  0.00   -0.0083831   -0.0179254   -0.0317828
    27
 Energy =       0.8877461133
c    -1.3852491    2.7070111    0.0431123  0.00   -0.0339399    0.0289604    0.0021747
c    -1.3192234    1.3210100   -0.0445359  0.00   -0.0625619   -0.0253157    0.0016189
c    -0.0631364    0.7382038   -0.1097934  0.00   -0.0642283   -0.1232757    0.0026854
c    -0.2282115    3.4739349    0.0394173  0.00   -0.0085227    0.0516306    0.0036141
c     1.0199925    2.8620962   -0.0454086  0.00    0.2455931    0.0146382    0.1030125
c     1.0964301    1.4797381   -0.1125279  0.00    0.0687816    0.0705604    0.0099857
n     0.2717102   -0.5933592   -0.3441158  0.00    0.1047672    0.0684713   -0.0057660
c     2.1828881    0.5964607   -0.2601718  0.00    0.1077064   -0.0556508   -0.0188110
c     1.6605327   -0.6724536   -0.3559861  0.00   -0.0718800   -0.0670303    0.0051310
h    -0.3901864   -1.3706835   -0.4389915  0.00    0.0217939    0.0284279   -0.0017104
c     3.6095701    1.0255085   -0.4661129  0.00   -0.0217248    0.0286014    0.0177878
c     4.0784440    2.1589829    0.4661069  0.00   -0.0160687   -0.0555466    0.0638492
h     3.7144532    1.3680934   -1.5167871  0.00    0.0029831   -0.0012010    0.0030387
h     4.2746338    0.1433412   -0.3528382  0.00   -0.0020173   -0.0013686   -0.0048825
c     3.1069040    3.3712819    0.3925927  0.00   -0.0744115   -0.1284356   -0.0274720
n     5.4585259    2.6463811    0.1108664  0.00    0.0531711    0.0522436   -0.0187375
h     4.0869703    1.8184659    1.5201516  0.00    0.0052709    0.0067192   -0.0078104
h     5.8347516    2.0451273   -0.6406585  0.00   -0.0223981    0.0070587    0.0117024
h     5.3773377    3.5858054   -0.3276480  0.00   -0.0155351   -0.0155843    0.0097394
h    -2.3558852    3.1965209    0.0958319  0.00   -0.0014845    0.0005259   -0.0000382
h    -2.2236222    0.7195812   -0.0829500  0.00   -0.0040008    0.0014620   -0.0001248
h    -0.2923654    4.5590301    0.0890390  0.00   -0.0007892    0.0014063    0.0000070
h     1.9325366    3.4078115   -0.0973288  0.00    0.0168837    0.3404667    0.2865199
h     2.1579104   -1.6243325   -0.5269792  0.00   -0.0272325   -0.0145899    0.0011181
o     2.7928379    3.8818233   -0.6270457  0.00   -0.0372999   -0.0629535   -0.1822765
o     2.4179900    3.5691029    1.5642769  0.00   -0.1556934   -0.1356171   -0.2273325
h     2.4428466    4.5614490    1.7362665  0.00   -0.0071624   -0.0146036   -0.0270232
    27
 Energy =       0.8797769690
c    -1.3744459    2.7535066    0.0363850  0.00   -0.0327870    0.0280860    0.0021277
c    -1.3287463    1.3695186   -0.0803439  0.00   -0.0602152   -0.0248585    0.0014835
c    -0.0829042    0.7687043   -0.1428719  0.00   -0.0608511   -0.1159165    0.0035270
c    -0.2059261    3.5022819    0.0577309  0.00   -0.0080278    0.0499748    0.0034712
c     1.0328004    2.8723036   -0.0237554  0.00    0.2362235    0.0149087    0.0993137
c     1.0864778    1.4910100   -0.1137992  0.00    0.0662450    0.0681224    0.0096041
n     0.2287388   -0.5574699   -0.4435438  0.00    0.0990186    0.0638624   -0.0064063
c     2.1593216    0.5940220   -0.2636827  0.00    0.1038594   -0.0529864   -0.0179683
c     1.6185781   -0.6636789   -0.3956660  0.00   -0.0669137   -0.0640534    0.0054365
h    -0.4480556   -1.3162546   -0.5977447  0.00    0.0187513    0.0248296   -0.0022307
c     3.5974240    0.9968721   -0.4452476  0.00   -0.0207826    0.0276501    0.0171612
c     4.0750397    2.1168066    0.4981073  0.00   -0.0157078   -0.0536922    0.0612496
h     3.7244845    1.3421036   -1.4930549  0.00    0.0028799   -0.0010296    0.0026947
h     4.2440505    0.1015935   -0.3249195  0.00   -0.0017508   -0.0015157   -0.0046095
c     3.1285246    3.3480102    0.4182854  0.00   -0.0710665   -0.1232655   -0.0267674
n     5.4690816    2.5762816    0.1644096  0.00    0.0518325    0.0496406   -0.0177237
h     4.0607960    1.7705840    1.5507368  0.00    0.0051194    0.0062674   -0.0072659
h     5.8442297    1.9746503   -0.5881028  0.00   -0.0214487    0.0067931    0.0112265
h     5.4183895    3.5247397   -0.2606620  0.00   -0.0148337   -0.0140962    0.0089242
h    -2.3381305    3.2571233    0.0851668  0.00   -0.0015732    0.0005349   -0.0000321
h    -2.2420087    0.7834936   -0.1508301  0.00   -0.0043776    0.0009331   -0.0001893
h    -0.2534688    4.5876659    0.1213355  0.00   -0.0007262    0.0016011    0.0000189
h     1.9540848    3.3966382   -0.0755049  0.00    0.0160320    0.3266263    0.2749523
h     2.1077897   -1.6194507   -0.5701925  0.00   -0.0262220   -0.0141348    0.0010754
o     2.8256831    3.8616546   -0.5980536  0.00   -0.0357364   -0.0601434   -0.1749346
o     2.4474652    3.5755741    1.5877950  0.00   -0.1501622   -0.1312751   -0.2183723
h     2.5101123    4.5676481    1.7558048  0.00   -0.0067790   -0.0128632   -0.0257665
    27
 Energy =       0.8810861767
c    -1.3652821    2.7979665    0.0217532  0.00   -0.0327900    0.0281752    0.0021654
c    -1.3374593    1.4159276   -0.1223359  0.00   -0.0600523   -0.0252046    0.0013714
c    -0.0999008    0.7986687   -0.1806621  0.00   -0.0597636   -0.1132815    0.0043233
c    -0.1865184    3.5302455    0.0685465  0.00   -0.0078003    0.0500750    0.0034860
c     1.0443694    2.8838194   -0.0073447  0.00    0.2352441    0.0152972    0.0988825
c     1.0791640    1.5029455   -0.1187631  0.00    0.0660921    0.0681475    0.0095988
n     0.1947755   -0.5172659   -0.5427567  0.00    0.0964923    0.0622481   -0.0070546
c     2.1404300    0.5902145   -0.2661399  0.00    0.1035973   -0.0523989   -0.0176960
c     1.5805529   -0.6559506   -0.4318279  0.00   -0.0642109   -0.0634313    0.0059181
h    -0.4933710   -1.2543469   -0.7564978  0.00    0.0164156    0.0222838   -0.0029419
c     3.5904466    0.9655197   -0.4141288  0.00   -0.0204130    0.0278376    0.0172649
c     4.0698240    2.0766654    0.5374835  0.00   -0.0159318   -0.0537510    0.0608365
h     3.7474207    1.3072791   -1.4595665  0.00    0.0029307   -0.0008401    0.0022818
h     4.2170698    0.0578421   -0.2785447  0.00   -0.0014628   -0.0017744   -0.0044825
c     3.1458052    3.3235014    0.4384024  0.00   -0.0704137   -0.1225546   -0.0269608
n     5.4774887    2.5121591    0.2296698  0.00    0.0523203    0.0489797   -0.0174620
h     4.0288799    1.7312531    1.5899618  0.00    0.0051151    0.0060383   -0.0069159
h     5.8552236    1.9077385   -0.5194047  0.00   -0.0212554    0.0067967    0.0111323
h     5.4544149    3.4656572   -0.1869570  0.00   -0.0146053   -0.0133935    0.0085333
h    -2.3225736    3.3143185    0.0652013  0.00   -0.0016999    0.0005521   -0.0000309
h    -2.2580667    0.8450677   -0.2243522  0.00   -0.0048770    0.0005062   -0.0002731
h    -0.2196009    4.6154771    0.1450358  0.00   -0.0006818    0.0017928    0.0000313
h     1.9732753    3.3891887   -0.0568656  0.00    0.0156284    0.3247761    0.2735038
h     2.0574682   -1.6190944   -0.6026461  0.00   -0.0260482   -0.0141929    0.0010445
o     2.8567790    3.8354410   -0.5814038  0.00   -0.0353083   -0.0595065   -0.1741693
o     2.4689720    3.5817605    1.6022372  0.00   -0.1498660   -0.1311257   -0.2168874
h     2.5597988    4.5739335    1.7596878  0.00   -0.0066556   -0.0120511   -0.0254995
    27
 Energy =       0.8753203753
c    -1.3734702    2.7568914    0.0398807  0.00   -0.0325806    0.0280649    0.0021813
c    -1.3303252    1.3726550   -0.0781037  0.00   -0.0595253   -0.0253629    0.0012634
c    -0.0858006    0.7700281   -0.1412190  0.00   -0.0583504   -0.1100693    0.0048218
c    -0.2034825    3.5040870    0.0614564  0.00   -0.0075333    0.0498469    0.0034790
c     1.0341052    2.8723486   -0.0211416  0.00    0.2329097    0.0154909    0.0978747
c     1.0847764    1.4911238   -0.1122699  0.00    0.0655311    0.0678040    0.0095182
n     0.2202754   -0.5601102   -0.4441562  0.00    0.0932046    0.0604787   -0.0073315
c     2.1563016    0.5943024   -0.2642792  0.00    0.1026325   -0.0515608   -0.0173050
c     1.6146816   -0.6636125   -0.3976666  0.00   -0.0609777   -0.0622972    0.0061557
h    -0.4605389   -1.3212168   -0.5977447  0.00    0.0139648    0.0195003   -0.0034229
c     3.5953490    0.9973126   -0.4499910  0.00   -0.0198425    0.0279205    0.0172960
c     4.0765770    2.1143239    0.4952287  0.00   -0.0160446   -0.0534833    0.0600733
h     3.7194364    1.3460771   -1.4979973  0.00    0.0029678   -0.0006164    0.0017564
h     4.2427584    0.1011168   -0.3333192  0.00   -0.0011023   -0.0020544   -0.0043326
c     3.1317430    3.3478918    0.4206472  0.00   -0.0694394   -0.1210855   -0.0269045
n     5.4717885    2.5709675    0.1601974  0.00    0.0524636    0.0481293   -0.0171443
h     4.0631045    1.7647205    1.5475827  0.00    0.0050819    0.0057824   -0.0064978
h     5.8451670    1.9704469   -0.5944430  0.00   -0.0209301    0.0067554    0.0109432
h     5.4235869    3.5215191   -0.2625939  0.00   -0.0143028   -0.0127485    0.0081364
h    -2.3365794    3.2619291    0.0892749  0.00   -0.0018005    0.0005546   -0.0000291
h    -2.2452206    0.7872089   -0.1492012  0.00   -0.0053136    0.0001023   -0.0003293
h    -0.2490323    4.5898100    0.1257952  0.00   -0.0006345    0.0019361    0.0000387
h     1.9563315    3.3950467   -0.0740238  0.00    0.0150544    0.3210264    0.2704794
h     2.1059530   -1.6178827   -0.5757535  0.00   -0.0256469   -0.0141904    0.0009965
o     2.8283598    3.8639077   -0.5929041  0.00   -0.0345977   -0.0584880   -0.1724834
o     2.4524902    3.5765322    1.5919581  0.00   -0.1486545   -0.1300638   -0.2141210
h     2.5210501    4.5685076    1.7625683  0.00   -0.0065336   -0.0113721   -0.0251125
    27
 Energy =       0.8639636873
c    -1.3775736    2.7237408    0.0603560  0.00   -0.0313954    0.0271222    0.0021262
c    -1.3225670    1.3386985   -0.0332041  0.00   -0.0572803   -0.0247368    0.0011100
c    -0.0740844    0.7476431   -0.1029812  0.00   -0.0553131   -0.1036941    0.0048539
c    -0.2149985    3.4816298    0.0568509  0.00   -0.0070507    0.0481480    0.0033774
c     1.0264265    2.8610835   -0.0341430  0.00    0.2241240    0.0152256    0.0943037
c     1.0877837    1.4810504   -0.1070537  0.00    0.0631021    0.0655653    0.0091812
n     0.2408965   -0.5948619   -0.3474597  0.00    0.0872028    0.0570465   -0.0069518
c     2.1656650    0.5993906   -0.2663419  0.00    0.0987318   -0.0493006   -0.0164030
c     1.6410113   -0.6673775   -0.3695756  0.00   -0.0559396   -0.0591661    0.0058963
h    -0.4321265   -1.3757869   -0.4389915  0.00    0.0111489    0.0161107   -0.0035597
c     3.5932033    1.0255808   -0.4911558  0.00   -0.0186787    0.0271881    0.0168146
c     4.0809211    2.1438956    0.4509998  0.00   -0.0155955   -0.0516111    0.0576119
h     3.6836613    1.3837541   -1.5399746  0.00    0.0029039   -0.0003846    0.0011445
h     4.2579520    0.1389064   -0.3969843  0.00   -0.0007007   -0.0022506   -0.0040877
c     3.1223024    3.3688782    0.4072544  0.00   -0.0665863   -0.1160936   -0.0258959
n     5.4649973    2.6137249    0.0910247  0.00    0.0508912    0.0460748   -0.0163914
h     4.0925688    1.7866942    1.5015320  0.00    0.0049063    0.0054122   -0.0059281
h     5.8321201    2.0181922   -0.6713941  0.00   -0.0200156    0.0064898    0.0104048
h     5.3989128    3.5638755   -0.3318426  0.00   -0.0136392   -0.0120032    0.0076382
h    -2.3447286    3.2202146    0.1172159  0.00   -0.0018253    0.0005248   -0.0000274
h    -2.2324654    0.7419940   -0.0731090  0.00   -0.0055627   -0.0002737   -0.0003561
h    -0.2696603    4.5675676    0.1107311  0.00   -0.0005713    0.0019645    0.0000409
h     1.9436085    3.3963399   -0.0903646  0.00    0.0139384    0.3080011    0.2596771
h     2.1458114   -1.6121090   -0.5588804  0.00   -0.0244754   -0.0137750    0.0008882
o     2.8052706    3.8914348   -0.5959443  0.00   -0.0327920   -0.0557484   -0.1659466
o     2.4440533    3.5710269    1.5869113  0.00   -0.1432592   -0.1252386   -0.2054609
h     2.5004245    4.5607515    1.7743063  0.00   -0.0062684   -0.0105971   -0.0240603
    27
 Energy =       0.8422243607
c    -1.3764932    2.6992433    0.0889560  0.00   -0.0282964    0.0244949    0.0019275
c    -1.3140914    1.3153261    0.0172877  0.00   -0.0516387   -0.0225641    0.0008440
c    -0.0661455    0.7321328   -0.0632790  0.00   -0.0490499   -0.0913544    0.0041258
c    -0.2196878    3.4624846    0.0593477  0.00   -0.0061485    0.0435406    0.0030909
c     1.0214615    2.8487962   -0.0438798  0.00    0.2029834    0.0145748    0.0864482
c     1.0859525    1.4722826   -0.1018717  0.00    0.0569145    0.0595250    0.0083535
n     0.2532062   -0.6217242   -0.2522291  0.00    0.0757320    0.0504760   -0.0054468
c     2.1646967    0.6066341   -0.2739575  0.00    0.0888785   -0.0441724   -0.0144009
c     1.6567946   -0.6657904   -0.3494494  0.00   -0.0474760   -0.0522947    0.0048236
h    -0.4115656   -1.4183907   -0.2802384  0.00    0.0077758    0.0118284   -0.0032082
c     3.5793763    1.0516717   -0.5449299  0.00   -0.0163342    0.0248231    0.0153033
c     4.0833022    2.1638202    0.3986265  0.00   -0.0141374   -0.0467204    0.0517118
h     3.6306456    1.4248499   -1.5919963  0.00    0.0026350   -0.0000922    0.0002301
h     4.2581599    0.1721299   -0.4818153  0.00   -0.0001216   -0.0023868   -0.0036246
c     3.1197969    3.3864462    0.4020890  0.00   -0.0599629   -0.1038865   -0.0229104
n     5.4570941    2.6363184    0.0121951  0.00    0.0462428    0.0413334   -0.0145328
h     4.1211003    1.7912829    1.4444189  0.00    0.0044846    0.0047244   -0.0048967
h     5.8128255    2.0495388   -0.7642282  0.00   -0.0178535    0.0057186    0.0090650
h     5.3823410    3.5916758   -0.3997310  0.00   -0.0122330   -0.0106151    0.0067382
h    -2.3454690    3.1906163    0.1566483  0.00   -0.0017441    0.0004513   -0.0000259
h    -2.2199815    0.7111238    0.0098567  0.00   -0.0054730   -0.0006028   -0.0003475
h    -0.2789361    4.5484727    0.1055633  0.00   -0.0004775    0.0018130    0.0000375
h     1.9360968    3.3902742   -0.1038986  0.00    0.0114988    0.2759548    0.2329925
h     2.1765300   -1.5983651   -0.5568951  0.00   -0.0217263   -0.0125843    0.0006428
o     2.7878331    3.9220319   -0.5811095  0.00   -0.0286261   -0.0492606   -0.1496646
o     2.4501057    3.5646114    1.5939620  0.00   -0.1301664   -0.1136994   -0.1856740
h     2.5144372    4.5484390    1.8083391  0.00   -0.0056800   -0.0090245   -0.0216023
    27
 Energy =       0.7943084030
c    -1.3621901    2.6973553    0.1457621  0.00   -0.0191313    0.0163487    0.0011816
c    -1.3054495    1.3192503    0.0882935  0.00   -0.0352569   -0.0154966    0.0001052
c    -0.0713575    0.7338171   -0.0191465  0.00   -0.0321705   -0.0601326    0.0014632
c    -0.2063434    3.4517012    0.0846664  0.00   -0.0040614    0.0296752    0.0021635
c     1.0224942    2.8331926   -0.0453734  0.00    0.1475523    0.0164635    0.0717852
c     1.0678284    1.4664284   -0.0998506  0.00    0.0386490    0.0413875    0.0061177
n     0.2351459   -0.6355236   -0.1599933  0.00    0.0466316    0.0336565   -0.0006911
c     2.1320085    0.6215170   -0.3018321  0.00    0.0600757   -0.0296476   -0.0084962
c     1.6422357   -0.6498538   -0.3529426  0.00   -0.0281755   -0.0337782    0.0015607
h    -0.4234572   -1.4429094   -0.1214853  0.00    0.0029182    0.0052657   -0.0018181
c     3.5305605    1.0762845   -0.6424517  0.00   -0.0106544    0.0168550    0.0101545
c     4.0812378    2.1578950    0.3165747  0.00   -0.0093257   -0.0328567    0.0346747
h     3.5235060    1.4850415   -1.6796052  0.00    0.0015503    0.0004929   -0.0020537
h     4.2156251    0.1973625   -0.6389962  0.00    0.0013822   -0.0027577   -0.0024930
c     3.1369947    3.3941168    0.4233857  0.00   -0.0408614   -0.0682439   -0.0125854
n     5.4463836    2.6049034   -0.1041702  0.00    0.0325871    0.0263323   -0.0074604
h     4.1515604    1.7424965    1.3478372  0.00    0.0036199    0.0027593   -0.0019055
h     5.7734302    2.0432858   -0.9173712  0.00   -0.0114741    0.0026078    0.0042082
h     5.3899459    3.5850144   -0.4672320  0.00   -0.0088729   -0.0046032    0.0038167
h    -2.3267921    3.1930567    0.2376011  0.00   -0.0015355    0.0003297   -0.0000197
h    -2.2108724    0.7162520    0.1204976  0.00   -0.0044090   -0.0008283   -0.0002760
h    -0.2569321    4.5377117    0.1337826  0.00   -0.0003435    0.0012705    0.0000226
h     1.9426800    3.3641913   -0.1073802  0.00    0.0032574    0.1806408    0.1532311
h     2.1855681   -1.5607034   -0.5954476  0.00   -0.0138739   -0.0090037   -0.0001223
o     2.7853273    3.9679490   -0.5062236  0.00   -0.0163069   -0.0289883   -0.1018583
o     2.5045122    3.5565706    1.6438740  0.00   -0.0988908   -0.0902424   -0.1382965
h     2.6557359    4.5195290    1.9250087  0.00   -0.0028800    0.0024937   -0.0124089
    27
 Energy =       0.7694354085
c    -1.3475981    2.7357365    0.1718077  0.00   -0.0135075    0.0114642    0.0007249
c    -1.3117676    1.3618765    0.0939669  0.00   -0.0247683   -0.0109747    0.0000265
c    -0.0943218    0.7606772   -0.0368662  0.00   -0.0220420   -0.0420311    0.0012006
c    -0.1826778    3.4704950    0.1119291  0.00   -0.0030295    0.0208923    0.0014144
c     1.0304584    2.8349474   -0.0384282  0.00    0.1093400    0.0158319    0.0579749
c     1.0464292    1.4742163   -0.1179025  0.00    0.0269648    0.0286310    0.0043432
n     0.1859356   -0.6158852   -0.1961241  0.00    0.0326441    0.0231622   -0.0005824
c     2.0921002    0.6293661   -0.3369513  0.00    0.0420188   -0.0206592   -0.0057701
c     1.5968084   -0.6334441   -0.3987796  0.00   -0.0195206   -0.0237100    0.0011624
h    -0.4821371   -1.4174601   -0.1680495  0.00    0.0019172    0.0035050   -0.0012696
c     3.4945426    1.0693009   -0.6841232  0.00   -0.0080377    0.0113037    0.0067876
c     4.0754228    2.1159556    0.2985823  0.00   -0.0063310   -0.0235705    0.0239479
h     3.4816753    1.5053602   -1.7098400  0.00    0.0009422    0.0004541   -0.0018632
h     4.1654610    0.1800016   -0.7084523  0.00    0.0012595   -0.0023768   -0.0017141
c     3.1621027    3.3691544    0.4623629  0.00   -0.0268409   -0.0483900   -0.0086302
n     5.4475728    2.5302195   -0.1177069  0.00    0.0233324    0.0156874   -0.0024657
h     4.1406501    1.6658414    1.3169436  0.00    0.0029031    0.0015709   -0.0007673
h     5.7547397    1.9994031   -0.9623591  0.00   -0.0077063    0.0005856    0.0013991
h     5.4322287    3.5349656   -0.4226947  0.00   -0.0065549    0.0011430    0.0015795
h    -2.3029599    3.2450568    0.2829897  0.00   -0.0013496    0.0004203    0.0000077
h    -2.2242536    0.7714904    0.1292886  0.00   -0.0031621   -0.0006645   -0.0002008
h    -0.2135732    4.5561967    0.1838863  0.00   -0.0003192    0.0013578    0.0000368
h     1.9635077    3.3451267   -0.0863949  0.00    0.0007291    0.1244758    0.1053691
h     2.1463911   -1.5374738   -0.6519835  0.00   -0.0096091   -0.0063038   -0.0001001
o     2.8131079    3.9773549   -0.4295896  0.00   -0.0111715   -0.0182078   -0.0711566
o     2.5750517    3.5539498    1.7061326  0.00   -0.0775379   -0.0719734   -0.1051507
h     2.8144890    4.4935032    2.0161379  0.00   -0.0005633    0.0083766   -0.0063039
    27
 Energy =       0.7526222406
c    -1.3348669    2.7809442    0.1849918  0.00   -0.0095816    0.0082157    0.0004517
c    -1.3233998    1.4113978    0.0740755  0.00   -0.0172763   -0.0080255    0.0000292
c    -0.1220994    0.7928564   -0.0798424  0.00   -0.0148730   -0.0293116    0.0011059
c    -0.1584538    3.4942241    0.1387752  0.00   -0.0021808    0.0148039    0.0008821
c     1.0388101    2.8405016   -0.0316727  0.00    0.0804603    0.0144157    0.0459244
c     1.0248881    1.4858002   -0.1478381  0.00    0.0185799    0.0191957    0.0029214
n     0.1305785   -0.5883789   -0.2669396  0.00    0.0227832    0.0155233   -0.0006880
c     2.0532832    0.6364233   -0.3807081  0.00    0.0290371   -0.0142799   -0.0039757
c     1.5456673   -0.6161303   -0.4656102  0.00   -0.0134380   -0.0167461    0.0009516
h    -0.5501870   -1.3811364   -0.2605650  0.00    0.0009582    0.0019447   -0.0008849
c     3.4661466    1.0587636   -0.7128518  0.00   -0.0061338    0.0073177    0.0045038
c     4.0676759    2.0640673    0.3028982  0.00   -0.0043701   -0.0167795    0.0162039
h     3.4634416    1.5255195   -1.7250745  0.00    0.0005291    0.0005553   -0.0018311
h     4.1198757    0.1578838   -0.7606639  0.00    0.0010718   -0.0021015   -0.0011275
c     3.1836641    3.3307991    0.5127809  0.00   -0.0153306   -0.0354809   -0.0068883