    13
 Energy =       0.1138513702
c    -3.7133889    1.6950595    0.3173519  0.00   -0.1095667    0.0677489    0.0126685
c    -2.4962693    2.6345192    0.2419999  0.00    0.3651063   -0.0030844    0.1399472
c    -4.9565486    2.3924193   -0.2155699  0.00    0.0496403    0.0212865   -0.0075631
h    -5.2099685    3.2528291    0.4143399  0.00    0.0032204   -0.0126849   -0.0095778
h    -5.8205883    1.7190695   -0.2147749  0.00    0.0111581    0.0107969   -0.0014607
h    -4.8083986    2.7651692   -1.2348596  0.00   -0.0029213    0.0006480    0.0217692
n    -3.4097890    0.4519539   -0.4549189  0.00    0.0255847   -0.0694171   -0.0100963
h    -3.8575589    1.4177196    1.3669296  0.00    0.0056571   -0.0115860   -0.0255889
h    -3.2072391   -0.2948399    0.2179739  0.00   -0.0178757    0.0290480   -0.0193170
h    -4.2689788    0.1396900   -0.9176007  0.00    0.0231173    0.0213310    0.0246366
o    -1.4040496    2.4172293    0.7380088  0.00   -0.2619792    0.0448174   -0.1308162
o    -2.7835192    3.7545589   -0.4737969  0.00   -0.0684352   -0.0629062    0.0082865
h    -2.5521993    4.5104687    0.1222010  0.00   -0.0227063   -0.0359981   -0.0028881
    13
 Energy =       0.0928674808
c    -3.6907627    1.6994129    0.3083448  0.00   -0.0676257    0.0412749    0.0065247
c    -2.4867625    2.6357013    0.1733431  0.00    0.2236815    0.0010834    0.0883396
c    -4.9527170    2.3834983   -0.2088185  0.00    0.0390328    0.0100292   -0.0020698
h    -5.1281982    3.3403063    0.3315772  0.00    0.0024893    0.0022023   -0.0003067
h    -5.8423084    1.7336053   -0.0591045  0.00   -0.0014765   -0.0003518    0.0016731
h    -4.8372391    2.6217579   -1.2893271  0.00    0.0024878    0.0020055    0.0031957
n    -3.4292271    0.4344259   -0.4302941  0.00    0.0173499   -0.0430800   -0.0072493
h    -3.8022288    1.4761645    1.3840913  0.00    0.0034522   -0.0069370   -0.0136609
h    -3.2505633   -0.3149877    0.2601321  0.00   -0.0112380    0.0170300   -0.0112953
h    -4.2831536    0.1342833   -0.9306017  0.00    0.0128520    0.0134818    0.0143940
o    -1.3374353    2.3874747    0.6893825  0.00   -0.1607941    0.0271333   -0.0802036
o    -2.7369479    3.7924035   -0.5174280  0.00   -0.0473827   -0.0728960   -0.0339138
h    -2.7109524    4.5318002    0.1959870  0.00   -0.0128284    0.0090244    0.0345723
    13
 Energy =       0.0853421136
c    -3.7064718    1.7150718    0.3271140  0.00   -0.0553436    0.0356275    0.0057127
c    -2.5029809    2.6431704    0.1544911  0.00    0.1809044    0.0010652    0.0732262
c    -4.9686742    2.3707177   -0.2333921  0.00    0.0317870    0.0081182   -0.0016308
h    -5.1496056    3.3531654    0.2599128  0.00    0.0019682    0.0031454    0.0003155
h    -5.8568873    1.7245564   -0.0613034  0.00   -0.0013244   -0.0005628    0.0014420
h    -4.8439536    2.5587119   -1.3240620  0.00    0.0021066    0.0019406    0.0013633
n    -3.4437583    0.4115792   -0.3414179  0.00    0.0152817   -0.0363253   -0.0096650
h    -3.8263286    1.5552482    1.4166645  0.00    0.0026384   -0.0057422   -0.0091107
h    -3.2995371   -0.3085509    0.3935654  0.00   -0.0086183    0.0116030   -0.0067499
h    -4.2804340    0.0967245   -0.8669348  0.00    0.0096912    0.0108272    0.0112312
o    -1.3266825    2.3784642    0.6516753  0.00   -0.1301017    0.0219927   -0.0659534
o    -2.7309829    3.7908799   -0.5662338  0.00   -0.0414188   -0.0752085   -0.0425899
h    -2.5521993    4.5661078    0.0972048  0.00   -0.0075709    0.0235189    0.0424088
    13
 Energy =       0.0843041035
c    -3.7168813    1.7365428    0.3457433  0.00   -0.0522933    0.0366083    0.0060346
c    -2.5036120    2.6457019    0.1382287  0.00    0.1708439    0.0010000    0.0693733
c    -4.9648745    2.3630048   -0.2827867  0.00    0.0289723    0.0078502   -0.0012418
h    -5.1566304    3.3727254    0.1520780  0.00    0.0013201    0.0048303    0.0010294
h    -5.8581507    1.7275457   -0.0970121  0.00   -0.0013523   -0.0006889    0.0015306
h    -4.8126123    2.4905659   -1.3806278  0.00    0.0021524    0.0021563   -0.0008437
n    -3.4494855    0.3890429   -0.2342888  0.00    0.0158965   -0.0364827   -0.0145190
h    -3.8602577    1.6500524    1.4433806  0.00    0.0021225   -0.0054592   -0.0056661
h    -3.3428331   -0.2869454    0.5523186  0.00   -0.0074478    0.0076716   -0.0027098
h    -4.2700106    0.0506055   -0.7722174  0.00    0.0086191    0.0097336    0.0100615
o    -1.3203224    2.3715367    0.6262223  0.00   -0.1227447    0.0208713   -0.0624387
o    -2.7162393    3.7789395   -0.6121233  0.00   -0.0390238   -0.0710403   -0.0412248
h    -2.5165864    4.5665283    0.0283687  0.00   -0.0070649    0.0229496    0.0406143
    13
 Energy =       0.0797550232
c    -3.7075091    1.7153394    0.3296383  0.00   -0.0432697    0.0341629    0.0060408
c    -2.5067282    2.6404610    0.1314289  0.00    0.1469858    0.0008229    0.0599929
c    -4.9884098    2.3767517   -0.2007071  0.00    0.0221998    0.0076365   -0.0003558
h    -5.1571742    3.3625035    0.2984009  0.00    0.0003248    0.0063363    0.0019886
h    -5.8720162    1.7306791   -0.0060012  0.00   -0.0014367   -0.0005097    0.0015369
h    -4.8912673    2.5644243   -1.2989197  0.00    0.0019241    0.0023913   -0.0039190
n    -3.4641569    0.4053795   -0.3428048  0.00    0.0156371   -0.0330714   -0.0179645
h    -3.8020936    1.5606419    1.4294257  0.00    0.0016120   -0.0048745   -0.0013041
h    -3.3246665   -0.3244536    0.3935654  0.00   -0.0054905    0.0028422    0.0012688
h    -4.3016490    0.1023329   -0.8798831  0.00    0.0066482    0.0074276    0.0076182
o    -1.3079336    2.3568949    0.6074778  0.00   -0.1052897    0.0177010   -0.0536790
o    -2.7251228    3.7950152   -0.5885135  0.00   -0.0352795   -0.0650052   -0.0403263
h    -2.4397691    4.5698764    0.0341764  0.00   -0.0045658    0.0241401    0.0391026
    13
 Energy =       0.0735962941
c    -3.7032071    1.7061007    0.3235021  0.00   -0.0294242    0.0259056    0.0047583
c    -2.5057559    2.6265461    0.0975320  0.00    0.1054109    0.0015078    0.0445387
c    -5.0131881    2.3925270   -0.1077612  0.00    0.0134322    0.0063282    0.0005037
h    -5.1454731    3.3613860    0.4333219  0.00   -0.0002608    0.0059469    0.0023399
h    -5.8884005    1.7441086    0.1151645  0.00   -0.0016701   -0.0002928    0.0012643
h    -4.9792109    2.6162025   -1.2040453  0.00    0.0013213    0.0020775   -0.0053932
n    -3.5114381    0.4193843   -0.4025268  0.00    0.0132667   -0.0250111   -0.0153318
h    -3.7382895    1.5177259    1.4241386  0.00    0.0012066   -0.0033741    0.0015208
h    -3.3656324   -0.3462407    0.2974528  0.00   -0.0035995    0.0003926    0.0022522
h    -4.3637462    0.1559535   -0.9428551  0.00    0.0037935    0.0045741    0.0044317
o    -1.2791846    2.3133212    0.5401417  0.00   -0.0744674    0.0119477   -0.0392063
o    -2.7139538    3.7934160   -0.6120328  0.00   -0.0333222   -0.0624229   -0.0421564
h    -2.2810159    4.5554153   -0.0547484  0.00    0.0043129    0.0324206    0.0404780
    13
 Energy =       0.0699218823
c    -3.6977181    1.7030394    0.3231887  0.00   -0.0192097    0.0203156    0.0052122
c    -2.4852862    2.5861500    0.0309277  0.00    0.0719812    0.0021089    0.0320952
c    -5.0206321    2.4362509    0.0056590  0.00    0.0053431    0.0045508    0.0009858
h    -5.0864012    3.3937813    0.5794260  0.00   -0.0006860    0.0062985    0.0033844
h    -5.8967404    1.8052611    0.2739176  0.00   -0.0026015   -0.0002939    0.0010141
h    -5.0598566    2.6854381   -1.0859469  0.00    0.0005193    0.0016304   -0.0067706
n    -3.6035627    0.4262712   -0.4371799  0.00    0.0129857   -0.0208453   -0.0134832
h    -3.6582279    1.4973358    1.4228725  0.00    0.0011266   -0.0015638    0.0042589
h    -3.4647435   -0.3657035    0.2352130  0.00   -0.0022540   -0.0009484    0.0021577
h    -4.4863822    0.2178066   -0.9588310  0.00   -0.0001813    0.0020494    0.0010241
o    -1.2352518    2.2227966    0.4190955  0.00   -0.0479061    0.0073438   -0.0278064
o    -2.6695777    3.7532252   -0.6904585  0.00   -0.0285414   -0.0543234   -0.0381796
h    -2.1241158    4.4941937   -0.2105997  0.00    0.0094243    0.0336772    0.0361075
    13
 Energy =       0.0705994897
c    -3.6939580    1.7097898    0.3340931  0.00   -0.0194749    0.0206654    0.0072163
c    -2.4648872    2.5456014   -0.0306685  0.00    0.0720965   -0.0001325    0.0331962
c    -5.0061309    2.4822110    0.0625253  0.00    0.0042735    0.0041807    0.0009884
h    -5.0186080    3.4483149    0.6276408  0.00   -0.0007187    0.0073663    0.0042171
h    -5.8914863    1.8820745    0.3733272  0.00   -0.0038358   -0.0008070    0.0012997
h    -5.0818720    2.7188184   -1.0306794  0.00    0.0004560    0.0015155   -0.0074692
n    -3.6752065    0.4169826   -0.4076620  0.00    0.0149820   -0.0227495   -0.0145656
h    -3.6123066    1.5222528    1.4356735  0.00    0.0010451   -0.0011025    0.0053546
h    -3.5296430   -0.3678246    0.2717629  0.00   -0.0022855   -0.0010896    0.0022379
h    -4.5890936    0.2270254   -0.8842353  0.00   -0.0024061    0.0010273   -0.0003402
o    -1.2151212    2.1660895    0.3450221  0.00   -0.0466698    0.0076506   -0.0276135
o    -2.6293209    3.6740054   -0.8201628  0.00   -0.0271867   -0.0504405   -0.0404383
h    -2.0808619    4.4305051   -0.3693528  0.00    0.0097242    0.0339159    0.0359166
    13
 Energy =       0.0690292657
c    -3.7029670    1.7012931    0.3208209  0.00   -0.0171667    0.0174681    0.0073228
c    -2.4725304    2.5612736    0.0163636  0.00    0.0638844   -0.0036151    0.0324504
c    -5.0182955    2.4610056    0.0318009  0.00    0.0035203    0.0034131    0.0011371
h    -5.0569245    3.4146066    0.6160817  0.00   -0.0005945    0.0069467    0.0040418
h    -5.9027851    1.8424372    0.3078119  0.00   -0.0039883   -0.0010648    0.0013425
h    -5.0692612    2.7210515   -1.0569549  0.00    0.0004275    0.0013771   -0.0071530
n    -3.6493224    0.4269595   -0.4493674  0.00    0.0156381   -0.0192891   -0.0133141
h    -3.6503385    1.4888186    1.4195917  0.00    0.0008787   -0.0009096    0.0054305
h    -3.5426274   -0.3747842    0.2186512  0.00   -0.0018667   -0.0019817    0.0031906
h    -4.5355845    0.2506987   -0.9841070  0.00   -0.0049311   -0.0000481   -0.0021709
o    -1.2195343    2.1372941    0.3512445  0.00   -0.0394034    0.0044799   -0.0233387
o    -2.6341763    3.7592196   -0.6740533  0.00   -0.0273195   -0.0393321   -0.0429154
h    -2.0341491    4.4659725   -0.2105997  0.00    0.0109213    0.0325556    0.0339764
    13
 Energy =       0.0678371974
c    -3.7004377    1.6974591    0.3095398  0.00   -0.0134037    0.0135926    0.0057303
c    -2.4802257    2.5720013    0.0060569  0.00    0.0447443   -0.0048199    0.0299999
c    -5.0270504    2.4462843    0.0473723  0.00    0.0024660    0.0027916    0.0010934
h    -5.0707207    3.3872891    0.6492892  0.00   -0.0004767    0.0058356    0.0032839
h    -5.9011963    1.8124608    0.3190190  0.00   -0.0033226   -0.0008528    0.0011296
h    -5.0905173    2.7281120   -1.0339931  0.00    0.0004504    0.0012479   -0.0060490
n    -3.6478290    0.4358762   -0.4768729  0.00    0.0126740   -0.0154835   -0.0108679
h    -3.6337124    1.4702860    1.4036016  0.00    0.0006660   -0.0007600    0.0045386
h    -3.5431947   -0.3764396    0.1781272  0.00   -0.0015964   -0.0017576    0.0027009
h    -4.5291108    0.2680045   -1.0215540  0.00   -0.0040917   -0.0001265   -0.0018636
o    -1.2036246    2.0901657    0.2038440  0.00   -0.0194358   -0.0050783   -0.0161505
o    -2.6689008    3.8380561   -0.5583737  0.00   -0.0325557   -0.0244890   -0.0457156
h    -1.9919758    4.4862908   -0.1187721  0.00    0.0138818    0.0298998    0.0321700
    13
 Energy =       0.0662913651
c    -3.7117857    1.6919844    0.3068120  0.00   -0.0138479    0.0134793    0.0057193
c    -2.4832777    2.5751307    0.0644056  0.00    0.0390029   -0.0030491    0.0278814
c    -5.0312145    2.4410530    0.0101920  0.00    0.0022085    0.0026642    0.0011871
h    -5.0954436    3.3752077    0.6210073  0.00   -0.0004412    0.0058297    0.0034049
h    -5.9122343    1.8021851    0.2475017  0.00   -0.0037481   -0.0010993    0.0012081
h    -5.0615675    2.7349395   -1.0697552  0.00    0.0004035    0.0013017   -0.0064561
n    -3.6272209    0.4435205   -0.4979230  0.00    0.0141700   -0.0140178   -0.0110149
h    -3.6835533    1.4472017    1.3995138  0.00    0.0006393   -0.0007658    0.0052742
h    -3.5648078   -0.3804676    0.1493386  0.00   -0.0014289   -0.0027701    0.0038447
h    -4.4806217    0.2921467   -1.0926567  0.00   -0.0062030   -0.0006732   -0.0034945
o    -1.2142988    2.1147674    0.3625971  0.00   -0.0125199   -0.0065851   -0.0142719
o    -2.6510043    3.8367405   -0.5164892  0.00   -0.0317553   -0.0232353   -0.0443424
h    -1.9714662    4.4814367   -0.0772599  0.00    0.0135202    0.0289208    0.0310600
    13
 Energy =       0.0639721593
c    -3.7171418    1.6856410    0.3029621  0.00   -0.0132159    0.0124287    0.0054914
c    -2.4961568    2.5929476    0.1187456  0.00    0.0286530   -0.0008636    0.0220986
c    -5.0399085    2.4189570   -0.0147954  0.00    0.0019754    0.0023374    0.0010712
h    -5.1332342    3.3411240    0.6099330  0.00   -0.0003935    0.0055452    0.0033463
h    -5.9161731    1.7621123    0.1895841  0.00   -0.0038651   -0.0013017    0.0011949
h    -5.0483282    2.7312948   -1.0894770  0.00    0.0003921    0.0011730   -0.0060732
n    -3.5903363    0.4556505   -0.5234966  0.00    0.0150457   -0.0114866   -0.0100233
h    -3.7168444    1.4189656    1.3909781  0.00    0.0004645   -0.0006108    0.0052745
h    -3.5706020   -0.3829129    0.1088632  0.00   -0.0012175   -0.0036513    0.0047772
h    -4.4075744    0.3216307   -1.1736550  0.00   -0.0082070   -0.0014451   -0.0054845
o    -1.2363574    2.1734006    0.5213502  0.00   -0.0036357   -0.0073474   -0.0102004
o    -2.6561860    3.8492251   -0.4741917  0.00   -0.0283989   -0.0204894   -0.0388195
h    -1.9596532    4.4878100   -0.0595165  0.00    0.0124030    0.0257115    0.0273468
    13
 Energy =       0.0610651486
c    -3.7190316    1.6790238    0.2996457  0.00   -0.0106429    0.0096741    0.0044652
c    -2.5178780    2.6202473    0.1719201  0.00    0.0146411    0.0011251    0.0123042
c    -5.0530422    2.3861020   -0.0246306  0.00    0.0017232    0.0018437    0.0007972
h    -5.1815190    3.2874145    0.6225318  0.00   -0.0003581    0.0047895    0.0029473
h    -5.9148268    1.7008060    0.1443236  0.00   -0.0036039   -0.0015248    0.0011023
h    -5.0493745    2.7281293   -1.0889543  0.00    0.0004074    0.0009187   -0.0048480
n    -3.5456057    0.4767211   -0.5551981  0.00    0.0134513   -0.0077459   -0.0075780
h    -3.7364589    1.3822806    1.3790021  0.00    0.0001292   -0.0003887    0.0044102
h    -3.5611300   -0.3815188    0.0505780  0.00   -0.0009210   -0.0039352    0.0047564
h    -4.3222109    0.3632678   -1.2579640  0.00   -0.0085054   -0.0021639   -0.0065590
o    -1.2740322    2.2521815    0.6801033  0.00    0.0052627   -0.0066605   -0.0040113
o    -2.6747550    3.8688202   -0.4345447  0.00   -0.0232209   -0.0166264   -0.0286989
h    -1.9386315    4.4923710   -0.0795289  0.00    0.0116373    0.0206942    0.0209125
    13
 Energy =       0.0585380980
c    -3.7262818    1.6741787    0.2974808  0.00   -0.0068421    0.0064050    0.0023279
c    -2.5450861    2.6436428    0.2322410  0.00    0.0032776    0.0019197    0.0031737
c    -5.0679568    2.3617680   -0.0286636  0.00    0.0015947    0.0007728    0.0004369
h    -5.2304827    3.2335206    0.6482614  0.00   -0.0002669    0.0034903    0.0022273
h    -5.9152510    1.6503118    0.0958492  0.00   -0.0027916   -0.0015803    0.0008402
h    -5.0509574    2.7436220   -1.0776985  0.00    0.0003590    0.0006418   -0.0033074
n    -3.5098878    0.5112960   -0.5961356  0.00    0.0071057   -0.0045221   -0.0061194
h    -3.7619554    1.3363278    1.3632900  0.00   -0.0002073   -0.0001887    0.0033107
h    -3.5044493   -0.3700537   -0.0256072  0.00   -0.0005729   -0.0035138    0.0031771
h    -4.2699315    0.4019342   -1.3130589  0.00   -0.0044320   -0.0015148   -0.0034597
o    -1.3310202    2.3155059    0.8388564  0.00    0.0092370   -0.0048503    0.0011951
o    -2.6831395    3.8806150   -0.3982708  0.00   -0.0182654   -0.0128306   -0.0167877
h    -1.8920967    4.4731773   -0.1292602  0.00    0.0118041    0.0157710    0.0129853
    13
 Energy =       0.0569759685
c    -3.7322440    1.6694982    0.2988049  0.00   -0.0028899    0.0038979    0.0003099
c    -2.5716125    2.6603083    0.2841797  0.00   -0.0041320   -0.0009098   -0.0010039
c    -5.0836330    2.3488863    0.0037780  0.00    0.0011027   -0.0003534    0.0004285
h    -5.2680459    3.1755120    0.7278969  0.00   -0.0003303    0.0023437    0.0015505
h    -5.9151477    1.6143678    0.0809188  0.00   -0.0013064   -0.0013040    0.0004784
h    -5.0688536    2.7898927   -1.0211238  0.00    0.0002454    0.0007566   -0.0022816
n    -3.4925344    0.5627696   -0.6535083  0.00    0.0021106    0.0001528   -0.0057217
h    -3.7662625    1.2740556    1.3439746  0.00   -0.0003136   -0.0003684    0.0023251
h    -3.4229256   -0.3451954   -0.1289239  0.00    0.0001486   -0.0053250    0.0032601
h    -4.2656608    0.4527553   -1.3523674  0.00   -0.0010127   -0.0000264   -0.0008077
o    -1.4035252    2.3784634    0.9976096  0.00    0.0094597   -0.0043962    0.0050340
o    -2.6694737    3.8613313   -0.4209463  0.00   -0.0124700   -0.0047452   -0.0076563
h    -1.8285774    4.4132013   -0.2530088  0.00    0.0093879    0.0102775    0.0040847
    13
 Energy =       0.0564442932
c    -3.7241925    1.6618806    0.2958717  0.00    0.0014843    0.0016396    0.0009674
c    -2.5788898    2.6659988    0.2886792  0.00   -0.0016446   -0.0029766    0.0014072
c    -5.0940884    2.3437198    0.0972806  0.00   -0.0022518   -0.0006963    0.0009658
h    -5.2655370    3.1109675    0.8866501  0.00   -0.0008737    0.0019704    0.0017118
h    -5.9118712    1.5944522    0.1478067  0.00    0.0002549   -0.0000704    0.0001684
h    -5.1219645    2.8573842   -0.8939031  0.00   -0.0002448    0.0014553   -0.0027028
n    -3.5111008    0.6209221   -0.7324786  0.00    0.0025807   -0.0005357   -0.0036301
h    -3.7106049    1.2014953    1.3151736  0.00    0.0001093   -0.0009098    0.0024855
h    -3.3929946   -0.3128591   -0.2690838  0.00    0.0004741   -0.0025733    0.0018673
h    -4.3157950    0.5345874   -1.3987060  0.00   -0.0011129   -0.0000816   -0.0014601
o    -1.4535614    2.4398926    1.0773242  0.00    0.0017454   -0.0019133    0.0015129
o    -2.6370698    3.8126726   -0.5044670  0.00   -0.0003245    0.0041106   -0.0025723
h    -1.7708263    4.3247325   -0.4028635  0.00   -0.0001964    0.0005810   -0.0007209
    13
 Energy =       0.0563634448
c    -3.7214922    1.6584111    0.2914148  0.00   -0.0003738   -0.0000941   -0.0002860
c    -2.5825918    2.6705245    0.2928957  0.00   -0.0012552    0.0003332   -0.0010012
c    -5.0928884    2.3351292    0.1141093  0.00    0.0003804    0.0001280   -0.0001284
h    -5.2609321    3.0845435    0.9172719  0.00    0.0001116   -0.0001846   -0.0002309
h    -5.9082829    1.5822982    0.1551722  0.00   -0.0000744   -0.0000362   -0.0000115
h    -5.1283958    2.8652888   -0.8645682  0.00    0.0000721   -0.0002287    0.0003085
n    -3.5128410    0.6377267   -0.7542555  0.00   -0.0003312    0.0000686    0.0003301
h    -3.6993019    1.1813611    1.2999685  0.00   -0.0000857    0.0001293   -0.0002630
h    -3.3886219   -0.3026707   -0.3108193  0.00   -0.0000677    0.0002040   -0.0001484
h    -4.3209573    0.5590278   -1.4154636  0.00    0.0001862   -0.0000288    0.0002140
o    -1.4885745    2.4862494    1.1353238  0.00    0.0023051   -0.0006837    0.0018345
o    -2.6199019    3.7867340   -0.5391155  0.00   -0.0015213    0.0003311   -0.0010545
h    -1.7637144    4.3112228   -0.4146499  0.00    0.0006540    0.0000621    0.0004367
    13
 Energy =       0.0563579433
c    -3.7262151    1.6649532    0.3007842  0.00   -0.0001731    0.0001158    0.0001776
c    -2.5785495    2.6669984    0.2834557  0.00   -0.0004931   -0.0003881    0.0000588
c    -5.0912936    2.3506341    0.1064740  0.00    0.0001000    0.0000487    0.0000665
h    -5.2548959    3.1176183    0.8944411  0.00   -0.0000409    0.0001393    0.0000998
h    -5.9134006    1.6058617    0.1605828  0.00   -0.0001039   -0.0001240    0.0000309
h    -5.1197288    2.8615527   -0.8831842  0.00    0.0000400    0.0000603   -0.0001367
n    -3.5242729    0.6208131   -0.7235735  0.00    0.0000337   -0.0000535   -0.0004432
h    -3.7103949    1.2083751    1.3193857  0.00   -0.0000653   -0.0000690    0.0001782
h    -3.4073005   -0.3113034   -0.2603080  0.00    0.0000272   -0.0003282    0.0001200
h    -4.3325073    0.5345036   -1.3838975  0.00    0.0000547   -0.0000843   -0.0000131
o    -1.4953370    2.4982694    1.1413309  0.00    0.0009114   -0.0004982    0.0008731
o    -2.5971915    3.7586692   -0.5818004  0.00   -0.0005497    0.0010476   -0.0010864
h    -1.7374085    4.2789008   -0.4664066  0.00    0.0002591    0.0001336    0.0000745
    13
 Energy =       0.0563543377
c    -3.7238683    1.6625634    0.2977235  0.00    0.0000909    0.0000888    0.0000789
c    -2.5756341    2.6634322    0.2775464  0.00    0.0000445    0.0000226    0.0000011
c    -5.0900492    2.3522257    0.1256897  0.00   -0.0001379   -0.0000204    0.0000075
h    -5.2439996    3.1106162    0.9237708  0.00   -0.0000286    0.0000725    0.0000820
h    -5.9125569    1.6082022    0.1807006  0.00    0.0000032    0.0000150   -0.0000023
h    -5.1287381    2.8736629   -0.8580977  0.00   -0.0000241    0.0000469   -0.0000967
n    -3.5348696    0.6290901   -0.7396146  0.00    0.0001790   -0.0000551   -0.0001286
h    -3.6971810    1.1954016    1.3112288  0.00    0.0000200   -0.0000234    0.0001077
h    -3.4110489   -0.3073842   -0.2873595  0.00    0.0000281   -0.0000964    0.0000725
h    -4.3519335    0.5489591   -1.3899690  0.00   -0.0001354    0.0000003   -0.0001227
o    -1.4957790    2.5005716    1.1395299  0.00   -0.0000613    0.0000225   -0.0000670
o    -2.5912400    3.7490448   -0.5938408  0.00    0.0000453   -0.0000624    0.0000758
h    -1.7315981    4.2694608   -0.4800240  0.00   -0.0000237   -0.0000109   -0.0000083
    13
 Energy =       0.0563542616
c    -3.7238909    1.6625456    0.2976944  0.00   -0.0000000    0.0000000   -0.0000000
c    -2.5756784    2.6634694    0.2775497  0.00   -0.0000001   -0.0000000   -0.0000001
c    -5.0899319    2.3521335    0.1257635  0.00    0.0000000   -0.0000000    0.0000000
h    -5.2438074    3.1104229    0.9238108  0.00    0.0000000   -0.0000000    0.0000000
h    -5.9124514    1.6080996    0.1807526  0.00    0.0000000   -0.0000000    0.0000000
h    -5.1285786    2.8736149   -0.8578914  0.00    0.0000000   -0.0000000    0.0000000
n    -3.5349838    0.6292085   -0.7396210  0.00   -0.0000000    0.0000000   -0.0000000
h    -3.6972326    1.1953097    1.3110589  0.00   -0.0000000   -0.0000000   -0.0000000
h    -3.4112516   -0.3072813   -0.2875354  0.00    0.0000000   -0.0000000    0.0000000
h    -4.3519569    0.5491014   -1.3899243  0.00   -0.0000000    0.0000000    0.0000000
o    -1.4960782    2.5009357    1.1399971  0.00    0.0000002   -0.0000000    0.0000002
o    -2.5911115    3.7488791   -0.5941817  0.00   -0.0000001    0.0000000   -0.0000001
h    -1.7315429    4.2694077   -0.4801891  0.00    0.0000000    0.0000000    0.0000000
    13
 Energy =       0.0563542616
c    -3.7238910    1.6625458    0.2976945  0.00   -0.0000000    0.0000000   -0.0000000
c    -2.5756780    2.6634690    0.2775491  0.00   -0.0000000   -0.0000000   -0.0000000
c    -5.0899318    2.3521337    0.1257621  0.00   -0.0000000    0.0000000    0.0000000
h    -5.2438075    3.1104242    0.9238084  0.00   -0.0000000    0.0000000    0.0000000
h    -5.9124515    1.6081001    0.1807517  0.00   -0.0000000   -0.0000000    0.0000000
h    -5.1285779    2.8736140   -0.8578934  0.00   -0.0000000    0.0000000   -0.0000000
n    -3.5349837    0.6292072   -0.7396195  0.00    0.0000000    0.0000000   -0.0000000
h    -3.6972332    1.1953111    1.3110597  0.00   -0.0000000   -0.0000000    0.0000000
h    -3.4112525   -0.3072821   -0.2875326  0.00    0.0000000   -0.0000000    0.0000000
h    -4.3519563    0.5490999   -1.3899234  0.00   -0.0000000    0.0000000   -0.0000000
o    -1.4960735    2.5009300    1.1399900  0.00    0.0000000   -0.0000000    0.0000000
o    -2.5911145    3.7488831   -0.5941767  0.00   -0.0000000    0.0000000   -0.0000000
h    -1.7315449    4.2694103   -0.4801859  0.00    0.0000000    0.0000000    0.0000000
