    13
 Energy =       0.1017672866
c    -3.7133889    1.6950595    0.3173519  0.00   -0.0750139    0.0225227    0.1000204
c    -2.4962693    2.6345192    0.2419999  0.00    0.2274866    0.1175179   -0.3223235
c    -4.9565486    2.3924193   -0.2155699  0.00    0.0134561   -0.0022614    0.0119278
h    -4.7854386    2.7464192   -1.2386596  0.00   -0.0044087   -0.0053511    0.0170821
h    -5.2149185    3.2645991    0.3947669  0.00    0.0016317   -0.0131864   -0.0131367
h    -5.8205083    1.7195795   -0.2420919  0.00    0.0121763    0.0116038   -0.0059078
n    -3.4097890    0.4519539   -0.4549189  0.00    0.0442844   -0.0366545   -0.0531693
h    -3.8575589    1.4177196    1.3669296  0.00    0.0038806    0.0000996   -0.0243792
h    -4.2340588    0.2238779   -1.0206697  0.00    0.0217223    0.0306159    0.0217446
h    -2.6878492    0.6694128   -1.1486897  0.00   -0.0280320    0.0111909    0.0376721
o    -1.9513094    3.0041591   -0.7839488  0.00   -0.1408311   -0.0897121    0.2465844
o    -2.1005994    3.0267291    1.4825496  0.00   -0.0364578   -0.0326538   -0.0076784
h    -1.1397697    2.7938992    1.5347396  0.00   -0.0398945   -0.0137316   -0.0084367
    13
 Energy =       0.0788339705
c    -3.6811609    1.6927394    0.2841634  0.00   -0.0305658    0.0095506    0.0395347
c    -2.5198708    2.6875434    0.2591286  0.00    0.1018040    0.0415039   -0.1351399
c    -4.9876704    2.3572044   -0.1706349  0.00    0.0050914   -0.0003680    0.0053540
h    -4.8763119    2.7776732   -1.1914432  0.00   -0.0016271    0.0000711    0.0039532
h    -5.2640191    3.1856783    0.5123669  0.00   -0.0011500   -0.0034579   -0.0030998
h    -5.8190001    1.6270909   -0.1760586  0.00    0.0036871    0.0031787   -0.0016752
n    -3.3755513    0.4911624   -0.5392993  0.00    0.0186871   -0.0183701   -0.0210476
h    -3.7816453    1.3719174    1.3408795  0.00    0.0022758   -0.0005852   -0.0083846
h    -4.1883899    0.2421730   -1.1362057  0.00    0.0093066    0.0123401    0.0072881
h    -2.6166610    0.7130142   -1.2156234  0.00   -0.0101167    0.0059804    0.0156812
o    -1.9524626    3.0810374   -0.8618344  0.00   -0.0594554   -0.0386699    0.1039784
o    -2.0995601    3.1779674    1.4725895  0.00   -0.1010806    0.0518161   -0.0090924
h    -1.2057033    2.6351461    1.6557607  0.00    0.0631434   -0.0629897    0.0026500
    13
 Energy =       0.0759914760
c    -3.7180031    1.7158512    0.3053669  0.00   -0.0267789    0.0087780    0.0348327
c    -2.5181626    2.6634397    0.2925990  0.00    0.0920618    0.0362369   -0.1232710
c    -4.9731462    2.4096750   -0.2560021  0.00    0.0019919   -0.0003656    0.0060578
h    -4.7937976    2.7500137   -1.3027181  0.00   -0.0003158    0.0019857   -0.0016228
h    -5.2410673    3.3019255    0.3536138  0.00   -0.0030448    0.0006310   -0.0006937
h    -5.8391072    1.7182224   -0.2465197  0.00    0.0022033    0.0019045   -0.0007709
n    -3.4151975    0.4665321   -0.4474766  0.00    0.0159506   -0.0203049   -0.0162280
h    -3.8900742    1.4513033    1.3731148  0.00    0.0008859   -0.0020125   -0.0037479
h    -4.2077954    0.2129951   -1.0717597  0.00    0.0077775    0.0104869    0.0056548
h    -2.6082783    0.6241459   -1.0925966  0.00   -0.0044251    0.0058834    0.0101236
o    -1.9720286    3.0853776   -0.8377844  0.00   -0.0540705   -0.0348126    0.0919843
o    -2.0424458    3.0942455    1.5114482  0.00   -0.0901147    0.0489433   -0.0051387
h    -1.1489030    2.5466207    1.6525037  0.00    0.0578789   -0.0573540    0.0028196
    13
 Energy =       0.0723681350
c    -3.7270325    1.7324151    0.3188530  0.00   -0.0185388    0.0096613    0.0298955
c    -2.5753212    2.7373357    0.3177237  0.00    0.0675739    0.0273602   -0.0864281
c    -4.9892784    2.3320484   -0.3416498  0.00   -0.0020396   -0.0004018    0.0019656
h    -4.7802829    2.6098103   -1.4029962  0.00   -0.0006750    0.0019450   -0.0037532
h    -5.3201174    3.2533309    0.1977820  0.00   -0.0035740    0.0044333    0.0017413
h    -5.8246646    1.6011213   -0.3213377  0.00    0.0005565    0.0004758   -0.0010113
n    -3.3350024    0.4555599   -0.3490194  0.00    0.0152652   -0.0195446   -0.0072647
h    -3.9403446    1.5219011    1.3941763  0.00    0.0009019   -0.0012193   -0.0001886
h    -4.0704451    0.1367266   -1.0224983  0.00    0.0007019    0.0043321   -0.0016664
h    -2.4736408    0.5919718   -0.9338435  0.00    0.0015045    0.0026225    0.0029980
o    -2.0374541    3.1866104   -0.8277820  0.00   -0.0387531   -0.0241318    0.0653568
o    -2.1029808    3.1868900    1.5339912  0.00   -0.0658439    0.0375896   -0.0042089
h    -1.1914421    2.6946259    1.6703896  0.00    0.0429203   -0.0431223    0.0025640
    13
 Energy =       0.0695666188
c    -3.7407122    1.7216381    0.3169407  0.00   -0.0112248    0.0091173    0.0187731
c    -2.5535488    2.6835280    0.3140346  0.00    0.0422479    0.0116192   -0.0532107
c    -5.0049021    2.3834891   -0.2792133  0.00   -0.0027515    0.0002802   -0.0001456
h    -4.8259047    2.6747959   -1.3415555  0.00   -0.0004069    0.0011306   -0.0030289
h    -5.2769353    3.3046813    0.2921170  0.00   -0.0029430    0.0045058    0.0021921
h    -5.8664146    1.6823863   -0.2398137  0.00   -0.0006050   -0.0000850   -0.0007787
n    -3.4278243    0.4478456   -0.3953564  0.00    0.0111990   -0.0174636    0.0086976
h    -3.9258134    1.4907822    1.3940563  0.00    0.0006166   -0.0006420    0.0006127
h    -4.1376712    0.2402503   -1.1506226  0.00   -0.0111382   -0.0004886   -0.0117820
h    -2.5016482    0.5227371   -0.8988173  0.00    0.0119383    0.0050232   -0.0023323
o    -2.0917507    3.2180144   -0.8534562  0.00   -0.0256971   -0.0123108    0.0326270
o    -1.9821924    3.0473525    1.5250387  0.00   -0.0509040    0.0347541    0.0050928
h    -1.0326890    2.6228469    1.5504367  0.00    0.0396684   -0.0354405    0.0032829
    13
 Energy =       0.0694345908
c    -3.7251344    1.7126111    0.3175848  0.00   -0.0089212    0.0066818    0.0160187
c    -2.5732375    2.7167503    0.2993216  0.00    0.0323801    0.0042811   -0.0357843
c    -5.0268071    2.3359799   -0.2389220  0.00   -0.0030439    0.0013341    0.0000953
h    -4.8861061    2.6397005   -1.3037576  0.00   -0.0001840    0.0012437   -0.0031491
h    -5.3110854    3.2449341    0.3443181  0.00   -0.0025482    0.0038265    0.0017516
h    -5.8640758    1.6063750   -0.1792817  0.00   -0.0012022   -0.0005651   -0.0004583
n    -3.3896189    0.4577785   -0.4142581  0.00    0.0091689   -0.0147392    0.0070830
h    -3.8767905    1.4641808    1.3966470  0.00    0.0002869   -0.0009011    0.0010894
h    -4.0923908    0.2485362   -1.1732168  0.00   -0.0088236   -0.0006298   -0.0095574
h    -2.4643194    0.5526484   -0.9131448  0.00    0.0098744    0.0040626   -0.0020805
o    -2.2083483    3.3472660   -0.8686693  0.00   -0.0180653   -0.0040743    0.0160732
o    -1.9545703    3.0517820    1.4960075  0.00   -0.0432562    0.0293490    0.0059868
h    -0.9955224    2.6618047    1.4711600  0.00    0.0343345   -0.0298692    0.0029316
    13
 Energy =       0.0707252749
c    -3.7085715    1.7049488    0.3111868  0.00   -0.0089368    0.0059100    0.0162927
c    -2.6050520    2.7641072    0.3086747  0.00    0.0284006    0.0004295   -0.0264713
c    -5.0413323    2.2777306   -0.2279546  0.00   -0.0032490    0.0022008    0.0000522
h    -4.9215777    2.6001716   -1.2899251  0.00   -0.0000316    0.0013581   -0.0031723
h    -5.3593036    3.1681170    0.3671075  0.00   -0.0026707    0.0041262    0.0018337
h    -5.8465426    1.5113812   -0.1702937  0.00   -0.0019412   -0.0012618   -0.0002379
n    -3.3198779    0.4790275   -0.4439125  0.00    0.0079414   -0.0156875    0.0063620
h    -3.8453453    1.4302756    1.3862127  0.00   -0.0000378   -0.0011306    0.0013376
h    -4.0131392    0.2538786   -1.2063075  0.00   -0.0080631   -0.0008375   -0.0088771
h    -2.3985600    0.6201809   -0.9400662  0.00    0.0104688    0.0037281   -0.0027469
o    -2.3186085    3.4867620   -0.8360268  0.00   -0.0137266    0.0017791    0.0069147
o    -1.9697847    3.0749369    1.5033438  0.00   -0.0394351    0.0261740    0.0061327
h    -1.0203115    2.6688296    1.4717498  0.00    0.0312811   -0.0267884    0.0025800
    13
 Energy =       0.0724195430
c    -3.6890742    1.7048685    0.3072798  0.00   -0.0088517    0.0050010    0.0165992
c    -2.6393288    2.8194307    0.3118867  0.00    0.0258868   -0.0021795   -0.0196818
c    -5.0504540    2.2167775   -0.2243351  0.00   -0.0036287    0.0029548   -0.0002635
h    -4.9508752    2.5448150   -1.2865905  0.00   -0.0000200    0.0014118   -0.0030475
h    -5.4038702    3.0934257    0.3716637  0.00   -0.0027284    0.0043375    0.0018715
h    -5.8212314    1.4149565   -0.1619394  0.00   -0.0026013   -0.0019563   -0.0001120
n    -3.2438742    0.5040528   -0.4574498  0.00    0.0069573   -0.0167020    0.0065980
h    -3.8112820    1.4159020    1.3803404  0.00   -0.0001841   -0.0012929    0.0013432
h    -3.9365484    0.2416197   -1.2084308  0.00   -0.0082726   -0.0010048   -0.0087452
h    -2.3388982    0.6968932   -0.9678580  0.00    0.0117235    0.0037903   -0.0035387
o    -2.4342902    3.6094084   -0.8118338  0.00   -0.0105762    0.0061824    0.0006642
o    -1.9850773    3.1224218    1.4983732  0.00   -0.0394859    0.0249798    0.0065476
h    -1.0632025    2.6557756    1.4826825  0.00    0.0317813   -0.0255221    0.0017649
    13
 Energy =       0.0731268548
c    -3.6764201    1.7080685    0.3060373  0.00   -0.0081235    0.0042281    0.0156663
c    -2.6627867    2.8559867    0.3075423  0.00    0.0237765   -0.0026093   -0.0168151
c    -5.0554358    2.1777596   -0.2190226  0.00   -0.0036062    0.0031031   -0.0003870
h    -4.9715357    2.5057296   -1.2824840  0.00   -0.0000313    0.0013682   -0.0028518
h    -5.4302804    3.0458534    0.3760470  0.00   -0.0025787    0.0041435    0.0017559
h    -5.8024091    1.3540169   -0.1497699  0.00   -0.0027114   -0.0021339   -0.0000582
n    -3.1989697    0.5217192   -0.4606349  0.00    0.0063390   -0.0158330    0.0061724
h    -3.7858004    1.4153416    1.3793585  0.00   -0.0001866   -0.0012978    0.0012693
h    -3.8870065    0.2376427   -1.2073850  0.00   -0.0077528   -0.0010250   -0.0081397
h    -2.3030595    0.7406895   -0.9757195  0.00    0.0111395    0.0035143   -0.0034453
o    -2.5091596    3.6722259   -0.8073464  0.00   -0.0090834    0.0069478   -0.0010635
o    -1.9897520    3.1610277    1.4830241  0.00   -0.0383883    0.0239484    0.0067448
h    -1.0953912    2.6442864    1.4841421  0.00    0.0312073   -0.0243545    0.0011519
    13
 Energy =       0.0732773031
c    -3.6683788    1.7108066    0.3059843  0.00   -0.0072962    0.0036029    0.0143425
c    -2.6788392    2.8793399    0.2992009  0.00    0.0216476   -0.0024722   -0.0150574
c    -5.0601241    2.1514846   -0.2093050  0.00   -0.0034265    0.0030298   -0.0003949
h    -4.9907673    2.4792906   -1.2736942  0.00   -0.0000299    0.0012978   -0.0026595
h    -5.4473412    3.0128956    0.3868818  0.00   -0.0023779    0.0038233    0.0015980
h    -5.7898713    1.3131275   -0.1330692  0.00   -0.0026288   -0.0021115   -0.0000219
n    -3.1741866    0.5330247   -0.4617576  0.00    0.0057608   -0.0144557    0.0056018
h    -3.7646369    1.4179237    1.3804244  0.00   -0.0001726   -0.0012553    0.0012095
h    -3.8550811    0.2425132   -1.2117723  0.00   -0.0070102   -0.0009865   -0.0073968
h    -2.2792853    0.7627158   -0.9725993  0.00    0.0101285    0.0031521   -0.0031650
o    -2.5566006    3.7024655   -0.8148466  0.00   -0.0080692    0.0066705   -0.0014812
o    -1.9889177    3.1902813    1.4633246  0.00   -0.0355702    0.0221851    0.0066125
h    -1.1139766    2.6444785    1.4750171  0.00    0.0290448   -0.0224802    0.0008125
    13
 Energy =       0.0729726844
c    -3.6400800    1.7217303    0.3067111  0.00   -0.0021829   -0.0015622    0.0091263
c    -2.7393782    2.9616405    0.2580260  0.00    0.0129616   -0.0015586   -0.0088638
c    -5.0804933    2.0548080   -0.1568213  0.00   -0.0046480    0.0047936   -0.0004128
h    -5.0754474    2.3844136   -1.2234875  0.00   -0.0000752    0.0017688   -0.0030609
h    -5.5080908    2.8870856    0.4509791  0.00   -0.0020728    0.0029754    0.0009354
h    -5.7428371    1.1625310   -0.0514194  0.00   -0.0038389   -0.0039677    0.0006317
n    -3.0964118    0.5752840   -0.4688415  0.00    0.0035184   -0.0086073    0.0039940
h    -3.6765243    1.4309591    1.3862207  0.00   -0.0000453   -0.0020183    0.0020430
h    -3.7435646    0.2819337   -1.2442326  0.00   -0.0036111   -0.0017108   -0.0047957
h    -2.1941600    0.8313396   -0.9479739  0.00    0.0060387    0.0013076   -0.0025024
o    -2.7153537    3.7814056   -0.8679009  0.00   -0.0033196    0.0070829   -0.0058581
o    -1.9786945    3.3039602    1.3709470  0.00   -0.0267717    0.0201878    0.0110940
h    -1.1769709    2.6632564    1.4215820  0.00    0.0240467   -0.0186911   -0.0023307
    13
 Energy =       0.0721512716
c    -3.6524631    1.7185825    0.3077352  0.00    0.0001905    0.0003096    0.0011554
c    -2.7216636    2.9254304    0.2482031  0.00   -0.0027218   -0.0113510    0.0174546
c    -5.0864762    2.0881117   -0.1172011  0.00   -0.0007837   -0.0003952   -0.0003775
h    -5.0979921    2.4332838   -1.1758650  0.00   -0.0000441   -0.0000182   -0.0002757
h    -5.4831659    2.9115967    0.5180784  0.00   -0.0003559    0.0005413    0.0003290
h    -5.7583951    1.2088633   -0.0153308  0.00    0.0000717   -0.0000979   -0.0000624
n    -3.1634970    0.5671721   -0.4890986  0.00    0.0013230   -0.0014321    0.0008341
h    -3.6694223    1.4235695    1.3844723  0.00    0.0000900    0.0001548    0.0001858
h    -3.8137917    0.3245309   -1.2760992  0.00   -0.0014355   -0.0008191   -0.0013377
h    -2.2476000    0.7873438   -0.9534770  0.00    0.0010404    0.0008333   -0.0003617
o    -2.5566006    3.6400137   -0.9442920  0.00    0.0020934    0.0118536   -0.0174385
o    -1.9791000    3.2879829    1.3622903  0.00   -0.0026367    0.0064263   -0.0012160
h    -1.1378392    2.7238664    1.3843733  0.00    0.0031686   -0.0060054    0.0011108
    13
 Energy =       0.0721586417
c    -3.6502320    1.7176521    0.3059636  0.00    0.0001622    0.0002825    0.0010410
c    -2.7229607    2.9273299    0.2486237  0.00   -0.0024565   -0.0102156    0.0157010
c    -5.0856689    2.0846678   -0.1160846  0.00   -0.0007064   -0.0003536   -0.0003373
h    -5.0994220    2.4326360   -1.1737924  0.00   -0.0000389   -0.0000136   -0.0002542
h    -5.4834994    2.9054696    0.5218558  0.00   -0.0003243    0.0004928    0.0002995
h    -5.7553461    1.2035487   -0.0155984  0.00    0.0000618   -0.0000923   -0.0000545
n    -3.1592186    0.5699163   -0.4947235  0.00    0.0011835   -0.0013084    0.0007574
h    -3.6652161    1.4194266    1.3818200  0.00    0.0000790    0.0001358    0.0001741
h    -3.8108381    0.3264220   -1.2802032  0.00   -0.0012950   -0.0007371   -0.0012073
h    -2.2456984    0.7945824   -0.9615396  0.00    0.0009591    0.0007522   -0.0003386
o    -2.5591243    3.6427621   -0.9421042  0.00    0.0018891    0.0106697   -0.0156957
o    -1.9840582    3.2924686    1.3643374  0.00   -0.0024485    0.0058478   -0.0010805
h    -1.1467240    2.7234655    1.3952344  0.00    0.0029349   -0.0054602    0.0009951
    13
 Energy =       0.0721627823
c    -3.6481744    1.7167527    0.3043270  0.00    0.0001385    0.0002579    0.0009377
c    -2.7240355    2.9289251    0.2489641  0.00   -0.0022169   -0.0091940    0.0141238
c    -5.0849225    2.0816062   -0.1148933  0.00   -0.0006368   -0.0003167   -0.0003014
h    -5.1008197    2.4322051   -1.1716890  0.00   -0.0000344   -0.0000098   -0.0002342
h    -5.4836502    2.8999256    0.5255865  0.00   -0.0002953    0.0004483    0.0002726
h    -5.7526039    1.1988293   -0.0156726  0.00    0.0000535   -0.0000864   -0.0000476
n    -3.1554969    0.5723988   -0.5000062  0.00    0.0010594   -0.0011938    0.0006874
h    -3.6612395    1.4155307    1.3793500  0.00    0.0000694    0.0001191    0.0001629
h    -3.8084131    0.3282332   -1.2840540  0.00   -0.0011681   -0.0006633   -0.0010895
h    -2.2441894    0.8011152   -0.9690931  0.00    0.0008821    0.0006789   -0.0003157
o    -2.5612640    3.6451065   -0.9401738  0.00    0.0017042    0.0096039   -0.0141270
o    -1.9885267    3.2964196    1.3661784  0.00   -0.0022618    0.0053136   -0.0009615
h    -1.1546711    2.7232997    1.4049649  0.00    0.0027061   -0.0049576    0.0008926
    13
 Energy =       0.0721648029
c    -3.6462719    1.7158840    0.3028107  0.00    0.0001184    0.0002354    0.0008445
c    -2.7249236    2.9302648    0.2492368  0.00   -0.0020006   -0.0082746    0.0127053
c    -5.0842330    2.0788744   -0.1136445  0.00   -0.0005741   -0.0002839   -0.0002693
h    -5.1021874    2.4319546   -1.1695684  0.00   -0.0000304   -0.0000066   -0.0002157
h    -5.4836537    2.8948894    0.5292619  0.00   -0.0002688    0.0004076    0.0002479
h    -5.7501310    1.1946214   -0.0155847  0.00    0.0000465   -0.0000805   -0.0000416
n    -3.1522532    0.5746531   -0.5049799  0.00    0.0009491   -0.0010880    0.0006236
h    -3.6574737    1.4118591    1.3770431  0.00    0.0000612    0.0001045    0.0001521
h    -3.8064350    0.3299740   -1.2876800  0.00   -0.0010535   -0.0005970   -0.0009833
h    -2.2430077    0.8070330   -0.9761849  0.00    0.0008096    0.0006125   -0.0002935
o    -2.5630701    3.6471060   -0.9384711  0.00    0.0015369    0.0086444   -0.0127148
o    -1.9925707    3.2999156    1.3678404  0.00   -0.0020805    0.0048224   -0.0008567
h    -1.1617959    2.7233182    1.4137094  0.00    0.0024863   -0.0044962    0.0008014
    13
 Energy =       0.0721626887
c    -3.6251239    1.7058387    0.2859143  0.00   -0.0007619    0.0003579   -0.0000838
c    -2.7337013    2.9437688    0.2518229  0.00   -0.0002536    0.0015939   -0.0033187
c    -5.0765969    2.0495218   -0.0981750  0.00   -0.0000235    0.0001722    0.0003193
h    -5.1182261    2.4307213   -1.1440968  0.00    0.0000456    0.0003030   -0.0005909
h    -5.4822888    2.8398069    0.5725563  0.00   -0.0003293    0.0004207    0.0003041
h    -5.7233022    1.1494360   -0.0129316  0.00   -0.0001934   -0.0003158    0.0001534
n    -3.1182653    0.5992964   -0.5612483  0.00   -0.0006184   -0.0014719    0.0004691
h    -3.6146530    1.3702938    1.3511402  0.00   -0.0001553   -0.0003833    0.0006749
h    -3.7872178    0.3500734   -1.3287259  0.00   -0.0000620    0.0000993   -0.0001423
h    -2.2320874    0.8715707   -1.0561758  0.00    0.0017000    0.0001423   -0.0011407
o    -2.5812839    3.6675710   -0.9204526  0.00    0.0000307   -0.0016003    0.0024914
o    -2.0366456    3.3371882    1.3858992  0.00   -0.0044424    0.0039678    0.0006977
h    -1.2386146    2.7252607    1.5082622  0.00    0.0050635   -0.0032859    0.0001663
    13
 Energy =       0.0721537510
c    -3.6299396    1.7044185    0.2845938  0.00    0.0000048   -0.0000921    0.0001375
c    -2.7213424    2.9294059    0.2557933  0.00   -0.0001027   -0.0000999    0.0002249
c    -5.0746680    2.0678875   -0.1054261  0.00   -0.0000827    0.0000922   -0.0000107
h    -5.1067782    2.4513427   -1.1502437  0.00   -0.0000171    0.0000302   -0.0000415
h    -5.4723885    2.8616916    0.5650480  0.00   -0.0000282    0.0000299    0.0000105
h    -5.7335973    1.1765232   -0.0253474  0.00   -0.0000687   -0.0000985    0.0000134
n    -3.1355417    0.5922794   -0.5612969  0.00    0.0000097   -0.0001712    0.0001444
h    -3.6279872    1.3679978    1.3489145  0.00    0.0000129   -0.0000415    0.0000266
h    -3.8026931    0.3549843   -1.3341414  0.00   -0.0001141   -0.0000278   -0.0000903
h    -2.2424207    0.8518788   -1.0482846  0.00    0.0001841    0.0000900   -0.0000957
o    -2.5398087    3.6436435   -0.9205963  0.00    0.0001422    0.0002958   -0.0005157
o    -2.0394405    3.3216446    1.3986729  0.00    0.0000493    0.0000639    0.0002257
h    -1.2414008    2.7166496    1.5261028  0.00    0.0000106   -0.0000709   -0.0000292
    13
 Energy =       0.0721534724
c    -3.6305951    1.7049465    0.2851232  0.00    0.0000001    0.0000013   -0.0000001
c    -2.7213770    2.9292706    0.2561908  0.00   -0.0000009   -0.0000004    0.0000001
c    -5.0744764    2.0687405   -0.1071686  0.00   -0.0000011   -0.0000001    0.0000010
h    -5.1049965    2.4507465   -1.1525202  0.00   -0.0000001    0.0000010   -0.0000021
h    -5.4724890    2.8636947    0.5617152  0.00   -0.0000010    0.0000012    0.0000011
h    -5.7340347    1.1780167   -0.0267228  0.00   -0.0000001   -0.0000005    0.0000003
n    -3.1357598    0.5916550   -0.5588777  0.00    0.0000019   -0.0000019   -0.0000000
h    -3.6302281    1.3698183    1.3498235  0.00   -0.0000000   -0.0000008    0.0000019
h    -3.8023158    0.3531703   -1.3317578  0.00   -0.0000004   -0.0000006   -0.0000015
h    -2.2423601    0.8503083   -1.0455642  0.00    0.0000005    0.0000002   -0.0000007
o    -2.5413524    3.6443061   -0.9195392  0.00    0.0000002   -0.0000001   -0.0000021
o    -2.0379580    3.3205188    1.3983680  0.00   -0.0000001    0.0000013    0.0000020
h    -1.2400639    2.7151554    1.5247187  0.00    0.0000010   -0.0000006    0.0000002
    13
 Energy =       0.0721534723
c    -3.6306180    1.7049641    0.2851423  0.00    0.0000000    0.0000000    0.0000000
c    -2.7214062    2.9292929    0.2562235  0.00   -0.0000000   -0.0000000   -0.0000000
c    -5.0744891    2.0687373   -0.1072010  0.00   -0.0000000   -0.0000000   -0.0000000
h    -5.1049806    2.4507197   -1.1525597  0.00   -0.0000000    0.0000000   -0.0000000
h    -5.4725264    2.8637026    0.5616515  0.00   -0.0000000    0.0000000    0.0000000
h    -5.7340435    1.1780109   -0.0267567  0.00   -0.0000000   -0.0000000   -0.0000000
n    -3.1357482    0.5916642   -0.5588241  0.00    0.0000000   -0.0000000    0.0000000
h    -3.6302818    1.3698543    1.3498467  0.00   -0.0000000   -0.0000000    0.0000000
h    -3.8022742    0.3531667   -1.3317250  0.00   -0.0000000   -0.0000000   -0.0000000
h    -2.2423296    0.8503112   -1.0454775  0.00    0.0000000    0.0000000   -0.0000000
o    -2.5414814    3.6444180   -0.9194660  0.00   -0.0000000    0.0000000   -0.0000000
o    -2.0378693    3.3204379    1.3983635  0.00   -0.0000000    0.0000000    0.0000000
h    -1.2399585    2.7150678    1.5245714  0.00    0.0000000   -0.0000000    0.0000000
