    27
 Energy =       0.3329451866
c    -1.4235396    2.6054793   -0.0667700  0.00   -0.0465720    0.0383974    0.0028528
c    -1.3072796    1.2134697   -0.1072300  0.00   -0.0853161   -0.0326226    0.0021058
c    -0.0178900    0.6711998   -0.1697000  0.00   -0.0886889   -0.1880438   -0.0009933
c    -0.2940599    3.4190890   -0.0891300  0.00   -0.0226755    0.0695161    0.0031524
c     0.9872197    2.8590292   -0.1560400  0.00    0.0150528    0.0653560   -0.0013819
c     1.1340797    1.4562096   -0.1970299  0.00    0.0534442    0.0512068    0.0014169
n     0.3879399   -0.6395298   -0.2140799  0.00    0.1421147    0.1098134   -0.0025540
c     2.2666594    0.5727398   -0.2659299  0.00    0.1576983   -0.0878441   -0.0063023
c     1.7555995   -0.7123598   -0.2706899  0.00   -0.0965222   -0.0963681   -0.0014338
h    -0.2400399   -1.4313496   -0.2047299  0.00    0.0368768    0.0478126   -0.0006477
c     3.7030089    1.0223397   -0.3320099  0.00   -0.0105955    0.0466565   -0.0204644
c     4.2197688    1.4064496   -1.7267995  0.00    0.0532757   -0.0497897    0.0545553
h     4.3261788    0.2093419    0.0639454  0.00   -0.0098298    0.0104860   -0.0022265
h     3.8370289    1.8640295    0.3610799  0.00   -0.0049970   -0.0110859   -0.0114405
c     3.6319390    2.7753292   -2.1168494  0.00   -0.0484045    0.3214892    0.1519002
n     3.8331589    0.4251339   -2.8019292  0.00   -0.0663573    0.0210051   -0.0982479
h     5.3112285    1.5100896   -1.7329195  0.00   -0.0166905   -0.0084647   -0.0066822
h     3.3525690   -0.3535799   -2.3395993  0.00    0.0042583    0.0393957    0.0156908
h     3.1006291    0.8621858   -3.3722390  0.00    0.0028772    0.3521570    0.0575058
h    -2.4108593    3.0588691   -0.0157800  0.00   -0.0007163    0.0002141    0.0000535
h    -2.1896094    0.5822398   -0.0890100  0.00   -0.0036224    0.0037264    0.0000718
h    -0.4052699    4.5000487   -0.0535400  0.00    0.0008321   -0.0004726    0.0004024
h     1.8590495    3.5066790   -0.1715100  0.00    0.0116361    0.0025575   -0.0105464
h     2.2327294   -1.6813195   -0.3062999  0.00   -0.0406087   -0.0111164    0.0018886
o     3.7357489    3.8032989   -1.4684596  0.00   -0.0298567   -0.2484940   -0.1507384
o     2.9666192    2.7051892   -3.3013391  0.00    0.0637040   -0.4174088    0.0102615
h     2.0411594    2.9962791   -3.0929791  0.00    0.0296834   -0.0280789    0.0118017
    27
 Energy =       0.2829763139
c    -1.3708287    2.6057264    0.0043144  0.00   -0.0329614    0.0272588    0.0019638
c    -1.2574412    1.2243006   -0.0480684  0.00   -0.0607754   -0.0233753    0.0014617
c     0.0155451    0.6824897   -0.1116042  0.00   -0.0626841   -0.1327221    0.0005329
c    -0.2438054    3.4099923   -0.0096001  0.00   -0.0162546    0.0494248    0.0020504
c     1.0244705    2.8471716   -0.0803587  0.00    0.0106426    0.0466955   -0.0012162
c     1.1527478    1.4594894   -0.1361559  0.00    0.0372138    0.0369525    0.0010560
n     0.3948812   -0.6478497   -0.2020296  0.00    0.1006765    0.0765061   -0.0031397
c     2.2690747    0.6017573   -0.2319273  0.00    0.1110547   -0.0624397   -0.0031863
c     1.7810539   -0.6806673   -0.2502282  0.00   -0.0698548   -0.0662972   -0.0003604
h    -0.2340638   -1.4520339   -0.2173911  0.00    0.0261433    0.0336624   -0.0009009
c     3.7100259    1.0382981   -0.3719055  0.00   -0.0069232    0.0326798   -0.0141247
c     4.1578724    1.4100418   -1.8031215  0.00    0.0385570   -0.0344181    0.0379485
h     4.3509602    0.2177499   -0.0085520  0.00   -0.0063787    0.0071379   -0.0014968
h     3.8947503    1.8865858    0.3097095  0.00   -0.0031212   -0.0071012   -0.0072470
c     3.5876131    2.7738894   -2.2033974  0.00   -0.0362226    0.2298610    0.1081339
n     3.7413283    0.4074474   -2.8366470  0.00   -0.0472971    0.0143123   -0.0707397
h     5.2542309    1.5137340   -1.8478776  0.00   -0.0111398   -0.0057655   -0.0049546
h     3.2391645   -0.3622850   -2.3725084  0.00    0.0025386    0.0277239    0.0114772
h     3.0283060    0.8547669   -3.4399787  0.00   -0.0008874    0.2688074    0.0422049
h    -2.3567585    3.0617692    0.0567065  0.00   -0.0005187    0.0001499    0.0000370
h    -2.1394335    0.5923670   -0.0434426  0.00   -0.0026338    0.0025726    0.0000114
h    -0.3498381    4.4914333    0.0362606  0.00    0.0005819   -0.0002654    0.0002855
h     1.9019204    3.4864409   -0.0821452  0.00    0.0082532    0.0017809   -0.0072049
h     2.3099127   -1.6223213   -0.3341342  0.00   -0.0276267   -0.0097514    0.0010461
o     3.7000383    3.8256623   -1.5060061  0.00   -0.0219224   -0.1781363   -0.1067388
o     2.9071812    2.7430985   -3.3896221  0.00    0.0863286   -0.3175301   -0.0092718
h     1.9248585    2.8375260   -3.1178570  0.00   -0.0147882   -0.0177236    0.0223727
    27
 Energy =       0.2546564047
c    -1.3863722    2.5922641   -0.0345427  0.00   -0.0254660    0.0211375    0.0015390
c    -1.2720979    1.2162645   -0.0789522  0.00   -0.0471338   -0.0181990    0.0011263
c    -0.0073124    0.6763984   -0.1442729  0.00   -0.0485262   -0.1019549   -0.0000988
c    -0.2619999    3.3930720   -0.0525478  0.00   -0.0126225    0.0383000    0.0016331
c     1.0000522    2.8301251   -0.1201655  0.00    0.0082764    0.0362399   -0.0009224
c     1.1206340    1.4501664   -0.1721865  0.00    0.0285607    0.0289015    0.0008948
n     0.3626053   -0.6668116   -0.1960200  0.00    0.0780132    0.0583254   -0.0017878
c     2.2301981    0.6062817   -0.2503694  0.00    0.0853544   -0.0482877   -0.0026153
c     1.7584711   -0.6757353   -0.2547287  0.00   -0.0544219   -0.0504784   -0.0006441
h    -0.2648985   -1.4795128   -0.1904886  0.00    0.0201335    0.0257920   -0.0005120
c     3.6791470    1.0351848   -0.3423833  0.00   -0.0049334    0.0253837   -0.0103117
c     4.1715707    1.4105087   -1.7606115  0.00    0.0301138   -0.0263877    0.0295463
h     4.3074968    0.2088966    0.0368326  0.00   -0.0048374    0.0054007   -0.0009970
h     3.8485448    1.8809932    0.3500626  0.00   -0.0023932   -0.0054552   -0.0054053
c     3.6240597    2.7714853   -2.1796044  0.00   -0.0284835    0.1774530    0.0847783
n     3.7942188    0.4038675   -2.7988015  0.00   -0.0361449    0.0115360   -0.0552157
h     5.2717659    1.5158183   -1.7629866  0.00   -0.0078174   -0.0044660   -0.0038262
h     3.2984982   -0.3884214   -2.3584757  0.00    0.0015606    0.0207805    0.0090432
h     3.0982525    0.8467951   -3.4348103  0.00   -0.0024086    0.2169596    0.0325199
h    -2.3721479    3.0483636    0.0188701  0.00   -0.0004050    0.0001129    0.0000292
h    -2.1523031    0.5820782   -0.0621618  0.00   -0.0020984    0.0019394    0.0000225
h    -0.3671251    4.4748416   -0.0097783  0.00    0.0004503   -0.0001988    0.0002275
h     1.8783775    3.4671589   -0.1201579  0.00    0.0062774    0.0013444   -0.0055916
h     2.3179863   -1.6032061   -0.3066669  0.00   -0.0209856   -0.0083551    0.0007498
o     3.7569814    3.8456295   -1.4694239  0.00   -0.0163697   -0.1379503   -0.0829286
o     2.9673905    2.7677954   -3.3853893  0.00    0.0825804   -0.2556546   -0.0119215
h     1.9917730    2.9962791   -3.1578075  0.00   -0.0262732   -0.0122188    0.0206681
    27
 Energy =       0.2341284839
c    -1.3803491    2.6196675   -0.0585488  0.00   -0.0196907    0.0161619    0.0012070
c    -1.2815126    1.2470920   -0.1055638  0.00   -0.0363093   -0.0141054    0.0009364
c    -0.0294059    0.6939786   -0.1650896  0.00   -0.0370805   -0.0783110    0.0001549
c    -0.2481885    3.4043165   -0.0686096  0.00   -0.0098168    0.0295196    0.0012556
c     1.0029236    2.8264071   -0.1289327  0.00    0.0064178    0.0280040   -0.0007713
c     1.1008137    1.4511669   -0.1822434  0.00    0.0218666    0.0222623    0.0006730
n     0.3141273   -0.6615927   -0.2183327  0.00    0.0596703    0.0447167   -0.0017464
c     2.1945187    0.6046370   -0.2461489  0.00    0.0654493   -0.0370982   -0.0021402
c     1.7189245   -0.6713798   -0.2513768  0.00   -0.0415667   -0.0387827   -0.0002237
h    -0.3259799   -1.4702105   -0.2252347  0.00    0.0152665    0.0196836   -0.0004872
c     3.6523729    1.0103671   -0.3128815  0.00   -0.0036403    0.0196956   -0.0077487
c     4.1699542    1.3760785   -1.7266070  0.00    0.0234855   -0.0203614    0.0228736
h     4.2643007    0.1738627    0.0762048  0.00   -0.0036246    0.0039636   -0.0006582
h     3.8252692    1.8562325    0.3812806  0.00   -0.0018333   -0.0041881   -0.0041462
c     3.6476065    2.7363712   -2.1662168  0.00   -0.0226967    0.1343542    0.0665330
n     3.8154127    0.3590342   -2.7580621  0.00   -0.0264641    0.0085858   -0.0416047
h     5.2723381    1.4776015   -1.7033482  0.00   -0.0056925   -0.0034833   -0.0029436
h     3.2969618   -0.4302820   -2.3334322  0.00    0.0008733    0.0155856    0.0072991
h     3.1525784    0.8024466   -3.4360965  0.00   -0.0040023    0.1741068    0.0238335
h    -2.3609397    3.0873939   -0.0100116  0.00   -0.0004088    0.0001096    0.0000290
h    -2.1682597    0.6218877   -0.0957310  0.00   -0.0016799    0.0014199    0.0000188
h    -0.3398671    4.4874033   -0.0246826  0.00    0.0003262   -0.0000541    0.0001818
h     1.8909345    3.4506582   -0.1223783  0.00    0.0051051    0.0011531   -0.0044392
h     2.2896436   -1.5936604   -0.2864021  0.00   -0.0159641   -0.0065109    0.0006305
o     3.8181575    3.8335954   -1.4579328  0.00   -0.0119008   -0.1048689   -0.0638654
o     3.0216031    2.7584756   -3.3927163  0.00    0.0876247   -0.2105404   -0.0150930
h     2.0798283    3.1550323   -3.2184730  0.00   -0.0437137   -0.0010178    0.0202417
    27
 Energy =       0.2295993773
c    -1.3664232    2.5592459    0.0363490  0.00   -0.0189568    0.0150894    0.0011232
c    -1.2448940    1.1886278    0.0036848  0.00   -0.0346009   -0.0134960    0.0008396
c     0.0141561    0.6566414   -0.0827882  0.00   -0.0347604   -0.0731265   -0.0000520
c    -0.2485779    3.3625296   -0.0095504  0.00   -0.0090517    0.0282223    0.0011673
c     1.0093498    2.8055023   -0.0981128  0.00    0.0067152    0.0264425   -0.0007478
c     1.1291158    1.4332623   -0.1452723  0.00    0.0205393    0.0214567    0.0006779
n     0.3807108   -0.6961453   -0.1106894  0.00    0.0523237    0.0421438   -0.0010257
c     2.2351276    0.6094072   -0.2463266  0.00    0.0609081   -0.0349217   -0.0015434
c     1.7853009   -0.6748220   -0.2248434  0.00   -0.0361918   -0.0357568   -0.0004091
h    -0.2419228   -1.5201446   -0.0664816  0.00    0.0126820    0.0164649   -0.0002874
c     3.6837770    1.0416106   -0.3897660  0.00   -0.0022148    0.0191115   -0.0060268
c     4.1275895    1.4171739   -1.8297259  0.00    0.0219822   -0.0188273    0.0204602
h     4.3307974    0.2158732   -0.0319810  0.00   -0.0025342    0.0030614   -0.0000975
h     3.8774235    1.8903703    0.2961265  0.00   -0.0015647   -0.0038840   -0.0035138
c     3.5767202    2.7739393   -2.2467494  0.00   -0.0210580    0.1252129    0.0617135
n     3.7411249    0.3961426   -2.8457909  0.00   -0.0242845    0.0079023   -0.0395696
h     5.2302607    1.5314400   -1.8566710  0.00   -0.0040245   -0.0031529   -0.0028146
h     3.2329027   -0.3908896   -2.4034086  0.00    0.0007657    0.0142491    0.0065237
h     3.0548520    0.8366520   -3.5041265  0.00   -0.0043882    0.1636629    0.0218563
h    -2.3537228    3.0105558    0.1068641  0.00   -0.0008246    0.0001579    0.0000530
h    -2.1201033    0.5477471    0.0491271  0.00   -0.0022991    0.0008630    0.0000520
h    -0.3573334    4.4443933    0.0287073  0.00    0.0003380    0.0001343    0.0001795
h     1.8852756    3.4447462   -0.1141854  0.00    0.0051387    0.0013474   -0.0041672
h     2.3761641   -1.5831594   -0.2930903  0.00   -0.0141761   -0.0066535    0.0005034
o     3.7218815    3.8653929   -1.5149649  0.00   -0.0114288   -0.0974393   -0.0594634
o     2.9283639    2.8028403   -3.4619152  0.00    0.0832142   -0.1979757   -0.0147475
h     2.0058502    3.2376480   -3.2819866  0.00   -0.0422479   -0.0002887    0.0193161
    27
 Energy =       0.2105903230
c    -1.3423013    2.5944975    0.0681486  0.00   -0.0121787    0.0093644    0.0006823
c    -1.2372594    1.2275140    0.0470788  0.00   -0.0219844   -0.0087216    0.0003821
c     0.0064664    0.6808767   -0.0493570  0.00   -0.0216687   -0.0460167   -0.0004551
c    -0.2173038    3.3799692    0.0018725  0.00   -0.0057854    0.0179653    0.0007981
c     1.0269659    2.8062517   -0.0962564  0.00    0.0043514    0.0169208   -0.0004128
c     1.1218752    1.4391599   -0.1325108  0.00    0.0130541    0.0136286    0.0005526
n     0.3449389   -0.6857971   -0.0616377  0.00    0.0330449    0.0262371   -0.0002535
c     2.2086553    0.6127436   -0.2358599  0.00    0.0384620   -0.0217308   -0.0007350
c     1.7564138   -0.6649540   -0.1909853  0.00   -0.0229309   -0.0227993   -0.0005079
h    -0.2893831   -1.5056499   -0.0001804  0.00    0.0077448    0.0101647   -0.0000619
c     3.6633125    1.0183873   -0.4005286  0.00   -0.0013868    0.0119718   -0.0037003
c     4.0962712    1.3672801   -1.8529533  0.00    0.0144150   -0.0118966    0.0130815
h     4.3027056    0.1855047   -0.0408557  0.00   -0.0015944    0.0018514   -0.0000843
h     3.8810956    1.8744500    0.2724145  0.00   -0.0008967   -0.0021436   -0.0020147
c     3.5795925    2.7278062   -2.2922752  0.00   -0.0140123    0.0767014    0.0405071
n     3.7059698    0.3255862   -2.8419758  0.00   -0.0112352    0.0047752   -0.0238968
h     5.2018932    1.4685316   -1.8802675  0.00   -0.0024326   -0.0020115   -0.0018635
h     3.1411315   -0.4301685   -2.4044466  0.00   -0.0012731    0.0065691    0.0058820
h     3.0730400    0.7699960   -3.5578753  0.00   -0.0066830    0.1164290    0.0111894
h    -2.3228369    3.0587991    0.1464000  0.00   -0.0006707    0.0001175    0.0000371
h    -2.1182036    0.5963688    0.1104152  0.00   -0.0016282    0.0003804    0.0000358
h    -0.3110416    4.4636228    0.0312961  0.00    0.0002042    0.0002459    0.0001240
h     1.9121745    3.4319838   -0.1279946  0.00    0.0035762    0.0010361   -0.0027062
h     2.3585262   -1.5670963   -0.2539714  0.00   -0.0089207   -0.0042008    0.0002637
o     3.7646661    3.8401868   -1.5547520  0.00   -0.0063893   -0.0603795   -0.0376017
o     2.9647943    2.7943295   -3.5283708  0.00    0.0789846   -0.1495280   -0.0149108
h     2.1216078    3.3964011   -3.4121388  0.00   -0.0521660    0.0150697    0.0156691
    27
 Energy =       0.2012605224
c    -1.3005088    2.6424884    0.1441648  0.00   -0.0090731    0.0061885    0.0004771
c    -1.2134897    1.2766441    0.1457184  0.00   -0.0156624   -0.0064170    0.0001226
c     0.0163964    0.7127845    0.0265071  0.00   -0.0149914   -0.0317926   -0.0007647
c    -0.1681369    3.4099009    0.0341260  0.00   -0.0037060    0.0129063    0.0005756
c     1.0627371    2.8177794   -0.0873516  0.00    0.0035277    0.0120196   -0.0002201
c     1.1349286    1.4526997   -0.1023036  0.00    0.0094259    0.0096009    0.0004704
n     0.3310044   -0.6631839    0.0362931  0.00    0.0218381    0.0178720    0.0004306
c     2.2035528    0.6166655   -0.2233108  0.00    0.0262004   -0.0144958    0.0000483
c     1.7428222   -0.6538512   -0.1393986  0.00   -0.0154662   -0.0161182   -0.0005607
h    -0.3130983   -1.4756400    0.1351347  0.00    0.0044802    0.0060694    0.0001994
c     3.6590821    0.9956745   -0.4487295  0.00   -0.0001756    0.0081793   -0.0019294
c     4.0472647    1.3101225   -1.9245811  0.00    0.0100294   -0.0071979    0.0086626
h     4.2987978    0.1584786   -0.0971850  0.00   -0.0009520    0.0012746   -0.0000697
h     3.9162594    1.8610936    0.2009327  0.00   -0.0002887   -0.0007173   -0.0007145
c     3.5606469    2.6777057   -2.3765537  0.00   -0.0101405    0.0514155    0.0282559
n     3.6183435    0.2497138   -2.8769684  0.00   -0.0021366    0.0037485   -0.0180756
h     5.1550667    1.3894245   -1.9824051  0.00   -0.0009627   -0.0012393   -0.0014423
h     2.9823784   -0.4488633   -2.4318400  0.00   -0.0046250   -0.0003031    0.0066528
h     3.0397625    0.6988351   -3.6379089  0.00   -0.0073327    0.0873862    0.0055278
h    -2.2725714    3.1212620    0.2402977  0.00   -0.0008145    0.0000909    0.0000508
h    -2.1000973    0.6575225    0.2455222  0.00   -0.0017650   -0.0001965    0.0000823
h    -0.2460243    4.4953228    0.0466534  0.00    0.0002277    0.0004681    0.0000836
h     1.9557968    3.4299392   -0.1532246  0.00    0.0030382    0.0011446   -0.0018294
h     2.3428503   -1.5574540   -0.2101690  0.00   -0.0060571   -0.0029028    0.0001175
o     3.7836172    3.7988967   -1.6378921  0.00   -0.0037676   -0.0405793   -0.0257897
o     2.9646365    2.7722628   -3.6220427  0.00    0.0638178   -0.1124456   -0.0121341
h     2.1917490    3.4603564   -3.5410529  0.00   -0.0446685    0.0160410    0.0117730
    27
 Energy =       0.1986505347
c    -1.2390981    2.7091008    0.2157365  0.00   -0.0089197    0.0052174    0.0005264
c    -1.1746691    1.3427036    0.2501807  0.00   -0.0143868   -0.0063028    0.0001568
c     0.0410426    0.7555002    0.1102170  0.00   -0.0134698   -0.0281355   -0.0007797
c    -0.0975305    3.4541869    0.0525454  0.00   -0.0026431    0.0121286    0.0004347
c     1.1188996    2.8382961   -0.0912513  0.00    0.0037671    0.0111443   -0.0002445
c     1.1664359    1.4726670   -0.0725638  0.00    0.0087384    0.0085654    0.0003753
n     0.3311060   -0.6266625    0.1484306  0.00    0.0177054    0.0154393    0.0007598
c     2.2151138    0.6171412   -0.2097749  0.00    0.0222999   -0.0120906    0.0005876
c     1.7377719   -0.6434694   -0.0800200  0.00   -0.0129693   -0.0146303   -0.0004368
h    -0.3237754   -1.4258612    0.2922649  0.00    0.0026657    0.0038937    0.0004744
c     3.6670720    0.9637734   -0.5082572  0.00    0.0011302    0.0071949   -0.0007659
c     3.9921437    1.2464144   -2.0075300  0.00    0.0088382   -0.0044498    0.0074091
h     4.3070301    0.1194451   -0.1734065  0.00   -0.0004675    0.0010949   -0.0000698
h     3.9712515    1.8348606    0.1154989  0.00    0.0002003    0.0003399    0.0003366
c     3.5238481    2.6208743   -2.4583341  0.00   -0.0102788    0.0416822    0.0232328
n     3.4995268    0.1783924   -2.9225258  0.00   -0.0000636    0.0028045   -0.0192171
h     5.0995556    1.2987454   -2.1154481  0.00    0.0007226   -0.0008994   -0.0015028
h     2.8236253   -0.4686644   -2.4544147  0.00   -0.0063997   -0.0030306    0.0066201
h     2.9402730    0.6311590   -3.6953267  0.00   -0.0067967    0.0770589    0.0046849
h    -2.2002279    3.2066187    0.3281097  0.00   -0.0011400    0.0001134    0.0000958
h    -2.0683324    0.7407922    0.3923909  0.00   -0.0024431   -0.0008313    0.0002091
h    -0.1568230    4.5411975    0.0390522  0.00    0.0003713    0.0009708    0.0000423
h     2.0208308    3.4332330   -0.2020397  0.00    0.0036369    0.0017469   -0.0016758
h     2.3222865   -1.5569857   -0.1596524  0.00   -0.0050630   -0.0027019    0.0000576
o     3.8312308    3.7495026   -1.7494815  0.00   -0.0015546   -0.0313456   -0.0196942
o     2.8887144    2.7233484   -3.6844235  0.00    0.0573730   -0.1005100   -0.0123469
h     2.1564649    3.4502714   -3.5975443  0.00   -0.0408531    0.0155326    0.0107303
    27
 Energy =       0.1946306184
c    -1.2670144    2.6843070    0.2242139  0.00   -0.0072438    0.0043045    0.0004245
c    -1.1954393    1.3189856    0.2411170  0.00   -0.0116295   -0.0051806    0.0001488
c     0.0218621    0.7398950    0.0948972  0.00   -0.0108780   -0.0226575   -0.0005469
c    -0.1297447    3.4361215    0.0727387  0.00   -0.0020899    0.0098788    0.0003247
c     1.0885760    2.8280136   -0.0752693  0.00    0.0031070    0.0091043   -0.0002665
c     1.1423364    1.4642624   -0.0750794  0.00    0.0070609    0.0068781    0.0002759
n     0.3170817   -0.6430048    0.1129957  0.00    0.0141723    0.0123034    0.0005613
c     2.1955498    0.6190684   -0.2154860  0.00    0.0178801   -0.0097121    0.0004853
c     1.7275378   -0.6451858   -0.1007325  0.00   -0.0103957   -0.0118060   -0.0003006
h    -0.3341685   -1.4490604    0.2388309  0.00    0.0019650    0.0028957    0.0004072
c     3.6500643    0.9763198   -0.4908443  0.00    0.0010013    0.0058502   -0.0004699
c     4.0033324    1.2574455   -1.9852383  0.00    0.0073096   -0.0034233    0.0068073
h     4.2899203    0.1371228   -0.1420443  0.00   -0.0002609    0.0008297   -0.0000390
h     3.9376679    1.8500699    0.1369380  0.00    0.0001865    0.0003767    0.0003898
c     3.5531663    2.6331898   -2.4535240  0.00   -0.0070911    0.0301942    0.0193432
n     3.5339719    0.1839901   -2.9044499  0.00    0.0020741    0.0020313   -0.0149301
h     5.1130704    1.3084261   -2.0676411  0.00    0.0008868   -0.0007430   -0.0012492
h     2.8250859   -0.4435598   -2.4596325  0.00   -0.0061501   -0.0033715    0.0062612
h     3.0190885    0.6309430   -3.7115749  0.00   -0.0069910    0.0641581    0.0019844
h    -2.2305526    3.1757369    0.3411608  0.00   -0.0009433    0.0001214    0.0000789
h    -2.0858451    0.7107151    0.3735936  0.00   -0.0020217   -0.0007288    0.0001801
h    -0.1940367    4.5228661    0.0732944  0.00    0.0003060    0.0008973    0.0000260
h     1.9867701    3.4284898   -0.1727007  0.00    0.0031406    0.0014769   -0.0015222
h     2.3235632   -1.5514421   -0.1798164  0.00   -0.0040310   -0.0022465    0.0000497
o     3.7812332    3.7571882   -1.6950802  0.00   -0.0000465   -0.0218430   -0.0111306
o     3.0054718    2.7536599   -3.7248251  0.00    0.0475782   -0.0856243   -0.0155701
h     2.3152180    3.5220175   -3.6934089  0.00   -0.0368959    0.0160359    0.0082768
    27
 Energy =       0.1905559064
c    -1.2461488    2.7235719    0.2753717  0.00   -0.0054847    0.0029438    0.0003212
c    -1.1882721    1.3591375    0.3019960  0.00   -0.0085471   -0.0037659    0.0000860
c     0.0182090    0.7663639    0.1380601  0.00   -0.0077689   -0.0161997   -0.0004612
c    -0.1047139    3.4609261    0.0967489  0.00   -0.0014109    0.0072502    0.0002317
c     1.1027431    2.8385814   -0.0684390  0.00    0.0024905    0.0065519   -0.0002088
c     1.1408477    1.4763784   -0.0579700  0.00    0.0052463    0.0049155    0.0002009
n     0.2967069   -0.6214098    0.1605365  0.00    0.0098723    0.0086805    0.0005071
c     2.1809554    0.6221588   -0.2088272  0.00    0.0127036   -0.0067401    0.0005591
c     1.7055207   -0.6357914   -0.0737976  0.00   -0.0073255   -0.0085694   -0.0001952
h    -0.3607097   -1.4208026    0.3019468  0.00    0.0012033    0.0018663    0.0003348
c     3.6343931    0.9595463   -0.5125417  0.00    0.0007734    0.0041090   -0.0000961
c     3.9720566    1.2081892   -2.0174114  0.00    0.0052588   -0.0020070    0.0053693
h     4.2697887    0.1194275   -0.1568561  0.00   -0.0001855    0.0005283   -0.0000215
h     3.9409873    1.8407603    0.0957219  0.00    0.0002386    0.0005907    0.0004776
c     3.5651423    2.5915875   -2.5075473  0.00   -0.0039048    0.0207890    0.0160794
n     3.4695455    0.1269515   -2.9087462  0.00    0.0072979    0.0012035   -0.0110479
h     5.0822349    1.2274553   -2.1108503  0.00    0.0011660   -0.0004859   -0.0010836
h     2.7007856   -0.4345162   -2.4699747  0.00   -0.0086379   -0.0060914    0.0072913
h     3.0138249    0.5678422   -3.7548981  0.00   -0.0070598    0.0494442   -0.0012438
h    -2.2020474    3.2262466    0.4058721  0.00   -0.0008690    0.0001199    0.0000771
h    -2.0820161    0.7612335    0.4553400  0.00   -0.0016855   -0.0006628    0.0001560
h    -0.1572775    4.5481460    0.0893541  0.00    0.0002377    0.0007471    0.0000155
h     2.0050333    3.4279935   -0.1867334  0.00    0.0024780    0.0011892   -0.0011039
h     2.2963851   -1.5454072   -0.1557186  0.00   -0.0028235   -0.0016155    0.0000234
o     3.7804193    3.7146566   -1.7362075  0.00    0.0001807   -0.0154284   -0.0075311
o     3.0854017    2.7329991   -3.8060595  0.00    0.0395388   -0.0681557   -0.0139250
h     2.4739712    3.5643548   -3.8259371  0.00   -0.0329828    0.0187926    0.0051877
    27
 Energy =       0.1878429544
c    -1.2046498    2.7930406    0.3399950  0.00   -0.0046788    0.0018946    0.0003379
c    -1.1692934    1.4291919    0.3886438  0.00   -0.0066765   -0.0030004    0.0001190
c     0.0209880    0.8130264    0.2026708  0.00   -0.0056659   -0.0116918   -0.0003914
c    -0.0561381    3.5066800    0.1176097  0.00   -0.0006573    0.0057379    0.0001087
c     1.1347896    2.8605133   -0.0692866  0.00    0.0023825    0.0049438   -0.0002304
c     1.1487490    1.4994215   -0.0355554  0.00    0.0041918    0.0035329    0.0000906
n     0.2741887   -0.5805574    0.2403091  0.00    0.0062607    0.0059709    0.0005902
c     2.1686694    0.6269718   -0.1986070  0.00    0.0089380   -0.0043374    0.0008056
c     1.6780070   -0.6201674   -0.0288967  0.00   -0.0048587   -0.0064854   -0.0000756
h    -0.3931696   -1.3670526    0.4112360  0.00    0.0002114    0.0006381    0.0004008
c     3.6191569    0.9320068   -0.5487265  0.00    0.0008594    0.0027716    0.0004281
c     3.9253200    1.1339903   -2.0689018  0.00    0.0039523   -0.0000546    0.0044956
h     4.2482237    0.0895335   -0.1866351  0.00   -0.0001046    0.0002821   -0.0000130
h     3.9573199    1.8223326    0.0298569  0.00    0.0004696    0.0011803    0.0008263
c     3.5743041    2.5254543   -2.5850947  0.00   -0.0019129    0.0143970    0.0136919
n     3.3613897    0.0490548   -2.9195049  0.00    0.0101752   -0.0007897   -0.0102028
h     5.0339434    1.1046939   -2.1875810  0.00    0.0022340   -0.0002657   -0.0012062
h     2.5420325   -0.4342270   -2.4748334  0.00   -0.0110622   -0.0080058    0.0077974
h     2.9534787    0.4783673   -3.7948285  0.00   -0.0063891    0.0370249   -0.0024475
h    -2.1480888    3.3145620    0.4873342  0.00   -0.0010420    0.0001650    0.0001184
h    -2.0687058    0.8492988    0.5759251  0.00   -0.0018469   -0.0008761    0.0002286
h    -0.0900268    4.5944932    0.0922916  0.00    0.0002602    0.0008899   -0.0000116
h     2.0436864    3.4316447   -0.2227392  0.00    0.0023909    0.0012786   -0.0008249
h     2.2549018   -1.5388147   -0.1132715  0.00   -0.0018555   -0.0012672   -0.0000152
o     3.7946850    3.6506989   -1.8128076  0.00    0.0003334   -0.0106266   -0.0054121
o     3.1588240    2.6796552   -3.9053370  0.00    0.0327716   -0.0537901   -0.0118474
h     2.6311810    3.5627681   -3.9708332  0.00   -0.0286806    0.0204833    0.0026390
    27
 Energy =       0.1864068831
c    -1.1998200    2.8308626    0.2915208  0.00   -0.0040124    0.0016674    0.0003356
c    -1.2008984    1.4661082    0.3174331  0.00   -0.0053259   -0.0027960    0.0002056
c    -0.0256550    0.8218026    0.1366534  0.00   -0.0043226   -0.0086823   -0.0001733
c    -0.0302351    3.5172492    0.0966511  0.00   -0.0002629    0.0049006   -0.0000022
c     1.1455609    2.8428244   -0.0828770  0.00    0.0021942    0.0042213   -0.0003044
c     1.1228183    1.4818229   -0.0715176  0.00    0.0033489    0.0026144   -0.0000365
n     0.1885830   -0.5798468    0.1533162  0.00    0.0040959    0.0037830    0.0004653
c     2.1225529    0.5866854   -0.2266725  0.00    0.0061462   -0.0031538    0.0005611
c     1.5977253   -0.6498847   -0.0852883  0.00   -0.0034573   -0.0053797    0.0001794
h    -0.5029133   -1.3520888    0.2961479  0.00   -0.0006910   -0.0004797    0.0004679
c     3.5921624    0.8585995   -0.5240932  0.00    0.0009605    0.0013818    0.0007550
c     3.9461334    1.1145769   -2.0266480  0.00    0.0038304   -0.0000147    0.0045833
h     4.1856386   -0.0181990   -0.1796093  0.00    0.0004396   -0.0008451    0.0008031
h     3.9418952    1.7139230    0.1011987  0.00    0.0012730    0.0020131    0.0015690
c     3.6584970    2.5438960   -2.4849867  0.00   -0.0020962    0.0089292    0.0096502
n     3.3743398    0.0815866   -2.9383653  0.00    0.0130143   -0.0039874   -0.0091691
h     5.0566151    1.0547952   -2.1144394  0.00    0.0025833    0.0002357   -0.0006487
h     2.6068904   -0.4800460   -2.4891834  0.00   -0.0128987   -0.0088365    0.0097703
h     2.9081907    0.5559228   -3.7634903  0.00   -0.0071830    0.0300556   -0.0074358
h    -2.1312295    3.3748226    0.4347578  0.00   -0.0010748    0.0002819    0.0001384
h    -2.1176466    0.9068178    0.4825365  0.00   -0.0018433   -0.0010442    0.0002705
h    -0.0352065    4.6061888    0.0889573  0.00    0.0002635    0.0012595   -0.0000286
h     2.0711321    3.3923833   -0.2126659  0.00    0.0019586    0.0013229   -0.0004789
h     2.1566071   -1.5806721   -0.1605299  0.00   -0.0011571   -0.0011859    0.0000004
o     3.9534381    3.6258896   -1.6667177  0.00    0.0021260   -0.0028105   -0.0006265
o     3.2234031    2.7794110   -3.7872618  0.00    0.0275597   -0.0461063   -0.0120679
h     2.7851878    3.7111496   -3.8223940  0.00   -0.0254687    0.0226558    0.0012170
    27
 Energy =       0.1856224619
c    -1.2092926    2.8765593    0.2128294  0.00   -0.0041360    0.0016491    0.0003634
c    -1.2223409    1.5121049    0.2471630  0.00   -0.0054170   -0.0026210    0.0002415
c    -0.0493875    0.8567641    0.0919986  0.00   -0.0043380   -0.0083214   -0.0001442
c    -0.0303515    3.5518117    0.0357443  0.00   -0.0003713    0.0049331    0.0000106
c     1.1431990    2.8664138   -0.1167020  0.00    0.0024124    0.0039991   -0.0003384
c     1.1086594    1.5056480   -0.0975351  0.00    0.0031801    0.0026063   -0.0000412
n     0.1531675   -0.5464352    0.1260627  0.00    0.0034960    0.0036839    0.0005022
c     2.1047845    0.6012554   -0.2220867  0.00    0.0054077   -0.0027934    0.0010138
c     1.5672492   -0.6296276   -0.0791363  0.00   -0.0032220   -0.0051133    0.0006292
h    -0.5476796   -1.3117984    0.2606644  0.00   -0.0007979   -0.0005714    0.0004777
c     3.5856624    0.8605525   -0.4751942  0.00    0.0015514    0.0020759    0.0015513
c     3.9842973    1.0923999   -1.9699614  0.00    0.0041125    0.0012535    0.0050556
h     4.1652109   -0.0130705   -0.0987376  0.00    0.0008483   -0.0012279    0.0009639
h     3.9192972    1.7255357    0.1458156  0.00    0.0012214    0.0020426    0.0017236
c     3.6653949    2.5040448   -2.4650327  0.00   -0.0020548    0.0083305    0.0110220