    13
 Energy =       0.1089647324
c    -3.7133889    1.6950595    0.3173519  0.00   -0.1117371    0.0634561    0.0138344
c    -2.4962693    2.6345192    0.2419999  0.00    0.3655139   -0.0256666    0.1173575
c    -4.9565486    2.3924193   -0.2155699  0.00    0.0457830    0.0195250    0.0044646
h    -4.7854386    2.7464192   -1.2386596  0.00    0.0018379   -0.0028728    0.0200614
h    -5.2149185    3.2645991    0.3947669  0.00    0.0031219   -0.0123588   -0.0117259
h    -5.8205083    1.7195795   -0.2420919  0.00    0.0116758    0.0113841   -0.0056337
n    -3.4097890    0.4519539   -0.4549189  0.00    0.0454258   -0.0392415   -0.0509458
h    -3.8575589    1.4177196    1.3669296  0.00   -0.0002559   -0.0020519   -0.0220331
h    -4.2340588    0.2238779   -1.0206697  0.00    0.0213939    0.0305087    0.0209382
h    -2.6878492    0.6694128   -1.1486897  0.00   -0.0298067    0.0071619    0.0345745
o    -1.4040496    2.4172293    0.7380088  0.00   -0.2603759    0.0450812   -0.1272046
o    -2.7835192    3.7545589   -0.4737969  0.00   -0.0698267   -0.0578225    0.0099838
h    -2.5521993    4.5104687    0.1222010  0.00   -0.0227500   -0.0371029   -0.0036711
    13
 Energy =       0.0859681084
c    -3.6821820    1.7032854    0.2855106  0.00   -0.0643898    0.0383794    0.0069926
c    -2.4807602    2.6421812    0.1559172  0.00    0.2150043   -0.0133944    0.0707455
c    -4.9574472    2.3972541   -0.1894913  0.00    0.0317017    0.0133438    0.0025591
h    -4.8422358    2.7086458   -1.2443817  0.00    0.0031388   -0.0006762    0.0094097
h    -5.1554452    3.3054649    0.4069295  0.00    0.0023128   -0.0051735   -0.0051924
h    -5.8354240    1.7284559   -0.1074720  0.00    0.0022928    0.0037120   -0.0023971
n    -3.4456933    0.4400004   -0.4649331  0.00    0.0231047   -0.0252046   -0.0271559
h    -3.7697399    1.4575003    1.3594616  0.00   -0.0000902   -0.0010363   -0.0106847
h    -4.2864667    0.1997050   -1.0181593  0.00    0.0119859    0.0179878    0.0121786
h    -2.6879657    0.5774404   -1.1607172  0.00   -0.0131918    0.0044793    0.0166255
o    -1.3318888    2.3907149    0.6805923  0.00   -0.1534354    0.0259670   -0.0740478
o    -2.7298951    3.8071541   -0.5212094  0.00   -0.0456726   -0.0708123   -0.0376309
h    -2.7109524    4.5400145    0.2048143  0.00   -0.0127613    0.0124279    0.0385979
    13
 Energy =       0.0772105334
c    -3.6943377    1.7116762    0.2912426  0.00   -0.0496506    0.0299633    0.0054312
c    -2.4998870    2.6533846    0.1426609  0.00    0.1647574   -0.0099741    0.0556107
c    -4.9800728    2.3913211   -0.1830878  0.00    0.0252644    0.0103862    0.0021251
h    -4.8820085    2.6714957   -1.2506009  0.00    0.0026266   -0.0002997    0.0066814
h    -5.1655088    3.3203037    0.3893364  0.00    0.0019529   -0.0034216   -0.0037359
h    -5.8556578    1.7228450   -0.0618846  0.00    0.0012606    0.0023705   -0.0017407
n    -3.4675296    0.4345327   -0.4348911  0.00    0.0171383   -0.0198053   -0.0203600
h    -3.7719650    1.4877803    1.3731070  0.00   -0.0000621   -0.0008230   -0.0079553
h    -4.3049203    0.1809887   -0.9926443  0.00    0.0091622    0.0138568    0.0092984
h    -2.6918410    0.5401707   -1.1211916  0.00   -0.0093703    0.0033488    0.0120641
o    -1.3228489    2.3840647    0.6535744  0.00   -0.1177548    0.0197101   -0.0576977
o    -2.7273196    3.8180595   -0.5504432  0.00   -0.0379837   -0.0706556   -0.0442430
h    -2.5521993    4.5811942    0.1316838  0.00   -0.0073407    0.0253436    0.0445218
    13
 Energy =       0.0700962471
c    -3.7085243    1.7330850    0.3041258  0.00   -0.0352366    0.0225036    0.0041929
c    -2.5103882    2.6622897    0.1130271  0.00    0.1129427   -0.0057703    0.0401804
c    -5.0009434    2.3969075   -0.1833645  0.00    0.0187982    0.0069880    0.0019695
h    -4.9195050    2.6213423   -1.2684080  0.00    0.0021402    0.0001954    0.0030090
h    -5.1695409    3.3585368    0.3447596  0.00    0.0013571   -0.0009184   -0.0018867
h    -5.8774828    1.7382424   -0.0086097  0.00   -0.0000771    0.0006548   -0.0009039
n    -3.5043270    0.4223139   -0.3655920  0.00    0.0097432   -0.0159278   -0.0129658
h    -3.7768058    1.5586211    1.3989353  0.00   -0.0001224   -0.0007189   -0.0042835
h    -4.3382208    0.1517071   -0.9260729  0.00    0.0063005    0.0094763    0.0062675
h    -2.7045994    0.4673279   -1.0377127  0.00   -0.0039660    0.0017971    0.0059124
o    -1.3033185    2.3631326    0.5994098  0.00   -0.0805518    0.0131568   -0.0410125
o    -2.7089939    3.8249382   -0.6008660  0.00   -0.0301413   -0.0632503   -0.0433583
h    -2.3934462    4.5993727    0.0172296  0.00   -0.0011867    0.0318137    0.0428789
    13
 Energy =       0.0678374556
c    -3.7256548    1.7711155    0.3286252  0.00   -0.0303496    0.0232552    0.0043527
c    -2.5086482    2.6637706    0.0727419  0.00    0.0912624   -0.0026123    0.0330477
c    -5.0066684    2.4149657   -0.2208026  0.00    0.0156549    0.0052651    0.0028677
h    -4.9162257    2.5478533   -1.3243266  0.00    0.0021624    0.0008435   -0.0016983
h    -5.1629313    3.4236858    0.2265977  0.00    0.0004119    0.0031742    0.0000094
h    -5.8939412    1.7842261    0.0057771  0.00   -0.0011324   -0.0007762   -0.0000053
n    -3.5439307    0.4011639   -0.2296373  0.00    0.0047426   -0.0204671   -0.0086928
h    -3.8042540    1.6899611    1.4381806  0.00   -0.0005766   -0.0010385    0.0008209
h    -4.3707548    0.1012783   -0.7885969  0.00    0.0050522    0.0066191    0.0041910
h    -2.7192820    0.3596486   -0.8789596  0.00    0.0017238   -0.0003620   -0.0002211
o    -1.2872457    2.3362504    0.5339300  0.00   -0.0641935    0.0106878   -0.0336438
o    -2.6818117    3.8137083   -0.6724229  0.00   -0.0253054   -0.0551586   -0.0392990
h    -2.2947478    4.5901895   -0.1042452  0.00    0.0005474    0.0305698    0.0382708
    13
 Energy =       0.0649009978
c    -3.7134756    1.7517512    0.3163308  0.00   -0.0209979    0.0203356    0.0041435
c    -2.4946703    2.6354711    0.0425663  0.00    0.0695438   -0.0009100    0.0261836
c    -5.0190557    2.4455659   -0.1206287  0.00    0.0082823    0.0047197    0.0029099
h    -4.9971839    2.6294144   -1.2230371  0.00    0.0014053    0.0010217   -0.0048548
h    -5.1279798    3.4349037    0.3853508  0.00   -0.0004452    0.0049295    0.0015184
h    -5.9025604    1.8195024    0.1324380  0.00   -0.0015384   -0.0004081    0.0000963
n    -3.5912388    0.4080190   -0.3189163  0.00    0.0064223   -0.0197248   -0.0061927
h    -3.7288289    1.6152089    1.4262455  0.00   -0.0001929   -0.0007507    0.0041267
h    -4.4503857    0.1548668   -0.8574859  0.00    0.0017202    0.0037896    0.0012877
h    -2.7964906    0.3798639   -1.0066691  0.00    0.0026024   -0.0011606   -0.0018977
o    -1.2552174    2.2713265    0.4586099  0.00   -0.0474886    0.0072180   -0.0258694
o    -2.6623890    3.7998527   -0.6845696  0.00   -0.0236855   -0.0497974   -0.0367968
h    -2.1766203    4.5520704   -0.1633732  0.00    0.0043724    0.0307373    0.0353453
    13
 Energy =       0.0643593339
c    -3.7054526    1.7552696    0.3233429  0.00   -0.0181133    0.0195568    0.0058970
c    -2.4645011    2.5855229   -0.0238086  0.00    0.0601612   -0.0011803    0.0235753
c    -5.0094000    2.5056935   -0.0286923  0.00    0.0045104    0.0037845    0.0024831
h    -5.0476912    2.6942155   -1.1309231  0.00    0.0009940    0.0007195   -0.0060997
h    -5.0467579    3.4959045    0.4893489  0.00   -0.0006410    0.0063740    0.0028717
h    -5.9026512    1.9139624    0.2747054  0.00   -0.0032613   -0.0008290    0.0003486
n    -3.6811616    0.4085349   -0.3204123  0.00    0.0069890   -0.0204600   -0.0042000
h    -3.6577692    1.6169529    1.4334762  0.00   -0.0000226    0.0000420    0.0056434
h    -4.5808830    0.1959140   -0.8139428  0.00   -0.0020970    0.0018958   -0.0010362
h    -2.9238665    0.3438635   -1.0496612  0.00    0.0047598   -0.0018329   -0.0043042
o    -1.2186764    2.1778956    0.3490804  0.00   -0.0384986    0.0064462   -0.0227051
o    -2.6067769    3.7278507   -0.7935258  0.00   -0.0202728   -0.0444635   -0.0350097
h    -2.0705087    4.4762371   -0.3221263  0.00    0.0054922    0.0299469    0.0325359
    13
 Energy =       0.0627941523
c    -3.7189113    1.7458310    0.3075984  0.00   -0.0166934    0.0175096    0.0064315
c    -2.4838716    2.6122559    0.0261628  0.00    0.0564011   -0.0050539    0.0246446
c    -5.0280753    2.4705457   -0.0785199  0.00    0.0034384    0.0030386    0.0024121
h    -5.0338853    2.6746042   -1.1785056  0.00    0.0009547    0.0006255   -0.0062254
h    -5.1043523    3.4525047    0.4516073  0.00   -0.0006190    0.0064895    0.0031130
h    -5.9175347    1.8545667    0.1877202  0.00   -0.0038372   -0.0011399    0.0005080
n    -3.6418807    0.4115574   -0.3582777  0.00    0.0063180   -0.0195246   -0.0017053
h    -3.7094438    1.5887103    1.4164552  0.00   -0.0000962    0.0002454    0.0060424
h    -4.5124613    0.1926836   -0.9020866  0.00   -0.0040699    0.0008355   -0.0024685
h    -2.8457248    0.3700234   -1.0486680  0.00    0.0064427   -0.0019550   -0.0058798
o    -1.2346241    2.1853770    0.3760184  0.00   -0.0347765    0.0050681   -0.0203526
o    -2.6328886    3.8173363   -0.6492699  0.00   -0.0203853   -0.0354131   -0.0381253
h    -2.0524425    4.5218209   -0.1633732  0.00    0.0069226    0.0292744    0.0316053
    13
 Energy =       0.0608866727
c    -3.7259766    1.7397803    0.2918745  0.00   -0.0130561    0.0133111    0.0057377
c    -2.5031343    2.6355597    0.0491139  0.00    0.0445063   -0.0099877    0.0247185
c    -5.0438828    2.4406273   -0.1071026  0.00    0.0022635    0.0021415    0.0019781
h    -5.0360165    2.6613396   -1.2026449  0.00    0.0008953    0.0005540   -0.0052628
h    -5.1492574    3.4126992    0.4349008  0.00   -0.0004831    0.0057227    0.0027465
h    -5.9238533    1.8025793    0.1366808  0.00   -0.0035454   -0.0010904    0.0005044
n    -3.6138920    0.4170163   -0.3881133  0.00    0.0050352   -0.0162513   -0.0005155
h    -3.7337712    1.5679627    1.3975250  0.00   -0.0001308    0.0002860    0.0050980
h    -4.4635865    0.1929021   -0.9623876  0.00   -0.0041727    0.0003103   -0.0026641
h    -2.7950091    0.3919430   -1.0517249  0.00    0.0061134   -0.0016473   -0.0054758
o    -1.2348524    2.1681950    0.3018526  0.00   -0.0225148   -0.0015354   -0.0145572
o    -2.6779964    3.9130916   -0.4905168  0.00   -0.0263948   -0.0196763   -0.0433692
h    -2.0148678    4.5541208   -0.0225959  0.00    0.0114839    0.0278629    0.0310613
    13
 Energy =       0.0580619482
c    -3.7049641    1.7355834    0.2903069  0.00   -0.0105487    0.0101484    0.0056515
c    -2.5330070    2.6956902    0.0411805  0.00    0.0294281   -0.0066113    0.0172427
c    -5.0650384    2.3710560   -0.0795508  0.00    0.0009301    0.0032395    0.0013232
h    -5.0916876    2.5952181   -1.1734805  0.00    0.0005854    0.0006952   -0.0046807
h    -5.2062962    3.3353954    0.4670364  0.00   -0.0005824    0.0052654    0.0023720
h    -5.9070382    1.6885315    0.1818512  0.00   -0.0041860   -0.0019292    0.0010658
n    -3.5378424    0.4252119   -0.3996236  0.00    0.0042383   -0.0149125    0.0002220
h    -3.6871236    1.5543158    1.3939403  0.00   -0.0000121   -0.0000696    0.0044288
h    -4.3771826    0.1687379   -0.9755786  0.00   -0.0041495   -0.0003369   -0.0023440
h    -2.7173081    0.4390299   -1.0608709  0.00    0.0058472   -0.0014211   -0.0051409
o    -1.2424948    2.3269482    0.3762400  0.00   -0.0083930   -0.0039965   -0.0091312
o    -2.7667942    3.9495506   -0.5334811  0.00   -0.0261387   -0.0154798   -0.0381431
h    -2.0793190    4.6125483   -0.1411085  0.00    0.0129812    0.0254084    0.0271338
    13
 Energy =       0.0560210442
c    -3.7167964    1.7251250    0.2839151  0.00   -0.0095605    0.0090609    0.0043492
c    -2.5501737    2.7045998    0.0953690  0.00    0.0187994   -0.0038698    0.0115036
c    -5.0746861    2.3556515   -0.0978702  0.00    0.0009771    0.0025783    0.0011454
h    -5.0827843    2.6062224   -1.1859247  0.00    0.0004937    0.0006132   -0.0042588
h    -5.2361656    3.3042405    0.4690282  0.00   -0.0004583    0.0046353    0.0021779
h    -5.9134467    1.6578231    0.1303743  0.00   -0.0038376   -0.0019151    0.0010186
n    -3.5204231    0.4386321   -0.4400421  0.00    0.0033174   -0.0125932    0.0029855
h    -3.7237448    1.5105940    1.3818052  0.00   -0.0000892   -0.0000709    0.0043900
h    -4.3298394    0.2045849   -1.0686919  0.00   -0.0057024   -0.0014237   -0.0039765
h    -2.6660138    0.4701124   -1.0572775  0.00    0.0068496   -0.0009813   -0.0057631
o    -1.2760382    2.3701145    0.5349931  0.00    0.0004028   -0.0046726   -0.0047076
o    -2.7679666    3.9473285   -0.5063944  0.00   -0.0225574   -0.0127596   -0.0309564
h    -2.0580177    4.6027884   -0.1524227  0.00    0.0113656    0.0213984    0.0220922
    13
 Energy =       0.0536429508
c    -3.7256436    1.7137144    0.2788191  0.00   -0.0069616    0.0067674    0.0023147
c    -2.5743451    2.7188143    0.1541461  0.00    0.0069278   -0.0010203    0.0041222
c    -5.0866883    2.3336895   -0.1017881  0.00    0.0011433    0.0014417    0.0007955
h    -5.0832756    2.6237272   -1.1790858  0.00    0.0003804    0.0004921   -0.0032838
h    -5.2735142    3.2567621    0.4964846  0.00   -0.0003361    0.0035795    0.0017821
h    -5.9144724    1.6127246    0.0876874  0.00   -0.0029358   -0.0017338    0.0008803
n    -3.4954246    0.4625501   -0.4910189  0.00    0.0014832   -0.0089907    0.0029546
h    -3.7496381    1.4544701    1.3662809  0.00   -0.0002375   -0.0001305    0.0036575
h    -4.2785558    0.2480494   -1.1579082  0.00   -0.0045064   -0.0017992   -0.0037032
h    -2.6205086    0.5250482   -1.0742639  0.00    0.0054986   -0.0005871   -0.0046113
o    -1.3245398    2.4224375    0.6937463  0.00    0.0069719   -0.0041305    0.0003122
o    -2.7733446    3.9456948   -0.4805305  0.00   -0.0184799   -0.0108115   -0.0198558
h    -2.0161456    4.5801349   -0.2057073  0.00    0.0110520    0.0169229    0.0146349
    13
 Energy =       0.0519735511
c    -3.7268008    1.7002358    0.2779834  0.00   -0.0041403    0.0051428    0.0005252
c    -2.5921973    2.7250613    0.2065835  0.00   -0.0016090   -0.0016496    0.0006036
c    -5.0951514    2.3210407   -0.0683347  0.00    0.0008949    0.0002336    0.0006915
h    -5.0977092    2.6679532   -1.1283736  0.00    0.0002191    0.0006537   -0.0027076
h    -5.2946679    3.2070019    0.5783491  0.00   -0.0003768    0.0027701    0.0014657
h    -5.9104592    1.5789076    0.0824590  0.00   -0.0015614   -0.0013385    0.0006401
n    -3.4799996    0.4987839   -0.5592765  0.00   -0.0005485   -0.0063809    0.0006857
h    -3.7466208    1.3800792    1.3489394  0.00   -0.0002418   -0.0005004    0.0030582
h    -4.2672049    0.2989162   -1.2224035  0.00   -0.0014402   -0.0008690   -0.0015838
h    -2.6188868    0.6130227   -1.1524634  0.00    0.0036962   -0.0007346   -0.0031462
o    -1.3809287    2.4719441    0.8524994  0.00    0.0101515   -0.0045144    0.0044375
o    -2.7533639    3.9142942   -0.5060730  0.00   -0.0143122   -0.0050103   -0.0110961
h    -1.9521059    4.5205761   -0.3230276  0.00    0.0092685    0.0121976    0.0064261
    13
 Energy =       0.0512101768
c    -3.7132610    1.6846255    0.2737228  0.00   -0.0008354    0.0048704    0.0011273
c    -2.5898254    2.7182959    0.2066430  0.00   -0.0025928   -0.0040037    0.0021324
c    -5.0992045    2.3198301    0.0270739  0.00   -0.0020995   -0.0001983    0.0014299
h    -5.1505564    2.7315295   -1.0101502  0.00   -0.0002097    0.0014899   -0.0041476
h    -5.2757473    3.1620938    0.7371022  0.00   -0.0010201    0.0033784    0.0022526
h    -5.9030130    1.5644771    0.1658138  0.00   -0.0006775   -0.0006808    0.0005008
n    -3.4995554    0.5370996   -0.6455893  0.00    0.0017325   -0.0063598    0.0000020
h    -3.6822614    1.3006958    1.3248631  0.00    0.0001191   -0.0011530    0.0043300
h    -4.3128991    0.3772419   -1.2884501  0.00   -0.0017313   -0.0012022   -0.0025433
h    -2.6658492    0.6914105   -1.2675985  0.00    0.0030999   -0.0008213   -0.0031514
o    -1.4120247    2.5132509    0.9251071  0.00    0.0079055   -0.0043209    0.0044796
o    -2.7151435    3.8542194   -0.5966312  0.00   -0.0084351    0.0023118   -0.0088313
h    -1.8967555    4.4430471   -0.4650454  0.00    0.0047444    0.0066894    0.0024192
    13
 Energy =       0.0505676715
c    -3.7016021    1.6716137    0.2675402  0.00    0.0010768    0.0023565    0.0008139
c    -2.5901180    2.7153133    0.1996294  0.00   -0.0053094   -0.0047862    0.0015529
c    -5.0979255    2.3133601    0.1238167  0.00   -0.0022449   -0.0003758    0.0010981
h    -5.1961398    2.7910196   -0.8804517  0.00   -0.0003292    0.0012906   -0.0030866
h    -5.2480844    3.1031291    0.8958553  0.00   -0.0009088    0.0023780    0.0018376
h    -5.8912991    1.5450142    0.2451537  0.00   -0.0000710   -0.0002443    0.0002539
n    -3.5305644    0.5817816   -0.7251101  0.00    0.0030189   -0.0032299   -0.0008177
h    -3.6192552    1.2286535    1.2911388  0.00    0.0001437   -0.0008784    0.0028591
h    -4.3614600    0.4759236   -1.3561452  0.00   -0.0013800   -0.0011011   -0.0022338
h    -2.7149965    0.7674660   -1.3592011  0.00    0.0004493   -0.0003532   -0.0008324
o    -1.4672856    2.5912450    1.0202291  0.00    0.0089090   -0.0045844    0.0074776
o    -2.6635545    3.7702169   -0.7142878  0.00   -0.0037305    0.0082242   -0.0084221
h    -1.8338113    4.3430804   -0.6213059  0.00    0.0003760    0.0013039   -0.0005005
    13
 Energy =       0.0501324303
c    -3.6854525    1.6525882    0.2471453  0.00    0.0016565    0.0029846    0.0019693
c    -2.5801169    2.7017973    0.1768042  0.00   -0.0027368   -0.0002579   -0.0006217
c    -5.0852294    2.3042745    0.2216893  0.00   -0.0030087   -0.0005271    0.0011013
h    -5.2353885    2.8485845   -0.7423127  0.00   -0.0007422    0.0018435   -0.0035759
h    -5.1922317    3.0383909    1.0546084  0.00   -0.0009694    0.0026877    0.0027648
h    -5.8738856    1.5294893    0.3319105  0.00   -0.0000640   -0.0001347    0.0001872
n    -3.5749143    0.6254955   -0.8201936  0.00    0.0037161   -0.0045655   -0.0010922
h    -3.5464288    1.1472785    1.2361940  0.00    0.0005025   -0.0014055    0.0035890
h    -4.4345519    0.5744161   -1.4199718  0.00   -0.0024848   -0.0009351   -0.0030570
h    -2.7873869    0.8439415   -1.4801150  0.00    0.0010867   -0.0003307   -0.0020191
o    -1.5051055    2.6450002    1.0611147  0.00    0.0047644   -0.0019548    0.0036558
o    -2.6177139    3.7011768   -0.7920953  0.00   -0.0020294    0.0025885   -0.0031990
h    -1.7976904    4.2853836   -0.6879166  0.00    0.0003091    0.0000071    0.0002974
    13
 Energy =       0.0498767974
c    -3.6814428    1.6484146    0.2417492  0.00    0.0008785    0.0009300    0.0010376
c    -2.5762671    2.6965206    0.1619657  0.00   -0.0056696   -0.0025780   -0.0012624
c    -5.0754543    2.3053138    0.2681180  0.00   -0.0012610   -0.0001718    0.0003344
h    -5.2463867    2.8731284   -0.6759516  0.00   -0.0002386    0.0006326   -0.0013500
h    -5.1568919    3.0161238    1.1210113  0.00   -0.0003966    0.0010470    0.0010590
h    -5.8654338    1.5318817    0.3782753  0.00   -0.0000335   -0.0000244    0.0000411
n    -3.6064789    0.6455254   -0.8480191  0.00    0.0016389   -0.0017336   -0.0003385
h    -3.5183061    1.1218787    1.2134416  0.00    0.0001011   -0.0004815    0.0013673
h    -4.4790795    0.6173377   -1.4280607  0.00   -0.0010991   -0.0003689   -0.0012636
h    -2.8336058    0.8739213   -1.5208765  0.00    0.0004334   -0.0000668   -0.0007327
o    -1.5675323    2.7247180    1.1280040  0.00    0.0084560   -0.0028264    0.0097437
o    -2.5581742    3.6213333   -0.8832967  0.00   -0.0033835    0.0055162   -0.0090184
h    -1.7510430    4.2217196   -0.7694991  0.00    0.0005738    0.0001257    0.0003823
    13
 Energy =       0.0496654615
c    -3.6686620    1.6312180    0.2166823  0.00    0.0021513    0.0027246    0.0025219
c    -2.5597108    2.6747240    0.1324239  0.00   -0.0012893    0.0001102   -0.0005723
c    -5.0530323    2.2996007    0.3572985  0.00   -0.0031011   -0.0004008    0.0008973
h    -5.2706331    2.9213285   -0.5443747  0.00   -0.0009970    0.0018264   -0.0028617
h    -5.0794486    2.9617793    1.2544211  0.00   -0.0005461    0.0021696    0.0029462
h    -5.8445916    1.5278343    0.4680198  0.00   -0.0001321    0.0000141    0.0000740
n    -3.6654402    0.6878882   -0.9309911  0.00    0.0033559   -0.0046056   -0.0013204
h    -3.4559454    1.0499114    1.1490279  0.00    0.0009046   -0.0015126    0.0031204
h    -4.5691553    0.7027787   -1.4647176  0.00   -0.0032156   -0.0004519   -0.0030138
h    -2.9273878    0.9457996   -1.6333978  0.00    0.0012847   -0.0001377   -0.0025042
o    -1.5849988    2.7419932    1.1235194  0.00    0.0024024   -0.0008397    0.0023402
o    -2.5187212    3.5723774   -0.9296828  0.00   -0.0009952    0.0010552   -0.0017256
h    -1.7183691    4.1805837   -0.8113676  0.00    0.0001775    0.0000481    0.0000980
    13
 Energy =       0.0495377707
c    -3.6692144    1.6308063    0.2124255  0.00    0.0005106    0.0006432    0.0007307
c    -2.5595756    2.6735306    0.1279569  0.00   -0.0035147   -0.0017937   -0.0018594
c    -5.0473491    2.2988527    0.3745138  0.00   -0.0007140   -0.0000570    0.0001818
h    -5.2723770    2.9291046   -0.5162019  0.00   -0.0001887    0.0003992   -0.0007023
h    -5.0613390    2.9500777    1.2768161  0.00   -0.0001530    0.0005252    0.0006790
h    -5.8395886    1.5279112    0.4862956  0.00   -0.0000293    0.0000025    0.0000112
n    -3.6817750    0.7002917   -0.9415871  0.00    0.0008342   -0.0011162   -0.0002404
h    -3.4487195    1.0402284    1.1340734  0.00    0.0001453   -0.0003791    0.0007441
h    -4.5903233    0.7213241   -1.4630214  0.00   -0.0007520   -0.0001062   -0.0007295
h    -2.9524097    0.9655605   -1.6488392  0.00    0.0003468    0.0000640   -0.0005727
o    -1.6493352    2.8126250    1.1754795  0.00    0.0049796   -0.0008357    0.0072146
o    -2.4657327    3.5123480   -0.9807474  0.00   -0.0019428    0.0024756   -0.0057907
h    -1.6783573    4.1351560   -0.8503023  0.00    0.0004780    0.0001782    0.0003337
    13
 Energy =       0.0494697809
c    -3.6637486    1.6225768    0.1960535  0.00    0.0007107    0.0007896    0.0008106
c    -2.5492372    2.6600792    0.1084058  0.00    0.0002657    0.0002543    0.0001062
c    -5.0304299    2.2951771    0.4249428  0.00   -0.0009574   -0.0000951    0.0002564
h    -5.2810464    2.9537627   -0.4381097  0.00   -0.0003419    0.0005487   -0.0007837
h    -5.0084376    2.9182724    1.3471114  0.00   -0.0000980    0.0006019    0.0009321
h    -5.8245426    1.5266975    0.5405137  0.00   -0.0000695    0.0000170    0.0000157
n    -3.7223142    0.7276488   -0.9848567  0.00    0.0009620   -0.0014511   -0.0003452
h    -3.4169961    1.0022794    1.0913147  0.00    0.0003413   -0.0004613    0.0008671
h    -4.6490215    0.7683347   -1.4724982  0.00   -0.0011544   -0.0000650   -0.0009069
h    -3.0171083    1.0109486   -1.7097340  0.00    0.0004793    0.0000080   -0.0009253
o    -1.6597077    2.8197335    1.1641228  0.00   -0.0000920   -0.0000797   -0.0003144
o    -2.4391416    3.4835178   -1.0061980  0.00   -0.0000187   -0.0000506    0.0003097
h    -1.6543645    4.1087885   -0.8742064  0.00   -0.0000269   -0.0000167   -0.0000222
    13
 Energy =       0.0494601066
c    -3.6658442    1.6242135    0.1967605  0.00    0.0001379    0.0001657    0.0001816
c    -2.5506400    2.6612534    0.1111801  0.00   -0.0004398   -0.0003374   -0.0002202
c    -5.0317498    2.2970475    0.4218463  0.00   -0.0001941   -0.0000148    0.0000560
h    -5.2801974    2.9542227   -0.4419067  0.00   -0.0000675    0.0001112   -0.0001590
h    -5.0109420    2.9209112    1.3425831  0.00   -0.0000180    0.0001188    0.0001880
h    -5.8263463    1.5290368    0.5371718  0.00   -0.0000134    0.0000030    0.0000033
n    -3.7226058    0.7280798   -0.9820824  0.00    0.0001964   -0.0002979   -0.0000772
h    -3.4217190    1.0051113    1.0926165  0.00    0.0000673   -0.0001004    0.0001736
h    -4.6483785    0.7668254   -1.4702130  0.00   -0.0002338   -0.0000092   -0.0001819
h    -3.0170816    1.0111704   -1.7061161  0.00    0.0000994    0.0000205   -0.0001802
o    -1.6899934    2.8501608    1.1869941  0.00    0.0006496   -0.0000510    0.0011361
o    -2.4150410    3.4594975   -1.0197166  0.00   -0.0002502    0.0003631   -0.0009715
h    -1.6355574    4.0902866   -0.8822562  0.00    0.0000664    0.0000285    0.0000515
    13
 Energy =       0.0494590215
c    -3.6657154    1.6240963    0.1961962  0.00    0.0000002    0.0000005    0.0000003
c    -2.5505912    2.6612606    0.1107737  0.00   -0.0000006    0.0000002   -0.0000002
c    -5.0312683    2.2964764    0.4228683  0.00   -0.0000006   -0.0000001    0.0000001
h    -5.2803383    2.9542995   -0.4399656  0.00   -0.0000001    0.0000003   -0.0000008
h    -5.0097089    2.9194887    1.3439192  0.00   -0.0000002    0.0000005    0.0000004
h    -5.8257212    1.5283235    0.5382133  0.00   -0.0000000   -0.0000000    0.0000000
n    -3.7233971    0.7290172   -0.9830824  0.00    0.0000005   -0.0000011    0.0000007
h    -3.4210044    1.0043192    1.0911843  0.00    0.0000000   -0.0000003    0.0000007
h    -4.6495483    0.7677118   -1.4701384  0.00   -0.0000007    0.0000001   -0.0000007
h    -3.0186937    1.0129085   -1.7074384  0.00    0.0000009    0.0000000   -0.0000009
o    -1.6910995    2.8511491    1.1864136  0.00    0.0000014   -0.0000007    0.0000003
o    -2.4141091    3.4588628   -1.0198310  0.00   -0.0000009    0.0000007   -0.0000003
h    -1.6349010    4.0899034   -0.8822517  0.00    0.0000001   -0.0000001    0.0000002
    13
 Energy =       0.0494590211
c    -3.6657104    1.6240951    0.1961767  0.00   -0.0000000    0.0000000   -0.0000000
c    -2.5506013    2.6612786    0.1107755  0.00   -0.0000000   -0.0000000   -0.0000000
c    -5.0312646    2.2964486    0.4229108  0.00   -0.0000000    0.0000000    0.0000000
h    -5.2803688    2.9543006   -0.4398899  0.00   -0.0000000    0.0000000   -0.0000000
h    -5.0096867    2.9194240    1.3439860  0.00   -0.0000000    0.0000000    0.0000000
h    -5.8257041    1.5282808    0.5382494  0.00   -0.0000000   -0.0000000    0.0000000
n    -3.7234121    0.7290586   -0.9831328  0.00    0.0000000   -0.0000000    0.0000000
h    -3.4209683    1.0042868    1.0911338  0.00   -0.0000000   -0.0000000    0.0000000
h    -4.6495787    0.7677527   -1.4701580  0.00   -0.0000000    0.0000000   -0.0000000
h    -3.0187363    1.0129878   -1.7074999  0.00    0.0000000    0.0000000   -0.0000000
o    -1.6913446    2.8514087    1.1865599  0.00    0.0000000    0.0000000    0.0000001
o    -2.4139362    3.4586972   -1.0199369  0.00   -0.0000000    0.0000000   -0.0000001
h    -1.6347842    4.0897974   -0.8823133  0.00    0.0000000    0.0000000    0.0000000
