    24
 Energy =       0.1295904785
c    -0.3750178    1.6472058    0.7948734  0.00   -0.0692141    0.0376245    0.0640632
c     0.0303172    2.8109335    0.1570437  0.00   -0.0612863    0.0772383    0.0473578
c     1.0081136    2.7718125   -0.8262434  0.00    0.0160470    0.0873873   -0.0344062
c     0.2069418    0.4293490    0.4310970  0.00   -0.0250400   -0.0564939    0.0332190
c     1.2047783    0.3610782   -0.5608861  0.00    0.1072776   -0.0538495   -0.0471117
c     1.5988173    1.5541349   -1.1780186  0.00    0.0404693   -0.0079755   -0.0375954
o    -0.5069839    4.0230167    0.4710260  0.00   -0.0141069   -0.0328296    0.0220305
h    -1.1463012    3.9010909    1.1919392  0.00    0.0549660   -0.0261525   -0.0529471
h     2.3707231    1.5818724   -1.9364796  0.00   -0.0025174    0.0149922    0.0039201
h    -0.1206493   -0.4779662    0.9373943  0.00   -0.0008307    0.0003761    0.0028187
h    -1.1350442    1.6632136    1.5694669  0.00    0.0004214   -0.0026891    0.0011194
h     1.3163936    3.6907012   -1.3176857  0.00    0.0031498   -0.0003833   -0.0043050
c     1.7669373   -1.0073413   -0.8964724  0.00   -0.0121246   -0.0512563   -0.0113708
c     0.8861134   -2.0194266   -1.6556448  0.00    0.0758362    0.1096367    0.0505280
h     2.1212937   -1.4658931    0.0371405  0.00   -0.0020630    0.0076344   -0.0148532
h     2.6645729   -0.8285312   -1.5058794  0.00   -0.0143170    0.0005993    0.0039885
c     1.7481012   -3.2276699   -2.0845864  0.00   -0.0522959   -0.2842747   -0.2721736
o     1.5179317   -3.9787875   -3.0189800  0.00    0.0533957    0.1706808    0.2290655
o     2.8094516   -3.3865268   -1.2478409  0.00   -0.0465770    0.0638056    0.0149050
h     3.6039452   -3.4205235   -1.8388655  0.00   -0.0347780    0.0241902    0.0098348
n    -0.2697763   -2.5678537   -0.8742070  0.00   -0.0652891   -0.0932767   -0.0278613
h     0.4960411   -1.5757973   -2.5789902  0.00   -0.0082566   -0.0162627    0.0205026
h    -1.1308243   -2.1540904   -1.2498506  0.00    0.0311121   -0.0166818    0.0055635
h    -0.3593670   -3.5651556   -1.0813225  0.00    0.0260216    0.0479602   -0.0062925
    24
 Energy =       0.1149836520
c    -0.3881561    1.6391632    0.7457528  0.00   -0.0594140    0.0324094    0.0549996
c     0.0021281    2.8017176    0.1056469  0.00   -0.0525427    0.0663137    0.0406914
c     0.9750280    2.7673338   -0.8752821  0.00    0.0138540    0.0750662   -0.0294930
c     0.2014740    0.4297991    0.3878159  0.00   -0.0216663   -0.0486447    0.0284137
c     1.1896552    0.3693936   -0.6048946  0.00    0.0918082   -0.0458151   -0.0405402
c     1.5719392    1.5589188   -1.2241632  0.00    0.0348025   -0.0068656   -0.0322972
o    -0.5513449    4.0125187    0.4177732  0.00   -0.0121491   -0.0280469    0.0187607
h    -1.1883087    3.8975972    1.1500467  0.00    0.0471956   -0.0225536   -0.0453598
h     2.3436351    1.5864466   -1.9837216  0.00   -0.0021453    0.0128231    0.0033804
h    -0.1098681   -0.4776342    0.9035791  0.00   -0.0008065   -0.0001999    0.0022256
h    -1.1458221    1.6526757    1.5225986  0.00    0.0003533   -0.0023183    0.0009662
h     1.2736213    3.6880611   -1.3686924  0.00    0.0027232   -0.0002862   -0.0037172
c     1.7894655   -0.9833272   -0.9353412  0.00   -0.0108630   -0.0419848   -0.0096238
c     0.8968946   -2.0470531   -1.6142557  0.00    0.0665341    0.0935856    0.0422629
h     2.2117964   -1.3983230   -0.0033052  0.00   -0.0004174    0.0056114   -0.0100079
h     2.6479694   -0.7964018   -1.6036586  0.00   -0.0103373    0.0015611    0.0020993
c     1.7622991   -3.2570674   -2.0131284  0.00   -0.0457185   -0.2450608   -0.2344208
o     1.5357180   -4.0266660   -2.9634947  0.00    0.0461239    0.1465800    0.1968401
o     2.8391875   -3.4075469   -1.1890467  0.00   -0.0462837    0.0543416    0.0181023
h     3.6385901   -3.3446268   -1.7854633  0.00   -0.0235472    0.0214812    0.0033837
n    -0.2219513   -2.5556148   -0.7625059  0.00   -0.0563590   -0.0800768   -0.0209830
h     0.4702767   -1.6558571   -2.5516598  0.00   -0.0073421   -0.0132820    0.0152858
h    -1.1016902   -2.1313272   -1.0910975  0.00    0.0244335   -0.0138378    0.0046724
h    -0.3360277   -3.5633341   -0.9254742  0.00    0.0217637    0.0391992   -0.0056410
    24
 Energy =       0.1097712116
c    -0.3939799    1.6325092    0.7600696  0.00   -0.0560149    0.0305470    0.0518836
c     0.0039637    2.7893309    0.1174544  0.00   -0.0495369    0.0624751    0.0383849
c     0.9808449    2.7461037   -0.8567861  0.00    0.0130565    0.0707966   -0.0278055
c     0.1928106    0.4211937    0.4124288  0.00   -0.0204581   -0.0458601    0.0268363
c     1.1887738    0.3542438   -0.5687988  0.00    0.0863987   -0.0431497   -0.0385332
c     1.5763682    1.5360452   -1.1945448  0.00    0.0327506   -0.0063906   -0.0304811
o    -0.5475226    4.0053782    0.4197166  0.00   -0.0113713   -0.0263651    0.0175459
h    -1.1826609    3.9041634    1.1582813  0.00    0.0443883   -0.0212577   -0.0426124
h     2.3530962    1.5542595   -1.9494660  0.00   -0.0019789    0.0121028    0.0031327
h    -0.1281603   -0.4844053    0.9261628  0.00   -0.0007838   -0.0003407    0.0020864
h    -1.1584835    1.6530716    1.5300325  0.00    0.0002814   -0.0021849    0.0009641
h     1.2842323    3.6633826   -1.3535538  0.00    0.0025731   -0.0002454   -0.0035152
c     1.7900046   -1.0011710   -0.8822525  0.00   -0.0115816   -0.0376162   -0.0090051
c     0.9144436   -2.0241577   -1.6411961  0.00    0.0641570    0.0873291    0.0384046
h     2.1353423   -1.4525850    0.0690414  0.00    0.0006498    0.0041105   -0.0060937
h     2.7018420   -0.8177204   -1.4831990  0.00   -0.0067175    0.0022743    0.0002748
c     1.7713375   -3.2427216   -2.0316926  0.00   -0.0426409   -0.2309112   -0.2213277
o     1.5285374   -4.0111505   -2.9895398  0.00    0.0434644    0.1381269    0.1854286
o     2.8425729   -3.4214515   -1.2043495  0.00   -0.0456023    0.0506065    0.0197186
h     3.6480497   -3.2998978   -1.7883273  0.00   -0.0200548    0.0205875    0.0009671
n    -0.2588602   -2.5224201   -0.8544710  0.00   -0.0530629   -0.0784383   -0.0158301
h     0.5491287   -1.5920797   -2.5893589  0.00   -0.0075820   -0.0115414    0.0119378
h    -1.1155701   -2.0992178   -1.2498506  0.00    0.0193867   -0.0115590    0.0030681
h    -0.3696018   -3.5318578   -1.0177726  0.00    0.0202792    0.0369042   -0.0054294
    24
 Energy =       0.0982082039
c    -0.4113276    1.6159033    0.7545011  0.00   -0.0452637    0.0248171    0.0420196
c    -0.0141590    2.7633481    0.1046311  0.00   -0.0400574    0.0503439    0.0311800
c     0.9623913    2.7097763   -0.8614972  0.00    0.0105509    0.0572970   -0.0223469
c     0.1761190    0.4070637    0.4252719  0.00   -0.0165233   -0.0371261    0.0215899
c     1.1735366    0.3345659   -0.5437026  0.00    0.0694875   -0.0348709   -0.0313915
c     1.5589148    1.5029087   -1.1822862  0.00    0.0263721   -0.0049931   -0.0246268
o    -0.5711563    3.9861857    0.3932931  0.00   -0.0088636   -0.0211860    0.0134870
h    -1.2000105    3.9094379    1.1491051  0.00    0.0355920   -0.0172379   -0.0338391
h     2.3394666    1.5074934   -1.9343610  0.00   -0.0015288    0.0097903    0.0024852
h    -0.1458513   -0.4942875    0.9455321  0.00   -0.0006251   -0.0003375    0.0016988
h    -1.1811719    1.6455776    1.5187280  0.00    0.0001780   -0.0017454    0.0008234
h     1.2649495    3.6227673   -1.3660334  0.00    0.0020798   -0.0001443   -0.0028463
c     1.7975959   -1.0146839   -0.8345853  0.00   -0.0101938   -0.0298599   -0.0074018
c     0.9496053   -2.0103550   -1.6557373  0.00    0.0530483    0.0698174    0.0297968
h     2.0776783   -1.4895024    0.1307476  0.00    0.0010503    0.0025407   -0.0027437
h     2.7500345   -0.8304682   -1.3746948  0.00   -0.0030297    0.0018571   -0.0009419
c     1.8001596   -3.2380395   -2.0212644  0.00   -0.0325815   -0.1861679   -0.1800233
o     1.5377339   -4.0136804   -3.0012449  0.00    0.0354537    0.1120569    0.1496670
o     2.8712732   -3.4530840   -1.1960896  0.00   -0.0619957    0.0306394    0.0370115
h     3.6841185   -3.1411446   -1.7357272  0.00    0.0073063    0.0268095   -0.0186682
n    -0.2694130   -2.4729687   -0.9219994  0.00   -0.0432399   -0.0651271   -0.0090566
h     0.6459464   -1.5527110   -2.6178961  0.00   -0.0066149   -0.0085480    0.0076862
h    -1.1003564   -2.0457613   -1.3762092  0.00    0.0129261   -0.0078562    0.0009655
h    -0.3895685   -3.4894956   -1.0604536  0.00    0.0164725    0.0292311   -0.0045246
    24
 Energy =       0.0881714822
c    -0.4160980    1.6287426    0.7334782  0.00   -0.0383017    0.0210045    0.0355827
c    -0.0193821    2.7669248    0.0732983  0.00   -0.0339061    0.0424909    0.0264389
c     0.9546988    2.7013514   -0.8895164  0.00    0.0089340    0.0485262   -0.0188303
c     0.1699562    0.4197057    0.4203592  0.00   -0.0139602   -0.0314960    0.0181767
c     1.1652473    0.3382033   -0.5433482  0.00    0.0586141   -0.0295120   -0.0265977
c     1.5496005    1.4945264   -1.1955906  0.00    0.0222925   -0.0041159   -0.0208309
o    -0.5766753    3.9963568    0.3502157  0.00   -0.0071742   -0.0177931    0.0108050
h    -1.1954491    3.9409565    1.1219956  0.00    0.0297994   -0.0145866   -0.0280524
h     2.3309900    1.4858645   -1.9473674  0.00   -0.0012342    0.0082802    0.0020543
h    -0.1512373   -0.4758100    0.9507966  0.00   -0.0005392   -0.0003619    0.0014547
h    -1.1871039    1.6685504    1.4959913  0.00    0.0001116   -0.0014742    0.0007308
h     1.2571752    3.6089923   -1.4033057  0.00    0.0017693   -0.0000595   -0.0024255
c     1.8014147   -1.0088295   -0.8158036  0.00   -0.0086528   -0.0254680   -0.0063975
c     0.9620012   -2.0033008   -1.6449826  0.00    0.0453197    0.0591859    0.0250210
h     2.0617034   -1.4814701    0.1568265  0.00    0.0009519    0.0020885   -0.0021425
h     2.7667617   -0.8336402   -1.3375219  0.00   -0.0021447    0.0011941   -0.0009487
c     1.8079751   -3.2391611   -1.9802278  0.00   -0.0271278   -0.1565708   -0.1526322
o     1.5354778   -4.0405450   -2.9595740  0.00    0.0298977    0.0941498    0.1266149
o     2.8700022   -3.4710963   -1.1432026  0.00   -0.0666730    0.0220105    0.0417836
h     3.7076351   -3.2998978   -1.7199864  0.00    0.0200709    0.0266250   -0.0257965
n    -0.2747381   -2.4316748   -0.9257164  0.00   -0.0367948   -0.0547009   -0.0067093
h     0.6867283   -1.5497299   -2.6191593  0.00   -0.0056394   -0.0070441    0.0060863
h    -1.0928628   -2.0029353   -1.4051016  0.00    0.0104556   -0.0062648    0.0004744
h    -0.4073119   -3.4532379   -1.0345287  0.00    0.0139312    0.0238922   -0.0038598
    24
 Energy =       0.0800476877
c    -0.4122571    1.6463452    0.7079806  0.00   -0.0316861    0.0173165    0.0294352
c    -0.0172776    2.7736556    0.0338955  0.00   -0.0280681    0.0350179    0.0218918
c     0.9508020    2.6933467   -0.9290962  0.00    0.0074265    0.0401759   -0.0155021
c     0.1709699    0.4361565    0.4119184  0.00   -0.0115368   -0.0261578    0.0149269
c     1.1610387    0.3428306   -0.5497529  0.00    0.0482736   -0.0244453   -0.0219762
c     1.5425548    1.4855329   -1.2196426  0.00    0.0184311   -0.0032421   -0.0172236
o    -0.5717150    4.0106676    0.2997862  0.00   -0.0052967   -0.0145410    0.0078138
h    -1.1707805    3.9798566    1.0942418  0.00    0.0240250   -0.0120426   -0.0220788
h     2.3219080    1.4618149   -1.9738402  0.00   -0.0009396    0.0068501    0.0016247
h    -0.1481684   -0.4518850    0.9557860  0.00   -0.0004756   -0.0004206    0.0012429
h    -1.1816793    1.6984080    1.4713173  0.00    0.0000345   -0.0012267    0.0006561
h     1.2521391    3.5942059   -1.4550697  0.00    0.0014882    0.0000480   -0.0020437
c     1.8070306   -1.0030514   -0.8036944  0.00   -0.0072107   -0.0210978   -0.0053968
c     0.9713567   -2.0003105   -1.6317989  0.00    0.0380632    0.0493161    0.0203497
h     2.0542266   -1.4691220    0.1760971  0.00    0.0008051    0.0017070   -0.0016459
h     2.7800433   -0.8368639   -1.3149932  0.00   -0.0015929    0.0008056   -0.0008601
c     1.8051381   -3.2519277   -1.9291821  0.00   -0.0222071   -0.1282747   -0.1265526
o     1.5187259   -4.0797351   -2.9047148  0.00    0.0245817    0.0768914    0.1045956
o     2.8508569   -3.5073609   -1.0732908  0.00   -0.0646142    0.0162493    0.0418180
h     3.7017995   -3.4586509   -1.6580917  0.00    0.0264993    0.0233542   -0.0281301
n    -0.2839017   -2.3836291   -0.9241403  0.00   -0.0308348   -0.0443287   -0.0042241
h     0.7252943   -1.5575917   -2.6203796  0.00   -0.0046562   -0.0055588    0.0045057
h    -1.0873415   -1.9545665   -1.4310265  0.00    0.0080881   -0.0046830   -0.0000492
h    -0.4342547   -3.4092802   -0.9942807  0.00    0.0114024    0.0182871   -0.0031773
    24
 Energy =       0.0751616688
c    -0.3872576    1.6745587    0.6809801  0.00   -0.0269676    0.0145532    0.0250191
c     0.0082547    2.7883976   -0.0110574  0.00   -0.0238753    0.0295966    0.0185658
c     0.9649892    2.6873996   -0.9801726  0.00    0.0064198    0.0341372   -0.0132037
c     0.1864859    0.4594506    0.4003147  0.00   -0.0098525   -0.0223344    0.0126551
c     1.1664454    0.3474940   -0.5654020  0.00    0.0408742   -0.0208315   -0.0185966
c     1.5469816    1.4746114   -1.2566531  0.00    0.0157138   -0.0025713   -0.0146818
o    -0.5337955    4.0356080    0.2459533  0.00   -0.0034664   -0.0121271    0.0048688
h    -1.1020478    4.0329926    1.0682936  0.00    0.0193034   -0.0101028   -0.0168793
h     2.3196161    1.4320198   -2.0174838  0.00   -0.0006415    0.0058224    0.0012188
h    -0.1321650   -0.4184020    0.9607473  0.00   -0.0004729   -0.0005212    0.0011466
h    -1.1503411    1.7435143    1.4494439  0.00   -0.0001033   -0.0010593    0.0006862
h     1.2668533    3.5790250   -1.5213095  0.00    0.0013202    0.0001786   -0.0018170
c     1.8103657   -1.0026487   -0.8032312  0.00   -0.0062335   -0.0175646   -0.0046103
c     0.9647580   -2.0040153   -1.6160963  0.00    0.0331045    0.0427259    0.0165964
h     2.0535063   -1.4572654    0.1833990  0.00    0.0006532    0.0014660   -0.0012549
h     2.7849115   -0.8519100   -1.3168922  0.00   -0.0012174    0.0006229   -0.0008149
c     1.7722581   -3.2824452   -1.8672706  0.00   -0.0190039   -0.1077832   -0.1079986
o     1.4695010   -4.1339559   -2.8338836  0.00    0.0208365    0.0641215    0.0885494
o     2.7906975   -3.5662287   -0.9830195  0.00   -0.0602978    0.0124058    0.0404539
h     3.6495842   -3.6174040   -1.5561360  0.00    0.0292281    0.0198919   -0.0281607
n    -0.3089188   -2.3279804   -0.9142878  0.00   -0.0270693   -0.0361157   -0.0017718
h     0.7466410   -1.5810295   -2.6212278  0.00   -0.0038251   -0.0043300    0.0031541
h    -1.0954610   -1.8984529   -1.4493222  0.00    0.0062722   -0.0033896   -0.0005478
h    -0.4853539   -3.3544880   -0.9376582  0.00    0.0093006    0.0132089   -0.0025765
    24
 Energy =       0.0733671472
c    -0.3313274    1.7149628    0.6547050  0.00   -0.0244988    0.0129954    0.0227023
c     0.0714487    2.8121354   -0.0575170  0.00   -0.0215664    0.0265587    0.0167126
c     1.0132174    2.6826705   -1.0364090  0.00    0.0059660    0.0308571   -0.0120914
c     0.2223960    0.4894850    0.3868064  0.00   -0.0090696   -0.0202883    0.0115734
c     1.1876802    0.3496247   -0.5882003  0.00    0.0369024   -0.0188478   -0.0167422
c     1.5746136    1.4590649   -1.3015141  0.00    0.0143649   -0.0022513   -0.0134248
o    -0.4464806    4.0730994    0.1909230  0.00   -0.0025153   -0.0105564    0.0031877
h    -0.9881047    4.0993995    1.0335251  0.00    0.0165209   -0.0088668   -0.0137765
h     2.3363318    1.3921191   -2.0720933  0.00   -0.0002882    0.0052237    0.0007985
h    -0.1013950   -0.3750703    0.9648982  0.00   -0.0005407   -0.0006661    0.0011932
h    -1.0840587    1.8069121    1.4312912  0.00   -0.0003524   -0.0009457    0.0008827
h     1.3209804    3.5622008   -1.5939872  0.00    0.0012793    0.0003450   -0.0017738
c     1.8100356   -1.0134976   -0.8150427  0.00   -0.0057315   -0.0149858   -0.0040347
c     0.9345969   -2.0127415   -1.6004250  0.00    0.0310734    0.0402518    0.0133575
h     2.0554038   -1.4550033    0.1773199  0.00    0.0005055    0.0014385   -0.0008825
h     2.7810202   -0.8899333   -1.3432393  0.00   -0.0006806    0.0005817   -0.0009864
c     1.6927901   -3.3324251   -1.7961605  0.00   -0.0182695   -0.0963898   -0.0990905
o     1.3708196   -4.1988933   -2.7525973  0.00    0.0190058    0.0566652    0.0796352
o     2.6637990   -3.6572400   -0.8685529  0.00   -0.0551694    0.0088364    0.0402340
h     3.5347841   -3.7761571   -1.4114655  0.00    0.0302469    0.0175449   -0.0274461
n    -0.3592992   -2.2558950   -0.9017953  0.00   -0.0264458   -0.0302270    0.0011740
h     0.7464449   -1.6169933   -2.6238948  0.00   -0.0031139   -0.0033099    0.0019082
h    -1.1234684   -1.8216283   -1.4668172  0.00    0.0048696   -0.0022997   -0.0011449
h    -0.5757192   -3.2773503   -0.8717294  0.00    0.0075075    0.0083360   -0.0019653
    24
 Energy =       0.0738031217
c    -0.2965297    1.7345262    0.6495619  0.00   -0.0237932    0.0123827    0.0220781
c     0.1059709    2.8247415   -0.0724415  0.00   -0.0208558    0.0253794    0.0161355
c     1.0230396    2.6808010   -1.0725483  0.00    0.0060958    0.0297054   -0.0121153
c     0.2395060    0.5027834    0.3763688  0.00   -0.0088765   -0.0197418    0.0113244
c     1.1867276    0.3498357   -0.6140261  0.00    0.0359004   -0.0183604   -0.0163273
c     1.5684853    1.4512236   -1.3418157  0.00    0.0140991   -0.0022038   -0.0131869
o    -0.3816733    4.0948097    0.1935889  0.00    0.0019523   -0.0102310   -0.0060092
h    -0.8293516    4.1467003    1.0966817  0.00    0.0111119   -0.0075420   -0.0037173
h     2.3154351    1.3730671   -2.1259833  0.00   -0.0000884    0.0050356    0.0005738
h    -0.0813035   -0.3558443    0.9649465  0.00   -0.0005850   -0.0006758    0.0012358
h    -1.0326561    1.8385051    1.4408177  0.00   -0.0005915   -0.0009289    0.0010999
h     1.3300026    3.5552758   -1.6384689  0.00    0.0012846    0.0003607   -0.0017730
c     1.8004643   -1.0178632   -0.8382264  0.00   -0.0056513   -0.0141446   -0.0038413
c     0.9108340   -2.0236245   -1.6002424  0.00    0.0302608    0.0393537    0.0125375
h     2.0575639   -1.4481362    0.1563444  0.00    0.0004823    0.0014099   -0.0006742
h     2.7647300   -0.9044569   -1.3810405  0.00   -0.0005076    0.0005990   -0.0010507
c     1.6495018   -3.3598105   -1.7599272  0.00   -0.0179271   -0.0933724   -0.0964921
o     1.3300318   -4.2386147   -2.7085928  0.00    0.0184285    0.0546378    0.0770777
o     2.5941454   -3.6907600   -0.8060266  0.00   -0.0533635    0.0080299    0.0398318
h     3.4730843   -3.8318961   -1.3292317  0.00    0.0299421    0.0168987   -0.0269519
n    -0.3884521   -2.2281320   -0.8997089  0.00   -0.0260354   -0.0285982    0.0018030
h     0.7320242   -1.6506269   -2.6343220  0.00   -0.0029075   -0.0030457    0.0015031
h    -1.1447636   -1.7981705   -1.4788886  0.00    0.0045848   -0.0020647   -0.0012628
h    -0.6203080   -3.2454879   -0.8387911  0.00    0.0070403    0.0071165   -0.0017985
    24
 Energy =       0.0717990267
c    -0.3648486    1.7102087    0.6498175  0.00   -0.0234571    0.0122171    0.0217552
c     0.0258466    2.8082900   -0.0669101  0.00   -0.0203439    0.0246337    0.0157450
c     0.9617825    2.6824935   -1.0520604  0.00    0.0060809    0.0291943   -0.0120216
c     0.1979255    0.4886770    0.3836595  0.00   -0.0088125   -0.0194753    0.0112334
c     1.1621778    0.3547607   -0.5926830  0.00    0.0352873   -0.0179667   -0.0160942
c     1.5340637    1.4636581   -1.3138390  0.00    0.0140186   -0.0023925   -0.0130862
o    -0.4977902    4.0675815    0.1863636  0.00    0.0023987   -0.0094824   -0.0071697
h    -0.9881047    4.1060980    1.0689748  0.00    0.0098508   -0.0069790   -0.0019456
h     2.2949384    1.4001389   -2.0863646  0.00    0.0001236    0.0048559    0.0003692
h    -0.1148478   -0.3767287    0.9666908  0.00   -0.0006069   -0.0007125    0.0012716
h    -1.1152535    1.7993160    1.4297131  0.00   -0.0007929   -0.0008449    0.0012811
h     1.2594632    3.5627812   -1.6139590  0.00    0.0012718    0.0004267   -0.0017720
c     1.8093161   -0.9984936   -0.8080278  0.00   -0.0054448   -0.0132730   -0.0035454
c     0.9579818   -2.0180833   -1.5945966  0.00    0.0300112    0.0397470    0.0108364
h     2.0559025   -1.4315378    0.1880832  0.00    0.0004430    0.0015245   -0.0004538
h     2.7829996   -0.8607058   -1.3293689  0.00    0.0000068    0.0005901   -0.0012742
c     1.7500712   -3.3197635   -1.7913211  0.00   -0.0189085   -0.0915864   -0.0967985
o     1.4371070   -4.2048651   -2.7380978  0.00    0.0181855    0.0534015    0.0755458
o     2.7498707   -3.6127420   -0.8789484  0.00   -0.0503829    0.0060582    0.0420966
h     3.6069319   -3.7592757   -1.4370556  0.00    0.0304684    0.0163663   -0.0273242
n    -0.3308043   -2.2892005   -0.8934776  0.00   -0.0271342   -0.0268844    0.0033285
h     0.7616373   -1.6248900   -2.6183520  0.00   -0.0026111   -0.0026661    0.0010772
h    -1.1056394   -1.8715199   -1.4575603  0.00    0.0039970   -0.0017311   -0.0014909
h    -0.5242181   -3.3173518   -0.8626523  0.00    0.0063514    0.0049790   -0.0015637
    24
 Energy =       0.0690694658
c    -0.4270155    1.6892908    0.6440431  0.00   -0.0221238    0.0115515    0.0205400
c    -0.0497760    2.7916743   -0.0727321  0.00   -0.0189121    0.0228689    0.0147027
c     0.9030866    2.6802048   -1.0426473  0.00    0.0057841    0.0275165   -0.0113897
c     0.1618749    0.4779232    0.3902501  0.00   -0.0083197   -0.0184768    0.0106268
c     1.1404687    0.3593570   -0.5723764  0.00    0.0332212   -0.0168901   -0.0152152
c     1.5011317    1.4719435   -1.2921827  0.00    0.0133520   -0.0025023   -0.0124367
o    -0.6097041    4.0405353    0.1617511  0.00    0.0029880   -0.0082810   -0.0083370
h    -1.1468579    4.0674596    1.0188559  0.00    0.0078538   -0.0060926    0.0001735
h     2.2739550    1.4193582   -2.0540093  0.00    0.0002713    0.0044862    0.0002184
h    -0.1418264   -0.3916472    0.9718293  0.00   -0.0005816   -0.0007215    0.0012277
h    -1.1902463    1.7666161    1.4128273  0.00   -0.0009173   -0.0007363    0.0013578
h     1.1903211    3.5636986   -1.6048794  0.00    0.0011876    0.0004798   -0.0016820
c     1.8198402   -0.9796307   -0.7751186  0.00   -0.0050505   -0.0120519   -0.0030972
c     1.0054613   -2.0119737   -1.5835575  0.00    0.0281930    0.0380756    0.0090797
h     2.0555044   -1.4138350    0.2231661  0.00    0.0004185    0.0015055   -0.0002659
h     2.8021349   -0.8196867   -1.2748532  0.00    0.0004756    0.0005422   -0.0014017
c     1.8435008   -3.2805606   -1.8078220  0.00   -0.0189100   -0.0861054   -0.0929469
o     1.5322305   -4.1793518   -2.7472698  0.00    0.0170197    0.0501092    0.0708844
o     2.8915554   -3.5327188   -0.9349421  0.00   -0.0460144    0.0045660    0.0430001
h     3.7231543   -3.7084952   -1.5218115  0.00    0.0299812    0.0151295   -0.0270631
n    -0.2733543   -2.3374425   -0.8859435  0.00   -0.0265778   -0.0245996    0.0041753
h     0.7961148   -1.6039137   -2.5991588  0.00   -0.0022827   -0.0022986    0.0007882
h    -1.0632166   -1.9369338   -1.4422339  0.00    0.0033111   -0.0014554   -0.0015750
h    -0.4318288   -3.3730258   -0.8731564  0.00    0.0056330    0.0033805   -0.0013642
    24
 Energy =       0.0659176336
c    -0.4898122    1.6688281    0.6322259  0.00   -0.0200747    0.0105506    0.0186759
c    -0.1284838    2.7734315   -0.0882077  0.00   -0.0168296    0.0204077    0.0132019
c     0.8397059    2.6751692   -1.0430011  0.00    0.0052553    0.0250199   -0.0103383
c     0.1265502    0.4687734    0.3947764  0.00   -0.0075118   -0.0169432    0.0096423
c     1.1180384    0.3646567   -0.5541065  0.00    0.0300450   -0.0152974   -0.0138391
c     1.4646580    1.4785786   -1.2766720  0.00    0.0122551   -0.0025396   -0.0113831
o    -0.7252945    4.0110261    0.1244708  0.00    0.0033184   -0.0067319   -0.0089045
h    -1.3056110    4.0268884    0.9549189  0.00    0.0057187   -0.0050591    0.0018875
h     2.2483096    1.4356301   -2.0283434  0.00    0.0003832    0.0039727    0.0000949
h    -0.1659394   -0.4034236    0.9780523  0.00   -0.0005252   -0.0007330    0.0011399
h    -1.2648403    1.7354218    1.3901786  0.00   -0.0009840   -0.0006047    0.0013592
h     1.1145770    3.5603925   -1.6085678  0.00    0.0010550    0.0005448   -0.0015381
c     1.8319752   -0.9584112   -0.7405153  0.00   -0.0044632   -0.0105954   -0.0025221
c     1.0565269   -2.0053827   -1.5680510  0.00    0.0252652    0.0348785    0.0072288
h     2.0573560   -1.3912396    0.2607202  0.00    0.0004126    0.0014021   -0.0001126
h     2.8217078   -0.7755915   -1.2185596  0.00    0.0009275    0.0004661   -0.0014551
c     1.9385263   -3.2401059   -1.8120429  0.00   -0.0181744   -0.0777717   -0.0860502
o     1.6283482   -4.1608230   -2.7382539  0.00    0.0151242    0.0450898    0.0637784
o     3.0310928   -3.4449071   -0.9785264  0.00   -0.0407578    0.0036006    0.0433978
h     3.8342086   -3.6689680   -1.5869807  0.00    0.0290044    0.0131844   -0.0266886
n    -0.2121112   -2.3791605   -0.8763452  0.00   -0.0247078   -0.0216809    0.0046747
h     0.8364802   -1.5873306   -2.5775152  0.00   -0.0019281   -0.0019257    0.0005805
h    -1.0153266   -2.0038900   -1.4320785  0.00    0.0023606   -0.0011396   -0.0016707
h    -0.3341331   -3.4207167   -0.8695476  0.00    0.0048316    0.0019052   -0.0011593
    24
 Energy =       0.0627691414
c    -0.5556026    1.6486649    0.6110758  0.00   -0.0176499    0.0094031    0.0164537
c    -0.2123769    2.7534806   -0.1164186  0.00   -0.0144172    0.0176137    0.0114620
c     0.7701653    2.6678044   -1.0559798  0.00    0.0045611    0.0221179   -0.0090330
c     0.0903286    0.4614812    0.3942804  0.00   -0.0065044   -0.0151348    0.0084358
c     1.0942285    0.3713580   -0.5403047  0.00    0.0262215   -0.0134231   -0.0121713
c     1.4240064    1.4843765   -1.2697162  0.00    0.0109206   -0.0025284   -0.0101004
o    -0.8465185    3.9785507    0.0717335  0.00    0.0032648   -0.0049958   -0.0088109
h    -1.4643641    3.9838170    0.8761347  0.00    0.0037849   -0.0040057    0.0029976
h     2.2180502    1.4503948   -2.0112010  0.00    0.0004726    0.0033791   -0.0000091
h    -0.1888335   -0.4117276    0.9824220  0.00   -0.0004475   -0.0007649    0.0010339
h    -1.3418956    1.7051608    1.3581297  0.00   -0.0010093   -0.0004562    0.0013077
h     1.0308918    3.5532882   -1.6276893  0.00    0.0008922    0.0006310   -0.0013689
c     1.8458509   -0.9335640   -0.7053115  0.00   -0.0036792   -0.0091212   -0.0018796
c     1.1124655   -1.9991995   -1.5473744  0.00    0.0217018    0.0306384    0.0054760
h     2.0619074   -1.3606020    0.3004153  0.00    0.0004387    0.0012493    0.0000173
h     2.8414099   -0.7267990   -1.1622003  0.00    0.0013366    0.0003738   -0.0014338
c     2.0369885   -3.2004900   -1.7989085  0.00   -0.0168408   -0.0677376   -0.0771352
o     1.7318137   -4.1522083   -2.7048653  0.00    0.0127728    0.0388512    0.0551405
o     3.1673741   -3.3503799   -1.0011643  0.00   -0.0351421    0.0034241    0.0432946
h     3.9426889   -3.6353963   -1.6184617  0.00    0.0275345    0.0106819   -0.0262102
n    -0.1471322   -2.4144491   -0.8644418  0.00   -0.0215858   -0.0181885    0.0050404
h     0.8854452   -1.5783548   -2.5542618  0.00   -0.0016041   -0.0015995    0.0004524
h    -0.9606145   -2.0755603   -1.4301484  0.00    0.0009475   -0.0006962   -0.0019966
h    -0.2297683   -3.4608003   -0.8477155  0.00    0.0040307    0.0002883   -0.0009629
    24
 Energy =       0.0604650630
c    -0.6286475    1.6310320    0.5708408  0.00   -0.0156491    0.0085457    0.0145633
c    -0.3036169    2.7335889   -0.1671349  0.00   -0.0123690    0.0152403    0.0099877
c     0.6942105    2.6592484   -1.0899734  0.00    0.0038729    0.0197628   -0.0078825
c     0.0489356    0.4579256    0.3803800  0.00   -0.0055844   -0.0136588    0.0073868
c     1.0670542    0.3805124   -0.5376554  0.00    0.0228482   -0.0117322   -0.0107272
c     1.3792053    1.4901469   -1.2779434  0.00    0.0098227   -0.0025881   -0.0090075
o    -0.9748971    3.9448480   -0.0078154  0.00    0.0028402   -0.0033243   -0.0083314
h    -1.6231172    3.9411357    0.7731717  0.00    0.0023931   -0.0031380    0.0035346
h     2.1851080    1.4645457   -2.0071933  0.00    0.0005887    0.0028411   -0.0001185
h    -0.2161584   -0.4140076    0.9767976  0.00   -0.0003661   -0.0008376    0.0009548
h    -1.4270227    1.6784922    1.3055973  0.00   -0.0010527   -0.0002990    0.0012680
h     0.9406017    3.5430513   -1.6705229  0.00    0.0007342    0.0007434   -0.0012264
c     1.8602338   -0.9037078   -0.6712452  0.00   -0.0026770   -0.0079996   -0.0012349
c     1.1753261   -1.9975187   -1.5188984  0.00    0.0184649    0.0266897    0.0041549
h     2.0673371   -1.3154625    0.3428163  0.00    0.0005493    0.0010972    0.0002330
h     2.8599790   -0.6726033   -1.1078471  0.00    0.0017186    0.0002869   -0.0013624
c     2.1423354   -3.1686820   -1.7513879  0.00   -0.0153462   -0.0588504   -0.0687051
o     1.8602447   -4.1598639   -2.6314960  0.00    0.0107531    0.0327216    0.0471569
o     3.2926422   -3.2561298   -0.9698306  0.00   -0.0300113    0.0036645    0.0422050
h     4.0539136   -3.5954408   -1.5747138  0.00    0.0254848    0.0085782   -0.0251461
n    -0.0807101   -2.4437663   -0.8510724  0.00   -0.0175374   -0.0142778    0.0060208
h     0.9507152   -1.5880612   -2.5311686  0.00   -0.0014732   -0.0013906    0.0002752
h    -0.8969035   -2.1573626   -1.4444303  0.00   -0.0015364    0.0000841   -0.0032138
h    -0.1202601   -3.4930748   -0.8012466  0.00    0.0035322   -0.0021593   -0.0007852
    24
 Energy =       0.0569882545
c    -0.6485866    1.6084265    0.5878814  0.00   -0.0124797    0.0067989    0.0116329
c    -0.3434612    2.7097273   -0.1584412  0.00   -0.0096661    0.0121133    0.0078446