    27
 Energy =      66.4964136739
c    -1.4235396    2.6054793   -0.0667700  0.00   -0.0463280    0.0385482    0.0024441
c    -1.3072796    1.2134697   -0.1072300  0.00   -0.0852960   -0.0325992    0.0018709
c    -0.0178900    0.6711998   -0.1697000  0.00   -0.0888962   -0.1883170   -0.0004709
c    -0.2940599    3.4190890   -0.0891300  0.00   -0.0223261    0.0693683    0.0023776
c     0.9872197    2.8590292   -0.1560400  0.00    0.0146815    0.0657879   -0.0020342
c     1.1340797    1.4562096   -0.1970299  0.00    0.0534840    0.0505073    0.0021239
n     0.3879399   -0.6395298   -0.2140799  0.00    0.1419503    0.1101372   -0.0033678
c     2.2666594    0.5727398   -0.2659299  0.00    0.1577179   -0.0878704   -0.0063055
c     1.7555995   -0.7123598   -0.2706899  0.00   -0.0966384   -0.0963451   -0.0014206
h    -0.2400399   -1.4313496   -0.2047299  0.00    0.0369650    0.0479081   -0.0004072
c     3.7030089    1.0223397   -0.3320099  0.00   -0.0112186    0.0470529   -0.0207367
c     4.2197688    1.4064496   -1.7267995  0.00    0.0185603   -0.0374085   -0.0095463
h     4.3261788    0.2093419    0.0639454  0.00   -0.0099021    0.0106213   -0.0027456
h     3.8370289    1.8640295    0.3610799  0.00   -0.0050141   -0.0110450   -0.0119727
c     3.6319390    2.7753292   -2.1168494  0.00   -0.0256674    0.3162949    0.1528050
n     3.8331589    0.4251339   -2.8019292  0.00   -0.6100803    0.9185463   -0.6192515
h     5.3112285    1.5100896   -1.7329195  0.00   -0.0168993   -0.0081035   -0.0069596
h     3.3525690   -0.3535799   -2.3395993  0.00    0.0044153    0.0492827    0.0096296
h     3.1006291    0.8621858   -3.3722390  0.00  -65.4656524  841.1283217 -191.6386319
h    -2.4108593    3.0588691   -0.0157800  0.00   -0.0006786    0.0001409    0.0002824
h    -2.1896094    0.5822398   -0.0890100  0.00   -0.0035789    0.0037609    0.0002269
h    -0.4052699    4.5000487   -0.0535400  0.00    0.0005906   -0.0003960    0.0010218
h     1.8590495    3.5066790   -0.1715100  0.00    0.0121166    0.0027649   -0.0085231
h     2.2327294   -1.6813195   -0.3062999  0.00   -0.0403551   -0.0110559    0.0017823
o     3.7357489    3.8032989   -1.4684596  0.00   -0.0390152   -0.2477920   -0.1474023
o     2.9666192    2.7051892   -3.3013391  0.00    0.0715475   -0.4801696    0.0048767
h     3.0312091    1.7537395   -3.5755090  0.00   66.0555178 -841.6579414  192.3003347
    27
 Energy =       5.1184204159
c    -1.4235336    2.6054743   -0.0667703  0.00   -0.0463154    0.0385143    0.0024506
c    -1.3072686    1.2134739   -0.1072302  0.00   -0.0852723   -0.0326228    0.0018683
c    -0.0178785    0.6712242   -0.1696999  0.00   -0.0888759   -0.1881464   -0.0004456
c    -0.2940570    3.4190800   -0.0891303  0.00   -0.0223313    0.0693213    0.0023961
c     0.9872178    2.8590207   -0.1560397  0.00    0.0146681    0.0657362   -0.0020112
c     1.1340727    1.4562030   -0.1970302  0.00    0.0534440    0.0504970    0.0021416
n     0.3879215   -0.6395441   -0.2140795  0.00    0.1419993    0.1100249   -0.0034986
c     2.2666389    0.5727512   -0.2659291  0.00    0.1576561   -0.0878498   -0.0063365
c     1.7556120   -0.7123473   -0.2706897  0.00   -0.0965409   -0.0962951   -0.0014481
h    -0.2400447   -1.4313558   -0.2047299  0.00    0.0369315    0.0479223   -0.0003685
c     3.7030104    1.0223336   -0.3320072  0.00   -0.0112199    0.0468148   -0.0209986
c     4.2197664    1.4064545   -1.7267983  0.00    0.0363614   -0.0446432    0.0095061
h     4.3261801    0.2093406    0.0639457  0.00   -0.0098777    0.0106457   -0.0026763
h     3.8370296    1.8640309    0.3610814  0.00   -0.0050113   -0.0109674   -0.0119430
c     3.6319423    2.7752882   -2.1168692  0.00   -0.0242992    0.3358578    0.1607507
n     3.8332380    0.4250147   -2.8018489  0.00   -0.3784671    0.5092602   -0.3852180
h     5.3112307    1.5100906   -1.7329186  0.00   -0.0167563   -0.0078752   -0.0069247
h     3.3525685   -0.3535863   -2.3396006  0.00   -0.0058646    0.0504780    0.0039340
h     3.1091198    0.7530936   -3.3473840  0.00   -3.7083838   48.7563601  -11.0043440
h    -2.4108592    3.0588691   -0.0157800  0.00   -0.0006821    0.0001583    0.0002765
h    -2.1896089    0.5822393   -0.0890100  0.00   -0.0036009    0.0037687    0.0002296
h    -0.4052700    4.5000488   -0.0535401  0.00    0.0006041   -0.0003750    0.0009984
h     1.8590479    3.5066786   -0.1715088  0.00    0.0121327    0.0028299   -0.0086035
h     2.2327346   -1.6813181   -0.3063001  0.00   -0.0403812   -0.0110984    0.0018402
o     3.7357540    3.8033311   -1.4684405  0.00   -0.0384128   -0.2476168   -0.1470098
o     2.9666099    2.7052515   -3.3013397  0.00    0.0749997   -0.4529413   -0.0304057
h     3.0226419    1.8629004   -3.6004498  0.00    4.0534959  -48.9177578   11.4458402
    27
 Energy =       3.3285941623
c    -1.3919496    2.5991970   -0.0848131  0.00   -0.0232000    0.0197918    0.0012037
c    -1.2780061    1.2243573   -0.1232331  0.00   -0.0437226   -0.0164616    0.0011042
c    -0.0150715    0.6824765   -0.1801079  0.00   -0.0443546   -0.0969836   -0.0015912
c    -0.2676398    3.3969188   -0.0852576  0.00   -0.0114149    0.0357769    0.0010101
c     0.9916717    2.8317334   -0.1368522  0.00    0.0075019    0.0342351   -0.0014444
c     1.1118087    1.4537247   -0.2034511  0.00    0.0266640    0.0270987    0.0013900
n     0.3509245   -0.6635612   -0.1945506  0.00    0.0710962    0.0552561    0.0009820
c     2.2196332    0.6098750   -0.2774804  0.00    0.0834734   -0.0452776   -0.0047234
c     1.7484840   -0.6699995   -0.2761285  0.00   -0.0516274   -0.0456228   -0.0015009
h    -0.2773680   -1.4759991   -0.1642014  0.00    0.0193285    0.0248645    0.0005667
c     3.6705560    1.0298523   -0.3304084  0.00   -0.0060796    0.0244218   -0.0108461
c     4.1872230    1.4267425   -1.7310389  0.00    0.0162676   -0.0211666    0.0030002
h     4.2867528    0.1919310    0.0447874  0.00   -0.0049172    0.0046821   -0.0016005
h     3.8329646    1.8615666    0.3803778  0.00   -0.0017123   -0.0054161   -0.0061979
c     3.6291976    2.7706106   -2.1452045  0.00   -0.0077931    0.1721422    0.0763392
n     3.8388376    0.4315582   -2.7837446  0.00   -0.2007192    0.3353767   -0.2230493
h     5.2848839    1.5439614   -1.7116459  0.00   -0.0085865   -0.0046405   -0.0043529
h     3.5113216   -0.4562695   -2.3241947  0.00   -0.0115995    0.0039086    0.0157166
h     3.0603674    0.7168049   -3.4051171  0.00   -2.3463639   30.4929709   -6.9071519
h    -2.3771289    3.0581471   -0.0482331  0.00   -0.0001286    0.0005975   -0.0006060
h    -2.1587736    0.5917735   -0.1107893  0.00   -0.0016573    0.0024162   -0.0002597
h    -0.3692676    4.4792293   -0.0413574  0.00    0.0007938    0.0002304    0.0002719
h     1.8652626    3.4695866   -0.1045953  0.00    0.0075649    0.0022481   -0.0041263
h     2.3147969   -1.5949836   -0.2997218  0.00   -0.0185220   -0.0079851    0.0013998
o     3.7129673    3.8325178   -1.3959087  0.00   -0.0247998   -0.1305221   -0.0689646
o     2.9301226    2.7547116   -3.3204797  0.00    0.0417714   -0.2603669   -0.0126625
h     2.9712457    1.8675781   -3.6667474  0.00    2.5327368  -30.6015748    7.1460932
    27
 Energy =       2.7585931006
c    -1.4030742    2.5444858   -0.0724622  0.00   -0.0184186    0.0159432    0.0009875
c    -1.2728228    1.1757366   -0.1485720  0.00   -0.0343967   -0.0136771    0.0010753
c    -0.0085949    0.6510961   -0.2044793  0.00   -0.0345078   -0.0735430    0.0001046
c    -0.2893802    3.3528898   -0.0407032  0.00   -0.0087148    0.0286501    0.0007117
c     0.9728202    2.8033783   -0.0924314  0.00    0.0061653    0.0275862   -0.0012232
c     1.1033632    1.4339280   -0.1917048  0.00    0.0210715    0.0220437    0.0010897
n     0.3662853   -0.6979274   -0.2923453  0.00    0.0548543    0.0409585   -0.0004862
c     2.2168347    0.6165245   -0.2748075  0.00    0.0665472   -0.0344691   -0.0036985
c     1.7734389   -0.6681860   -0.3180350  0.00   -0.0388972   -0.0347931   -0.0003120
h    -0.2504487   -1.5263127   -0.3229545  0.00    0.0136704    0.0168537    0.0001711
c     3.6631683    1.0570849   -0.3135593  0.00   -0.0046511    0.0196669   -0.0086642
c     4.1786337    1.4666808   -1.7133477  0.00    0.0125823   -0.0162870    0.0023808
h     4.2932014    0.2298045    0.0658869  0.00   -0.0035601    0.0042302   -0.0009567
h     3.8076440    1.8933216    0.3990530  0.00   -0.0014530   -0.0034246   -0.0050355
c     3.6133295    2.8100794   -2.1261068  0.00   -0.0060408    0.1352437    0.0593065
n     3.8554204    0.4651776   -2.7701777  0.00   -0.1592041    0.2695291   -0.1793140
h     5.2759044    1.6024878   -1.6826844  0.00   -0.0066070   -0.0030951   -0.0035244
h     3.5726810   -0.4443626   -2.3235535  0.00   -0.0087611    0.0009827    0.0137762
h     3.0624408    0.7502840   -3.3953260  0.00   -1.9017969   24.6750485   -5.5913943
h    -2.3941536    2.9906772   -0.0354689  0.00   -0.0002678    0.0004033   -0.0004333
h    -2.1455230    0.5312246   -0.1718065  0.00   -0.0017261    0.0012279   -0.0001463
h    -0.4038711    4.4329966    0.0289618  0.00    0.0005048    0.0006594    0.0002700
h     1.8409066    3.4481014   -0.0373708  0.00    0.0061545    0.0021140   -0.0031335
h     2.3715299   -1.5730551   -0.3600317  0.00   -0.0140213   -0.0067917    0.0012588
o     3.6816498    3.8784825   -1.3524246  0.00   -0.0207721   -0.1022957   -0.0547246
o     2.9301932    2.8193794   -3.3127835  0.00    0.0324611   -0.2079378   -0.0109872
h     2.9722398    1.9200637   -3.6608628  0.00    2.0497853  -24.7648270    5.7829016
    27
 Energy =       2.3744204657
c    -1.3877047    2.5472429   -0.0458617  0.00   -0.0155214    0.0131170    0.0009334
c    -1.2738079    1.1797822   -0.1257000  0.00   -0.0287066   -0.0115192    0.0008931
c    -0.0199809    0.6418407   -0.1969369  0.00   -0.0284762   -0.0611469    0.0000326
c    -0.2651318    3.3416205   -0.0301991  0.00   -0.0073671    0.0238764    0.0008131
c     0.9880761    2.7780641   -0.1005429  0.00    0.0052704    0.0229427   -0.0008761
c     1.0973855    1.4099918   -0.1955990  0.00    0.0175874    0.0182607    0.0009754
n     0.3322958   -0.7158473   -0.2843731  0.00    0.0455819    0.0338781   -0.0004333
c     2.1960673    0.5846841   -0.2846028  0.00    0.0552438   -0.0285672   -0.0032074
c     1.7432087   -0.6947478   -0.3245019  0.00   -0.0322142   -0.0290225   -0.0004216
h    -0.2963809   -1.5383627   -0.3068278  0.00    0.0112656    0.0138314   -0.0000458
c     3.6491508    1.0023495   -0.3265645  0.00   -0.0042853    0.0164318   -0.0071188
c     4.1580055    1.4512481   -1.7182243  0.00    0.0108460   -0.0143372    0.0028437
h     4.2708991    0.1492537    0.0132840  0.00   -0.0023308    0.0026746   -0.0005313
h     3.8181868    1.8094531    0.4167953  0.00   -0.0009918   -0.0021402   -0.0033181
c     3.6538745    2.8301469   -2.0735711  0.00   -0.0049290    0.1049199    0.0492348
n     3.7977811    0.5047733   -2.8047939  0.00   -0.1277431    0.2320717   -0.1532280
h     5.2619361    1.5444999   -1.6900054  0.00   -0.0046006   -0.0023645   -0.0025097
h     3.4195386   -0.3981991   -2.4077227  0.00   -0.0098986   -0.0074835    0.0144599
h     3.0951221    0.8738916   -3.4508901  0.00   -1.6121800   20.8549442   -4.7256711
h    -2.3732548    3.0042554    0.0075471  0.00   -0.0004422    0.0003051   -0.0001628
h    -2.1534134    0.5441757   -0.1364086  0.00   -0.0015426    0.0008586   -0.0001275
h    -0.3662820    4.4229555    0.0411871  0.00    0.0003687    0.0005726    0.0005535
h     1.8667402    3.4120940   -0.0684860  0.00    0.0053293    0.0018160   -0.0027191
h     2.3410598   -1.5999865   -0.3749801  0.00   -0.0115502   -0.0056677    0.0008129
o     3.8404030    3.8754597   -1.2578792  0.00   -0.0152830   -0.0765658   -0.0396329
o     2.9882797    2.9451147   -3.2727696  0.00    0.0235757   -0.1620631   -0.0081745
h     3.0017620    2.0582873   -3.7214703  0.00    1.7329941  -20.9396232    4.8766257
    27
 Energy =       1.3748006055
c    -1.3595056    2.5426285   -0.0524082  0.00   -0.0052610    0.0041777    0.0002318
c    -1.2602757    1.1819693   -0.1295326  0.00   -0.0096887   -0.0040578    0.0002741
c    -0.0239976    0.6325892   -0.2040464  0.00   -0.0091983   -0.0204999   -0.0002041
c    -0.2309480    3.3189989   -0.0419498  0.00   -0.0027121    0.0079981    0.0002022
c     1.0074554    2.7409594   -0.1127488  0.00    0.0020030    0.0080032   -0.0005699
c     1.0897506    1.3821778   -0.2052589  0.00    0.0057835    0.0062592    0.0003271
n     0.2977374   -0.7430511   -0.2790542  0.00    0.0154555    0.0110354    0.0003518
c     2.1680037    0.5637854   -0.2910433  0.00    0.0187865   -0.0094226   -0.0012052
c     1.7213272   -0.7096696   -0.3285971  0.00   -0.0109585   -0.0096237   -0.0003240
h    -0.3426543   -1.5655062   -0.2931501  0.00    0.0037719    0.0046035    0.0002314
c     3.6311139    0.9591391   -0.3275532  0.00   -0.0021295    0.0055172   -0.0025145
c     4.1308317    1.4550477   -1.7109543  0.00    0.0060383   -0.0046549   -0.0000137
h     4.2483943    0.0839651   -0.0270825  0.00   -0.0003934    0.0000767    0.0000847
h     3.8191423    1.7390510    0.4447314  0.00   -0.0001326   -0.0000190   -0.0005275
c     3.6307242    2.8510412   -2.0250508  0.00   -0.0081827    0.0193257    0.0137035
n     3.7954714    0.5191974   -2.8111997  0.00   -0.0621468    0.1097614   -0.0718324
h     5.2368499    1.5583465   -1.6684968  0.00   -0.0015064   -0.0006127   -0.0008559
h     3.3788273   -0.3806866   -2.4590995  0.00   -0.0041531   -0.0047348    0.0062763
h     3.1283255    0.9518561   -3.4757642  0.00   -0.8513324   10.9532753   -2.4818447
h    -2.3394919    3.0108364    0.0028299  0.00   -0.0002622    0.0000655   -0.0001182
h    -2.1449727    0.5538494   -0.1332805  0.00   -0.0005409    0.0001612    0.0000027
h    -0.3183497    4.4018174    0.0224029  0.00    0.0000379    0.0003081    0.0000783
h     1.8964385    3.3625782   -0.0902562  0.00    0.0038055    0.0007787   -0.0026841
h     2.3436825   -1.5995548   -0.3805761  0.00   -0.0036318   -0.0019654    0.0003665
o     3.9991561    3.9141879   -1.2199098  0.00    0.0065406   -0.0133776   -0.0000478
o     2.8506902    3.0423959   -3.1617324  0.00   -0.0209771   -0.0228650    0.0173739
h     3.0300899    2.1960916   -3.7613162  0.00    0.9309847  -11.0395135    2.5232377
    27
 Energy =       0.7694493185
c    -1.3720090    2.5370385   -0.0291593  0.00   -0.0013335    0.0007826    0.0000857
c    -1.2709230    1.1796632   -0.1079494  0.00   -0.0023648   -0.0010714    0.0001146
c    -0.0389178    0.6339234   -0.2006965  0.00   -0.0019687   -0.0049883   -0.0000153
c    -0.2458587    3.3134913   -0.0361320  0.00   -0.0006747    0.0018520    0.0000557
c     0.9892821    2.7375464   -0.1237203  0.00    0.0008326    0.0018456   -0.0003186
c     1.0686556    1.3835639   -0.2144884  0.00    0.0015635    0.0015618    0.0001578
n     0.2801500   -0.7463845   -0.2696099  0.00    0.0036966    0.0025285    0.0003229
c     2.1439162    0.5757885   -0.2999417  0.00    0.0045787   -0.0019705   -0.0002980
c     1.7082365   -0.6987907   -0.3267139  0.00   -0.0025225   -0.0022190   -0.0000882
h    -0.3579864   -1.5741131   -0.2764113  0.00    0.0010539    0.0009328    0.0002724
c     3.6078347    0.9737112   -0.3271393  0.00   -0.0010336    0.0014331   -0.0003546
c     4.1311062    1.4353387   -1.7164963  0.00    0.0021290   -0.0019807    0.0014396
h     4.2224349    0.1065809    0.0032428  0.00    0.0002609   -0.0002337    0.0000475
h     3.7869182    1.7707617    0.4303572  0.00   -0.0000099    0.0003163    0.0000299
c     3.6982023    2.8558993   -2.0649073  0.00    0.0002532    0.0013484    0.0052209
n     3.8015270    0.4741052   -2.7966920  0.00   -0.0228244    0.0385391   -0.0230776
h     5.2404001    1.5070863   -1.6538375  0.00    0.0002735   -0.0002312   -0.0005705
h     3.3618393   -0.4110181   -2.4460463  0.00   -0.0011548   -0.0015831    0.0017787
h     3.1583867    0.9230651   -3.4990964  0.00   -0.4125327    5.2380750   -1.1941990
h    -2.3519756    3.0029117    0.0434259  0.00   -0.0002600   -0.0001349    0.0000993
h    -2.1533762    0.5484859   -0.0949173  0.00   -0.0002040   -0.0002050    0.0001876
h    -0.3338861    4.3959529    0.0301874  0.00   -0.0001055   -0.0000110    0.0000330
h     1.8781154    3.3584536   -0.1128038  0.00    0.0012109    0.0001142   -0.0010434
h     2.3458120   -1.5790712   -0.3698373  0.00   -0.0006116   -0.0005715    0.0001144
o     4.0220054    3.9015025   -1.2099084  0.00    0.0029454   -0.0020463    0.0027434
o     3.0094434    3.1185065   -3.2496100  0.00   -0.0148054    0.0067677    0.0033002
h     3.0544834    2.2400422   -3.8011964  0.00    0.4436078   -5.2788505    1.2039617
    27
 Energy =       0.5543728097
c    -1.3922764    2.5386765   -0.0189147  0.00   -0.0007563    0.0003368    0.0001035
c    -1.2873819    1.1813247   -0.0845296  0.00   -0.0012322   -0.0007346    0.0001116
c    -0.0549082    0.6386206   -0.1788226  0.00   -0.0010195   -0.0025993    0.0000069
c    -0.2687646    3.3181221   -0.0400330  0.00   -0.0003231    0.0009884    0.0000640
c     0.9670736    2.7449465   -0.1287785  0.00    0.0005011    0.0010576   -0.0002062
c     1.0497471    1.3911285   -0.2061713  0.00    0.0008783    0.0008557    0.0000901
n     0.2672676   -0.7422434   -0.2308348  0.00    0.0020233    0.0011442    0.0002360
c     2.1267802    0.5869221   -0.2849172  0.00    0.0024888   -0.0008388   -0.0003615
c     1.6957042   -0.6894566   -0.2908888  0.00   -0.0013015   -0.0012972   -0.0001373
h    -0.3683610   -1.5725315   -0.2260190  0.00    0.0005825    0.0003194    0.0002071
c     3.5907653    0.9874758   -0.3186838  0.00   -0.0006939    0.0008899    0.0000042
c     4.1244038    1.4194489   -1.7154887  0.00    0.0005697   -0.0010072    0.0036008
h     4.2049555    0.1282332    0.0329177  0.00    0.0002945   -0.0002726    0.0000510
h     3.7669433    1.8000128    0.4229199  0.00    0.0000387    0.0004031    0.0001402
c     3.7113285    2.8381210   -2.1034909  0.00    0.0033622   -0.0011190    0.0100070
n     3.8287823    0.4221934   -2.7748264  0.00    0.0060234    0.0226344   -0.0048399
h     5.2322102    1.4953453   -1.6339121  0.00    0.0003147   -0.0001876   -0.0003465
h     3.2576679   -0.3981898   -2.4303387  0.00   -0.0088373   -0.0139313    0.0093021
h     3.3171399    0.8798048   -3.5900443  0.00   -0.2689405    3.2836976   -0.7648192
h    -2.3731735    3.0021561    0.0554217  0.00   -0.0001757   -0.0001948    0.0001255
h    -2.1675599    0.5473293   -0.0589515  0.00   -0.0001314   -0.0002894    0.0001809
h    -0.3596219    4.4008927    0.0171658  0.00   -0.0001166   -0.0000172    0.0000507
h     1.8539013    3.3678890   -0.1266508  0.00    0.0008118    0.0000857   -0.0007026
h     2.3378792   -1.5671930   -0.3217285  0.00   -0.0002045   -0.0003825    0.0000695
o     3.9691855    3.8876147   -1.2286002  0.00    0.0027042    0.0003073    0.0041002
o     3.1447152    3.1121489   -3.3530465  0.00   -0.0127618    0.0043780   -0.0085199
h     3.2094134    2.2452488   -3.9028510  0.00    0.2759013   -3.2942265    0.7514820
    27
 Energy =       0.3799706403
c    -1.3845640    2.5127223    0.0334660  0.00   -0.0005183    0.0009961    0.0002130
c    -1.2785827    1.1584059   -0.0860185  0.00   -0.0004914   -0.0011660    0.0001054
c    -0.0468002    0.6209023   -0.2121270  0.00   -0.0002958   -0.0010822    0.0001020
c    -0.2623304    3.2940860    0.0330285  0.00   -0.0004335    0.0010378    0.0001151
c     0.9731306    2.7257922   -0.0874816  0.00    0.0002759    0.0011842   -0.0000166
c     1.0562104    1.3753962   -0.2178323  0.00    0.0004400    0.0000457   -0.0000029
n     0.2762496   -0.7580115   -0.3188210  0.00    0.0015456   -0.0008544    0.0000655
c     2.1334233    0.5763552   -0.3314157  0.00    0.0011731   -0.0001222   -0.0002688
c     1.7048562   -0.7000912   -0.3840521  0.00   -0.0007545   -0.0015517    0.0000516
h    -0.3583095   -1.5895145   -0.3415310  0.00    0.0000520   -0.0005281    0.0002015
c     3.5963747    0.9818283   -0.3445234  0.00   -0.0002470    0.0004602    0.0003045
c     4.1327112    1.4490289   -1.7285581  0.00   -0.0003889   -0.0002014    0.0016302
h     4.2112662    0.1166902   -0.0095564  0.00    0.0002391   -0.0001664   -0.0000145
h     3.7663284    1.7769641    0.4173311  0.00    0.0001066    0.0004888    0.0002443
c     3.7102491    2.8778713   -2.0780375  0.00    0.0022194   -0.0003244    0.0061807
n     3.8475282    0.4698833   -2.8068237  0.00    0.0280127    0.0103612    0.0069108
h     5.2394542    1.5309315   -1.6406634  0.00    0.0001356    0.0000789   -0.0003124
h     3.4164210   -0.4311069   -2.4424848  0.00   -0.0125040   -0.0219265    0.0122966
h     3.1762419    0.9026164   -3.5248739  0.00   -0.1593723    1.7705710   -0.4256469
h    -2.3653139    2.9720845    0.1344037  0.00   -0.0003579    0.0001254    0.0002054
h    -2.1575744    0.5222894   -0.0771177  0.00   -0.0000271   -0.0004872    0.0002189
h    -0.3540292    4.3744802    0.1326020  0.00   -0.0002798    0.0008395    0.0001156
h     1.8596586    3.3497263   -0.0692069  0.00    0.0003148    0.0002692   -0.0002923
h     2.3490402   -1.5751053   -0.4434025  0.00    0.0002463   -0.0005641    0.0000842
o     3.9876812    3.9053806   -1.1843781  0.00    0.0007958    0.0007882    0.0019746
o     3.0894781    3.1890576   -3.2888487  0.00   -0.0063219    0.0063709   -0.0028846
h     3.0650177    2.3353775   -3.8531744  0.00    0.1464354   -1.7646424    0.3984190
    27
 Energy =       0.2384336948
c    -1.3746540    2.4884235    0.0807068  0.00   -0.0002747    0.0008981    0.0002742
c    -1.2720651    1.1407634   -0.1019415  0.00    0.0001152   -0.0013698    0.0000751
c    -0.0422681    0.6073787   -0.2565802  0.00   -0.0000437    0.0000862    0.0001486
c    -0.2508641    3.2671594    0.1119374  0.00   -0.0001108    0.0007938    0.0001610
c     0.9828066    2.7026660   -0.0381496  0.00    0.0000460    0.0010645    0.0001283
c     1.0617955    1.3592111   -0.2287358  0.00    0.0001440   -0.0000790   -0.0000008
n     0.2775322   -0.7662807   -0.4294016  0.00    0.0009924   -0.0018172   -0.0000468
c     2.1366688    0.5646219   -0.3783678  0.00    0.0003855    0.0009314   -0.0002435
c     1.7066160   -0.7071759   -0.4941057  0.00   -0.0004539   -0.0014227   -0.0000912
h    -0.3584397   -1.5952876   -0.4895772  0.00   -0.0003318   -0.0011114    0.0001369
c     3.5987564    0.9698402   -0.3659457  0.00    0.0000146    0.0002551    0.0002203
c     4.1383587    1.4736607   -1.7341811  0.00   -0.0002728   -0.0000840    0.0002902
h     4.2109506    0.0960137   -0.0498499  0.00    0.0002137   -0.0000015   -0.0000426
h     3.7640866    1.7437751    0.4182839  0.00    0.0001348    0.0004146    0.0001905
c     3.7184647    2.9149605   -2.0369818  0.00    0.0011316   -0.0004668    0.0019732
n     3.8451506    0.5229542   -2.8319978  0.00    0.0217167    0.0036635    0.0061272
h     5.2453573    1.5484299   -1.6444660  0.00   -0.0000380    0.0001684   -0.0001335
h     3.5751741   -0.4362703   -2.4740218  0.00   -0.0080404   -0.0160743    0.0086243
h     3.0444217    0.8944508   -3.4263829  0.00   -0.0621979    0.6082531   -0.1520670
h    -2.3540186    2.9443861    0.2059989  0.00   -0.0002167    0.0000346    0.0002459
h    -2.1522341    0.5062672   -0.1199888  0.00   -0.0000476   -0.0007094    0.0002224
h    -0.3400899    4.3422888    0.2600348  0.00   -0.0002465    0.0009706    0.0001682
h     1.8716872    3.3237266    0.0019197  0.00    0.0000875    0.0003692   -0.0000517
h     2.3496573   -1.5794391   -0.5938100  0.00    0.0004937   -0.0008014    0.0000358
o     4.0345110    3.9123426   -1.1226351  0.00   -0.0001564    0.0012579    0.0010285
o     3.0384961    3.2741540   -3.1988428  0.00   -0.0016162    0.0031610   -0.0008926
h     2.9279585    2.4510203   -3.7830161  0.00    0.0485716   -0.5983846    0.1335190
    27
 Energy =       0.2251825482
c    -1.3129588    2.6099652    0.1453636  0.00   -0.0015109    0.0017067    0.0005065
c    -1.2674758    1.2618881   -0.0649054  0.00   -0.0010673   -0.0020339    0.0000562
c    -0.0614439    0.6817669   -0.2471673  0.00   -0.0003126   -0.0001180    0.0000770
c    -0.1572415    3.3425725    0.1754422  0.00   -0.0003185    0.0022844    0.0004235
c     1.0514671    2.7311232   -0.0027688  0.00    0.0011609    0.0018165    0.0001876
c     1.0732972    1.3881630   -0.2196190  0.00    0.0006062   -0.0000907   -0.0000909
n     0.2005869   -0.7010716   -0.4524261  0.00    0.0002476   -0.0028574   -0.0001601
c     2.1139451    0.5531112   -0.3990815  0.00    0.0011941    0.0009816   -0.0003974
c     1.6312468   -0.6984320   -0.5363538  0.00    0.0004513   -0.0023750   -0.0003413
h    -0.4695679   -1.5031361   -0.5199578  0.00   -0.0012323   -0.0021741    0.0000361
c     3.5916814    0.9001323   -0.3961062  0.00    0.0007389    0.0005260   -0.0003501
c     4.1342606    1.3907351   -1.7666883  0.00   -0.0002959   -0.0001002    0.0004343
h     4.1727287    0.0008488   -0.0903311  0.00    0.0007498   -0.0006354    0.0000530
h     3.7948125    1.6642070    0.3897207  0.00    0.0003615    0.0009136    0.0005731
c     3.7406118    2.8397055   -2.0664129  0.00    0.0012447   -0.0011516    0.0019078
n     3.8089000    0.4459676   -2.8598323  0.00    0.0197594    0.0026928    0.0053560
h     5.2436774    1.4406496   -1.6857179  0.00    0.0002950    0.0001574   -0.0001470
h     3.5755917   -0.5196811   -2.4968978  0.00   -0.0068901   -0.0141034    0.0077458
h     2.9740759    0.8049050   -3.4107113  0.00   -0.0537112    0.5093624   -0.1284855
h    -2.2720780    3.1031392    0.2931022  0.00   -0.0012145    0.0006308    0.0004322
h    -2.1736044    0.6635722   -0.0831393  0.00   -0.0008885   -0.0012114    0.0002168
h    -0.2009586    4.4183920    0.3446135  0.00   -0.0003030    0.0021045    0.0003718
h     1.9662735    3.3156153    0.0346304  0.00    0.0008847    0.0009481    0.0000593
h     2.2375932   -1.5943776   -0.6627047  0.00    0.0011388   -0.0018404   -0.0001073
o     4.1180194    3.8356391   -1.1720138  0.00    0.0007320    0.0026865    0.0026441
o     3.0134367    3.2057323   -3.1980781  0.00   -0.0020042    0.0035040   -0.0014258
h     2.8569394    2.3829085   -3.7720567  0.00    0.0401838   -0.5016237    0.1104243
    27
 Energy =       0.2161762060
c    -1.3166173    2.6825077    0.0351292  0.00   -0.0026166    0.0011655    0.0004291
c    -1.2959953    1.3352640   -0.1838937  0.00   -0.0021955   -0.0018437    0.0000881
c    -0.0973073    0.7272721   -0.3244412  0.00   -0.0005458   -0.0005248   -0.0000248
c    -0.1443585    3.3867002    0.1143857  0.00    0.0000140    0.0028599    0.0004930
c     1.0561486    2.7473459   -0.0222392  0.00    0.0022654    0.0016404    0.0001306
c     1.0533708    1.4055699   -0.2474177  0.00    0.0013626    0.0001838   -0.0000954
n     0.1388928   -0.6597361   -0.5326363  0.00   -0.0014329   -0.0022871   -0.0000670
c     2.0802581    0.5467660   -0.3936848  0.00    0.0014959    0.0010179   -0.0003613
c     1.5726695   -0.6910651   -0.5629909  0.00    0.0014752   -0.0024027   -0.0003740
h    -0.5479885   -1.4447866   -0.6328693  0.00   -0.0020066   -0.0028182   -0.0000764
c     3.5655043    0.8584688   -0.3313086  0.00    0.0014159    0.0008558    0.0007102
c     4.1687410    1.3407121   -1.6797466  0.00   -0.0003518    0.0002116   -0.0005057
h     4.1137706   -0.0551013   -0.0058732  0.00    0.0011761   -0.0011053    0.0004814
h     3.7563478    1.6159309    0.4639340  0.00    0.0004561    0.0007893    0.0007056
c     3.8055757    2.7945898   -1.9914128  0.00    0.0009860   -0.0006680    0.0012394
n     3.8634181    0.4036854   -2.7844190  0.00    0.0176729    0.0027043    0.0041656
h     5.2761130    1.3720338   -1.5590682  0.00    0.0011879    0.0001557   -0.0000344
h     3.6612817   -0.5715660   -2.4302579  0.00   -0.0060316   -0.0131222    0.0068075
h     3.0132122    0.7462305   -3.3192951  0.00   -0.0473537    0.4456745   -0.1124443
h    -2.2692434    3.1978315    0.1498083  0.00   -0.0019322    0.0007233    0.0004366
h    -2.2159388    0.7594182   -0.2418925  0.00   -0.0018693   -0.0015425    0.0001560
h    -0.1684487    4.4621973    0.2889834  0.00   -0.0001971    0.0020612    0.0003573
h     1.9838937    3.3095376    0.0520784  0.00    0.0017412    0.0012656    0.0001096
h     2.1619483   -1.5998068   -0.6776290  0.00    0.0011935   -0.0018417   -0.0000844
o     4.2005913    3.7886710   -1.1029524  0.00    0.0006950    0.0025249    0.0024271
o     3.0718910    3.1644720   -3.1170468  0.00   -0.0017185    0.0031854   -0.0010923
h     2.8960857    2.3408988   -3.6833413  0.00    0.0351139   -0.4388632    0.0964231
    27
 Energy =       0.2012083532
c    -1.3011090    2.7762050   -0.0681381  0.00   -0.0034564    0.0006366    0.0002766
c    -1.3147077    1.4313179   -0.3009473  0.00   -0.0030697   -0.0016135    0.0000341
c    -0.1304889    0.7872636   -0.4027086  0.00   -0.0007231   -0.0008451   -0.0001384
c    -0.1102533    3.4424330    0.0619433  0.00    0.0004523    0.0032345    0.0005466
c     1.0747069    2.7670045   -0.0361792  0.00    0.0031336    0.0014478    0.0001245
c     1.0379201    1.4280178   -0.2743187  0.00    0.0020474    0.0004305   -0.0000640
n     0.0699613   -0.6037286   -0.6207556  0.00   -0.0028114   -0.0016718   -0.0000484
c     2.0425960    0.5389371   -0.3922522  0.00    0.0018366    0.0011234   -0.0003395
c     1.5032858   -0.6794673   -0.5998628  0.00    0.0022143   -0.0023610   -0.0004365
h    -0.6372346   -1.3656850   -0.7564157  0.00   -0.0026967   -0.0032841   -0.0002477
c     3.5338823    0.8040032   -0.2725436  0.00    0.0018499    0.0011730    0.0014637
c     4.1962887    1.2750679   -1.5966012  0.00   -0.0004295    0.0003335   -0.0014278
h     4.0421972   -0.1276037    0.0678748  0.00    0.0014444   -0.0015545    0.0008965
h     3.7189391    1.5520272    0.5326709  0.00    0.0005168    0.0005819    0.0006587
c     3.8703965    2.7350438   -1.9163827  0.00    0.0007845   -0.0002578    0.0005785