    27
 Energy =       0.3613789975
c    -1.4235396    2.6054793   -0.0667700  0.00   -0.0463239    0.0383806    0.0026307
c    -1.3072796    1.2134697   -0.1072300  0.00   -0.0852532   -0.0325860    0.0019275
c    -0.0178900    0.6711998   -0.1697000  0.00   -0.0886889   -0.1882046   -0.0010668
c    -0.2940599    3.4190890   -0.0891300  0.00   -0.0233573    0.0691347    0.0026840
c     0.9872197    2.8590292   -0.1560400  0.00    0.0392994    0.0660913    0.0068765
c     1.1340797    1.4562096   -0.1970299  0.00    0.0577705    0.0539771    0.0035406
n     0.3879399   -0.6395298   -0.2140799  0.00    0.1423552    0.1095999   -0.0035490
c     2.2666594    0.5727398   -0.2659299  0.00    0.1516962   -0.0944822   -0.0288988
c     1.7555995   -0.7123598   -0.2706899  0.00   -0.1010364   -0.0975870    0.0039985
h    -0.2400399   -1.4313496   -0.2047299  0.00    0.0367304    0.0477537   -0.0004644
c     3.7030089    1.0223397   -0.3320099  0.00    0.0027971    0.0431883    0.0040305
c     4.0547688    2.2615794    0.5049969  0.00   -0.0601068   -0.0249099   -0.0210474
h     3.9407589    1.2278196   -1.3843196  0.00    0.0036986   -0.0003701    0.0186173
h     4.3455988    0.1801669   -0.0411573  0.00   -0.0114557    0.0081842   -0.0067779
c     5.4270085    2.7951492    0.0535521  0.00    0.1659265    0.0910450   -0.3466812
n     4.1412688    1.9836494    1.9826994  0.00    0.0435427    0.0319266    0.0825415
h     3.3277791    3.0673291    0.3491609  0.00   -0.4881734    0.1244374   -0.1504343
h     3.4971990    2.6310692    2.4486593  0.00    0.0140053   -0.0241862   -0.0259374
h     3.7254889    1.0605697    2.1497794  0.00    0.0078333    0.0301154   -0.0191719
h    -2.4108593    3.0588691   -0.0157800  0.00   -0.0007712    0.0002059    0.0000934
h    -2.1896094    0.5822398   -0.0890100  0.00   -0.0035924    0.0037544    0.0001118
h    -0.4052699    4.5000487   -0.0535400  0.00    0.0006442    0.0001260    0.0004311
h     1.8590495    3.5066790   -0.1715100  0.00    0.4765270   -0.1415165    0.1700406
h     2.2327294   -1.6813195   -0.3062999  0.00   -0.0407180   -0.0111834    0.0024565
o     5.7255984    3.1121091   -1.0858697  0.00   -0.0749881   -0.0707457    0.2773697
o     6.2915882    2.8764792    1.1006697  0.00   -0.0829426   -0.0322185    0.0266533
h     7.0586480    2.3013393    0.8448318  0.00   -0.0354187    0.0000694    0.0000257
    27
 Energy =       0.3540085143
c    -1.4232492    2.6312185   -0.0172458  0.00   -0.0453463    0.0376201    0.0025721
c    -1.3136334    1.2392849   -0.0696643  0.00   -0.0834476   -0.0319992    0.0018867
c    -0.0278028    0.6923545   -0.1358245  0.00   -0.0870227   -0.1829600   -0.0009199
c    -0.2899619    3.4398914   -0.0345268  0.00   -0.0228881    0.0677140    0.0026168
c     0.9878332    2.8741124   -0.1092493  0.00    0.0384933    0.0647395    0.0067115
c     1.1242226    1.4732702   -0.1629336  0.00    0.0561164    0.0530337    0.0033119
n     0.3722660   -0.6199608   -0.2234796  0.00    0.1396077    0.1062946   -0.0035852
c     2.2512987    0.5926218   -0.2628201  0.00    0.1469429   -0.0917017   -0.0275433
c     1.7414221   -0.6917853   -0.2906182  0.00   -0.0992589   -0.0946979    0.0040602
h    -0.2579435   -1.4111275   -0.2285555  0.00    0.0358576    0.0465762   -0.0004730
c     3.6778716    1.0557613   -0.3896291  0.00    0.0006673    0.0426091    0.0057381
c     4.0641775    2.2476124    0.5036431  0.00   -0.0588960   -0.0232583   -0.0219108
h     3.8406057    1.3419238   -1.4432595  0.00    0.0039191    0.0006770    0.0124797
h     4.3499076    0.2004175   -0.1999104  0.00   -0.0076565    0.0040114   -0.0058134
c     5.4396888    2.7732733    0.0527022  0.00    0.1611030    0.0892071   -0.3401471
n     4.1727881    1.8950875    1.9643900  0.00    0.0455927    0.0298708    0.0829739
h     3.3409515    3.0739520    0.4019215  0.00   -0.4789676    0.1233272   -0.1475817
h     3.5591219    2.5339173    2.4842122  0.00    0.0119477   -0.0215270   -0.0237880
h     3.7413299    0.9707731    2.0905989  0.00    0.0071022    0.0278962   -0.0186309
h    -2.4084453    3.0888175    0.0371395  0.00   -0.0007694    0.0002145    0.0000919
h    -2.1988699    0.6117798   -0.0626315  0.00   -0.0035665    0.0036095    0.0001066
h    -0.3957710    4.5210766    0.0103253  0.00    0.0006234    0.0001830    0.0004209
h     1.8685949    3.5110631   -0.1208751  0.00    0.4665835   -0.1385364    0.1664384
h     2.2196605   -1.6581687   -0.3803031  0.00   -0.0391749   -0.0123125    0.0023044
o     5.7406091    3.0832275   -1.0922661  0.00   -0.0730774   -0.0691997    0.2714934
o     6.3227279    2.8071268    1.0887516  0.00   -0.0806094   -0.0308944    0.0274732
h     7.0740428    2.2225733    0.8036317  0.00   -0.0338751   -0.0004970   -0.0002865
    27
 Energy =       0.3170121959
c    -1.4120142    2.6669008    0.0267936  0.00   -0.0373450    0.0310164    0.0020624
c    -1.3102715    1.2809067   -0.0404013  0.00   -0.0688187   -0.0265554    0.0015243
c    -0.0367443    0.7290991   -0.1104719  0.00   -0.0716532   -0.1494735    0.0000082
c    -0.2765591    3.4656013    0.0169890  0.00   -0.0189753    0.0558704    0.0020311
c     0.9910777    2.8932633   -0.0651311  0.00    0.0320729    0.0536032    0.0054565
c     1.1085615    1.5010215   -0.1336082  0.00    0.0457032    0.0440965    0.0025654
n     0.3421626   -0.5943522   -0.2459827  0.00    0.1152586    0.0862371   -0.0036070
c     2.2212447    0.6335042   -0.2627774  0.00    0.1202165   -0.0746927   -0.0215623
c     1.7222396   -0.6468817   -0.3190114  0.00   -0.0825484   -0.0769266    0.0038610
h    -0.2921148   -1.3898066   -0.2702390  0.00    0.0294459    0.0381720   -0.0005938
c     3.6422760    1.0942159   -0.4464933  0.00   -0.0017761    0.0342236    0.0052545
c     4.0803936    2.2218522    0.5115298  0.00   -0.0484129   -0.0169944   -0.0197580
h     3.7384081    1.4616624   -1.4902763  0.00    0.0027590    0.0018752    0.0050345
h     4.3257906    0.2227541   -0.3586635  0.00   -0.0029296   -0.0007241   -0.0047123
c     5.4602324    2.7347718    0.0747764  0.00    0.1325935    0.0741102   -0.2805168
n     4.1906699    1.7776948    1.9428164  0.00    0.0415788    0.0230957    0.0711482
h     3.3738201    3.0755739    0.4598714  0.00   -0.4040428    0.1057511   -0.1249859
h     3.6063270    2.4014340    2.5218481  0.00    0.0079608   -0.0154836   -0.0174509
h     3.7494714    0.8477998    2.0247468  0.00    0.0052373    0.0212122   -0.0151387
h    -2.3943870    3.1299906    0.0846149  0.00   -0.0006596    0.0001878    0.0000744
h    -2.1981083    0.6570080   -0.0470545  0.00   -0.0030060    0.0028759    0.0000605
h    -0.3747293    4.5470930    0.0729250  0.00    0.0004964    0.0002465    0.0003432
h     1.8812753    3.5197085   -0.0695687  0.00    0.3926282   -0.1164368    0.1400473
h     2.2267727   -1.5948785   -0.4642970  0.00   -0.0313982   -0.0118021    0.0016342
o     5.7603600    3.0448807   -1.1012568  0.00   -0.0602729   -0.0573748    0.2239150
o     6.3737328    2.7398185    1.0897968  0.00   -0.0709499   -0.0206935    0.0258539
h     7.0735558    2.0794582    0.8120483  0.00   -0.0231624   -0.0054163   -0.0025489
    27
 Energy =       0.2836831713
c    -1.3997169    2.6965867    0.0338324  0.00   -0.0283423    0.0235857    0.0015318
c    -1.3040547    1.3182650   -0.0530245  0.00   -0.0522817   -0.0204287    0.0012415
c    -0.0430641    0.7626754   -0.1212856  0.00   -0.0538876   -0.1124280    0.0013880
c    -0.2632491    3.4849853    0.0406144  0.00   -0.0144230    0.0425197    0.0014020
c     0.9941893    2.9074075   -0.0407742  0.00    0.0247657    0.0409926    0.0040520
c     1.0959771    1.5245622   -0.1238082  0.00    0.0346570    0.0338975    0.0018827
n     0.3127403   -0.5710628   -0.3042809  0.00    0.0870357    0.0642647   -0.0043464
c     2.1955082    0.6692717   -0.2579221  0.00    0.0916083   -0.0562178   -0.0163859
c     1.7065745   -0.6054662   -0.3430630  0.00   -0.0624183   -0.0577055    0.0039785
h    -0.3274619   -1.3692909   -0.3667236  0.00    0.0216871    0.0281287   -0.0009320
c     3.6222379    1.1118050   -0.4510285  0.00   -0.0019669    0.0254409    0.0033946
c     4.0959493    2.2020784    0.5362795  0.00   -0.0366864   -0.0120944   -0.0156185
h     3.7067782    1.5069192   -1.4872374  0.00    0.0019367    0.0015468    0.0033377
h     4.2954807    0.2280603   -0.3966186  0.00   -0.0018892   -0.0011807   -0.0035766
c     5.4773763    2.7036585    0.1062203  0.00    0.1013540    0.0562250   -0.2133947
n     4.1946882    1.7094617    1.9458017  0.00    0.0333693    0.0177663    0.0546403
h     3.4081038    3.0740419    0.5040161  0.00   -0.3189524    0.0840950   -0.0993115
h     3.6167515    2.3194678    2.5521944  0.00    0.0056288   -0.0114365   -0.0126947
h     3.7596348    0.7709128    2.0076221  0.00    0.0038898    0.0156659   -0.0113676
h    -2.3798983    3.1643362    0.0899627  0.00   -0.0005258    0.0001325    0.0000580
h    -2.1938612    0.6975528   -0.0814806  0.00   -0.0024593    0.0019880    0.0000147
h    -0.3547670    4.5665016    0.1083135  0.00    0.0003837    0.0002853    0.0002577
h     1.8883460    3.5282735   -0.0339352  0.00    0.3097483   -0.0916703    0.1105077
h     2.2416367   -1.5341427   -0.5079833  0.00   -0.0236017   -0.0095018    0.0012516
o     5.7663088    3.0103417   -1.1080891  0.00   -0.0461288   -0.0443747    0.1699920
o     6.4251066    2.7021863    1.0948748  0.00   -0.0669254    0.0012923    0.0271218
h     7.0361285    1.9207051    0.8710467  0.00   -0.0055753   -0.0207884   -0.0084245
    27
 Energy =       0.2758204044
c    -1.3909738    2.7199584    0.0280443  0.00   -0.0254995    0.0212300    0.0013247
c    -1.3006728    1.3430317   -0.0495387  0.00   -0.0470202   -0.0184003    0.0009959
c    -0.0451909    0.7825689   -0.1148554  0.00   -0.0483779   -0.1007035    0.0010468
c    -0.2522235    3.5021336    0.0298037  0.00   -0.0129816    0.0382451    0.0012899
c     1.0003783    2.9189645   -0.0492035  0.00    0.0223033    0.0369120    0.0037259
c     1.0938779    1.5379498   -0.1232097  0.00    0.0311439    0.0305066    0.0017234
n     0.2997269   -0.5596097   -0.2744015  0.00    0.0782487    0.0574841   -0.0039583
c     2.1866114    0.6814291   -0.2514387  0.00    0.0823405   -0.0505401   -0.0146814
c     1.6968336   -0.5912230   -0.3274696  0.00   -0.0560341   -0.0518074    0.0034201
h    -0.3447534   -1.3584976   -0.3185190  0.00    0.0192991    0.0251086   -0.0011538
c     3.6171261    1.1096445   -0.4519198  0.00   -0.0017536    0.0228184    0.0031140
c     4.1078209    2.1992036    0.5288042  0.00   -0.0329846   -0.0106997   -0.0137621
h     3.7003403    1.4977580   -1.4911083  0.00    0.0018047    0.0013439    0.0030773
h     4.2830320    0.2203189   -0.3956751  0.00   -0.0016797   -0.0011331   -0.0030531
c     5.4889119    2.6907256    0.0872381  0.00    0.0911877    0.0497696   -0.1920693
n     4.2059552    1.7099033    1.9376555  0.00    0.0302291    0.0162216    0.0491802
h     3.4278380    3.0770405    0.4937071  0.00   -0.2884164    0.0760766   -0.0897706
h     3.6234808    2.3184791    2.5432468  0.00    0.0050637   -0.0102545   -0.0113103
h     3.7798129    0.7663970    2.0052193  0.00    0.0035413    0.0140053   -0.0100942
h    -2.3691361    3.1922459    0.0812699  0.00   -0.0004915    0.0001484   -0.0000495
h    -2.1925415    0.7250566   -0.0717009  0.00   -0.0022409    0.0017873   -0.0001944
h    -0.3387747    4.5845221    0.0905041  0.00    0.0003455    0.0003011    0.0002617
h     1.8967872    3.5364774   -0.0478690  0.00    0.2800936   -0.0828410    0.1000046
h     2.2373441   -1.5173173   -0.4906653  0.00   -0.0212223   -0.0085369    0.0010911
o     5.7658859    2.9743820   -1.1465042  0.00   -0.0412204   -0.0404857    0.1524004
o     6.4583859    2.6765994    1.0564240  0.00   -0.0771312    0.0354432    0.0315951
h     6.9375615    1.7619520    0.9356853  0.00    0.0114527   -0.0519993   -0.0141539
    27
 Energy =       0.2668414740
c    -1.3865950    2.7188521    0.0711559  0.00   -0.0235404    0.0194096    0.0012009
c    -1.2945621    1.3423909    0.0131023  0.00   -0.0434156   -0.0172203    0.0008030
c    -0.0415505    0.7848967   -0.0763389  0.00   -0.0433683   -0.0903619    0.0005826
c    -0.2502897    3.5027932    0.0388195  0.00   -0.0116875    0.0353814    0.0011944
c     0.9999979    2.9218351   -0.0627155  0.00    0.0209222    0.0339503    0.0034414
c     1.0921732    1.5425105   -0.1289546  0.00    0.0288990    0.0286264    0.0016436
n     0.3020340   -0.5663085   -0.1816732  0.00    0.0677989    0.0516405   -0.0026655
c     2.1814829    0.6924141   -0.2814219  0.00    0.0765620   -0.0458931   -0.0130655
c     1.6989415   -0.5829548   -0.3229136  0.00   -0.0474412   -0.0463825    0.0024309
h    -0.3390558   -1.3734266   -0.1597659  0.00    0.0154157    0.0202564   -0.0008274
c     3.6062955    1.1259521   -0.5166522  0.00   -0.0016505    0.0209718    0.0029053
c     4.1111494    2.1876114    0.4858094  0.00   -0.0304286   -0.0094533   -0.0127495
h     3.6643569    1.5455176   -1.5462183  0.00    0.0016514    0.0015390    0.0020429
h     4.2762644    0.2370934   -0.4983694  0.00   -0.0010170   -0.0015550   -0.0028246
c     5.4971524    2.6798213    0.0668936  0.00    0.0826496    0.0452888   -0.1765095
n     4.1926766    1.6682838    1.8837082  0.00    0.0278319    0.0147040    0.0456481
h     3.4390284    3.0724428    0.4595028  0.00   -0.2654487    0.0701114   -0.0828699
h     3.6168469    2.2736705    2.5002085  0.00    0.0045747   -0.0092948   -0.0102934
h     3.7578644    0.7265600    1.9340463  0.00    0.0030436    0.0125278   -0.0093144
h    -2.3645194    3.1893561    0.1441097  0.00   -0.0006970    0.0001098   -0.0000365
h    -2.1847851    0.7206724    0.0320285  0.00   -0.0027927    0.0011409   -0.0001660
h    -0.3375755    4.5855063    0.0925686  0.00    0.0003571    0.0003108    0.0002389
h     1.8967891    3.5406460   -0.0784735  0.00    0.2579841   -0.0760965    0.0921498
h     2.2445640   -1.5043203   -0.4968413  0.00   -0.0194219   -0.0078992    0.0008934
o     5.7952006    2.9778083   -1.1667396  0.00   -0.0374371   -0.0368559    0.1394794
o     6.4505711    2.6971492    1.0551941  0.00   -0.0700849    0.0333276    0.0297551
h     6.9489876    1.7933207    0.9534541  0.00    0.0107413   -0.0482838   -0.0130875
    27
 Energy =       0.2337136831
c    -1.3771336    2.7414339    0.1378535  0.00   -0.0119044    0.0098298    0.0002819
c    -1.2892289    1.3743902    0.0619094  0.00   -0.0222311   -0.0085956    0.0001136
c    -0.0523431    0.8166534   -0.0589510  0.00   -0.0217712   -0.0458504    0.0003201
c    -0.2429052    3.5159600    0.0949854  0.00   -0.0063045    0.0179967    0.0003090
c     0.9933010    2.9320960   -0.0364844  0.00    0.0116595    0.0173626    0.0018016
c     1.0687446    1.5655272   -0.1249995  0.00    0.0142415    0.0147895    0.0010264
n     0.2687286   -0.5494041   -0.1854964  0.00    0.0336319    0.0259183   -0.0006852
c     2.1407221    0.7360774   -0.3128336  0.00    0.0393746   -0.0234436   -0.0055382
c     1.6761239   -0.5352554   -0.3621229  0.00   -0.0238503   -0.0229214    0.0010571
h    -0.3732047   -1.3650563   -0.1587419  0.00    0.0078602    0.0102578   -0.0003826
c     3.5676463    1.1569168   -0.5808517  0.00   -0.0034907    0.0088622   -0.0000649
c     4.1292129    2.1374237    0.4791324  0.00   -0.0143731   -0.0024419   -0.0084688
h     3.5975076    1.6422196   -1.5857981  0.00    0.0002531    0.0017589   -0.0016474
h     4.2248560    0.2565921   -0.6391313  0.00    0.0011502   -0.0034359   -0.0016644
c     5.5255835    2.6112873    0.0932174  0.00    0.0403241    0.0214970   -0.0901571
n     4.1710845    1.5282749    1.8366380  0.00    0.0178125    0.0063725    0.0269163
h     3.4964803    3.0543167    0.4886728  0.00   -0.1638991    0.0456360   -0.0537903
h     3.6110325    2.1149174    2.4931183  0.00    0.0014487   -0.0037853   -0.0039523
h     3.7298690    0.5825113    1.8411513  0.00    0.0008310    0.0044729   -0.0045365
h    -2.3516625    3.2145619    0.2361147  0.00   -0.0006554    0.0002200   -0.0000147
h    -2.1786055    0.7528767    0.0918828  0.00   -0.0014950    0.0005792   -0.0001111
h    -0.3234030    4.5983306    0.1660564  0.00    0.0000725    0.0003343    0.0001257
h     1.8920806    3.5461592   -0.0531664  0.00    0.1587502   -0.0467774    0.0576957
h     2.2569750   -1.4310129   -0.5656941  0.00   -0.0090711   -0.0046245    0.0000882
o     5.8343553    2.9431238   -1.1742366  0.00   -0.0187980   -0.0168530    0.0711046
o     6.4868135    2.6919773    1.0814167  0.00   -0.0409286    0.0305821    0.0174715
h     7.0908127    1.8671957    0.9498826  0.00    0.0113625   -0.0377408   -0.0072985
    27
 Energy =       0.2305534783
c    -1.3978410    2.6737471    0.1609465  0.00   -0.0113495    0.0096615    0.0003486
c    -1.2841938    1.3123572    0.0302522  0.00   -0.0202945   -0.0089311    0.0000651
c    -0.0374407    0.7822562   -0.1053298  0.00   -0.0199284   -0.0404341    0.0006909
c    -0.2780752    3.4699586    0.1581916  0.00   -0.0053567    0.0173108    0.0002991
c     0.9684674    2.9141552    0.0127099  0.00    0.0105933    0.0168988    0.0016748
c     1.0692895    1.5538751   -0.1340218  0.00    0.0128358    0.0132663    0.0008919
n     0.3074480   -0.5736162   -0.2986293  0.00    0.0306466    0.0213228   -0.0010656
c     2.1568449    0.7544500   -0.3521139  0.00    0.0360325   -0.0203633   -0.0046204
c     1.7178568   -0.5227173   -0.4578798  0.00   -0.0214995   -0.0215053    0.0010425
h    -0.3188518   -1.4040312   -0.3174950  0.00    0.0059380    0.0074933   -0.0004581
c     3.5783693    1.2118065   -0.6025765  0.00   -0.0032350    0.0073255   -0.0005282
c     4.1245281    2.1477881    0.5060015  0.00   -0.0134156   -0.0009451   -0.0089881
h     3.6004241    1.7462868   -1.5837477  0.00    0.0004542    0.0022845   -0.0027830
h     4.2506138    0.3256676   -0.7044023  0.00    0.0014989   -0.0041582   -0.0018063
c     5.5095894    2.6779291    0.1515816  0.00    0.0334579    0.0186051   -0.0841862
n     4.1759678    1.4685344    1.8304307  0.00    0.0169110    0.0043090    0.0258301
h     3.4772718    3.0529819    0.5597619  0.00   -0.1483115    0.0425232   -0.0485962
h     3.6094436    2.0135999    2.5192161  0.00    0.0001507   -0.0022774   -0.0018852
h     3.7495224    0.5151589    1.7882108  0.00    0.0000500    0.0020976   -0.0038016
h    -2.3816666    3.1251049    0.2712834  0.00   -0.0008879    0.0004813    0.0000338
h    -2.1623332    0.6732849    0.0263248  0.00   -0.0018855   -0.0001642   -0.0001296
h    -0.3785516    4.5478636    0.2746896  0.00    0.0000663    0.0016043    0.0002433
h     1.8537383    3.5468409    0.0353414  0.00    0.1439748   -0.0414404    0.0523292
h     2.3205633   -1.3961734   -0.6965100  0.00   -0.0077320   -0.0052231   -0.0001447
o     5.8355025    3.0283847   -1.1113859  0.00   -0.0162039   -0.0146909    0.0638474
o     6.4377930    2.8320850    1.1672590  0.00   -0.0343804    0.0311426    0.0186044
h     7.0691633    2.0225157    1.0854146  0.00    0.0118706   -0.0361935   -0.0069078
    27
 Energy =       0.2280789088
c    -1.3868343    2.7192788    0.1731893  0.00   -0.0110882    0.0092545    0.0003667
c    -1.2902710    1.3543044    0.0694551  0.00   -0.0194178   -0.0088739    0.0000358
c    -0.0517384    0.8072800   -0.0678392  0.00   -0.0189775   -0.0381769    0.0006532
c    -0.2579870    3.5023460    0.1408675  0.00   -0.0048878    0.0167970    0.0003154
c     0.9801404    2.9289773   -0.0071620  0.00    0.0100896    0.0164342    0.0016384
c     1.0627076    1.5650798   -0.1233523  0.00    0.0122694    0.0125717    0.0008513
n     0.2751142   -0.5578822   -0.2289733  0.00    0.0290644    0.0196920   -0.0010320
c     2.1382134    0.7494373   -0.3319777  0.00    0.0343601   -0.0190050   -0.0043037
c     1.6849332   -0.5251266   -0.4057743  0.00   -0.0203411   -0.0206973    0.0009364
h    -0.3613638   -1.3815868   -0.2204965  0.00    0.0052017    0.0065220   -0.0004232
c     3.5633297    1.1840048   -0.5986890  0.00   -0.0029612    0.0067529   -0.0006365
c     4.1304638    2.1349027    0.4873599  0.00   -0.0133746   -0.0005858   -0.0090425
h     3.5861252    1.6987186   -1.5904479  0.00    0.0005013    0.0022864   -0.0028612
h     4.2232072    0.2871536   -0.6872652  0.00    0.0015129   -0.0041447   -0.0018008
c     5.5266592    2.6207867    0.1089408  0.00    0.0305294    0.0170853   -0.0812867
n     4.1705718    1.4854377    1.8269242  0.00    0.0162198    0.0037002    0.0246091
h     3.5015075    3.0551325    0.5231667  0.00   -0.1410515    0.0408442   -0.0460145
h     3.6162056    2.0570501    2.5046363  0.00   -0.0002431   -0.0017426   -0.0012442
h     3.7284620    0.5381090    1.8085927  0.00   -0.0002279    0.0013678   -0.0035124
h    -2.3642055    3.1842531    0.2849370  0.00   -0.0009593    0.0005069    0.0000455
h    -2.1755578    0.7250104    0.0895531  0.00   -0.0020624   -0.0004312   -0.0001238
h    -0.3446992    4.5839607    0.2341272  0.00    0.0001044    0.0019179    0.0002631
h     1.8744521    3.5505083   -0.0144249  0.00    0.1371716   -0.0389897    0.0496478
h     2.2774415   -1.4099539   -0.6290561  0.00   -0.0072673   -0.0052117   -0.0001924
o     5.8230878    2.9969597   -1.1567590  0.00   -0.0157172   -0.0136664    0.0595511
o     6.4945246    2.7134521    1.0973300  0.00   -0.0344357    0.0359291    0.0213371
h     7.1489540    1.9325004    0.9266614  0.00    0.0159880   -0.0401372   -0.0077772
    27
 Energy =       0.2233400654
c    -1.3788448    2.7522659    0.2020951  0.00   -0.0098406    0.0079347    0.0003306
c    -1.2940813    1.3864445    0.1152448  0.00   -0.0169368   -0.0078724   -0.0000075
c    -0.0632511    0.8285184   -0.0316421  0.00   -0.0163930   -0.0329266    0.0004845
c    -0.2448981    3.5253519    0.1426487  0.00   -0.0040836    0.0147279    0.0002960
c     0.9854554    2.9403387   -0.0154572  0.00    0.0088298    0.0143932    0.0014690
c     1.0545471    1.5759390   -0.1117855  0.00    0.0107317    0.0108963    0.0007593
n     0.2492838   -0.5432404   -0.1723177  0.00    0.0249933    0.0167897   -0.0008105
c     2.1196536    0.7515984   -0.3199120  0.00    0.0298049   -0.0161981   -0.0036750
c     1.6583847   -0.5202709   -0.3692934  0.00   -0.0174780   -0.0180360    0.0007168
h    -0.3936609   -1.3625508   -0.1415741  0.00    0.0042132    0.0052877   -0.0003336
c     3.5466649    1.1687480   -0.6040811  0.00   -0.0024854    0.0057131   -0.0006772
c     4.1385282    2.1206945    0.4678003  0.00   -0.0121066   -0.0002159   -0.0081741
h     3.5651523    1.6749657   -1.5998676  0.00    0.0004554    0.0019939   -0.0025314
h     4.1953203    0.2641512   -0.6919985  0.00    0.0013669   -0.0036538   -0.0015963
c     5.5413004    2.5709145    0.0687274  0.00    0.0253801    0.0134226   -0.0703181
n     4.1713683    1.4859681    1.8131493  0.00    0.0141627    0.0030785    0.0211187
h     3.5281937    3.0539911    0.4966910  0.00   -0.1233466    0.0359427   -0.0401235
h     3.6334110    2.0766950    2.4882316  0.00   -0.0004569   -0.0012131   -0.0007447
h     3.7136786    0.5456229    1.8104612  0.00   -0.0003817    0.0008063   -0.0030075
h    -2.3509164    3.2262487    0.3215390  0.00   -0.0009293    0.0004439    0.0000476
h    -2.1834446    0.7639605    0.1573993  0.00   -0.0020078   -0.0005551   -0.0001029
h    -0.3217396    4.6088138    0.2210394  0.00    0.0001315    0.0018329    0.0002407
h     1.8847724    3.5537576   -0.0490774  0.00    0.1201557   -0.0338558    0.0433060
h     2.2461805   -1.4103558   -0.5843711  0.00   -0.0062849   -0.0045875   -0.0001941
o     5.8036826    2.9993997   -1.1948117  0.00   -0.0142750   -0.0108553    0.0490331
o     6.5459490    2.6000404    1.0267776  0.00   -0.0321819    0.0375954    0.0230845
h     7.2227537    1.8620837    0.7679083  0.00    0.0189628   -0.0408891   -0.0085906
    27
 Energy =       0.2182927439
c    -1.3760866    2.7661403    0.2432334  0.00   -0.0080876    0.0063258    0.0002528
c    -1.2950352    1.4015329    0.1594987  0.00   -0.0137997   -0.0063495   -0.0000376
c    -0.0693985    0.8412161   -0.0039090  0.00   -0.0131705   -0.0265869    0.0003304
c    -0.2422308    3.5355643    0.1640648  0.00   -0.0032763    0.0119585    0.0002405
c     0.9829553    2.9475390   -0.0102676  0.00    0.0072990    0.0116033    0.0012128
c     1.0467893    1.5848671   -0.1019589  0.00    0.0087709    0.0088231    0.0006386
n     0.2362152   -0.5335820   -0.1406384  0.00    0.0200097    0.0135368   -0.0005597
c     2.1059167    0.7606834   -0.3190038  0.00    0.0241399   -0.0130033   -0.0029209
c     1.6445442   -0.5099251   -0.3561872  0.00   -0.0139755   -0.0145615    0.0005091
h    -0.4080345   -1.3523786   -0.0975117  0.00    0.0033141    0.0041750   -0.0002507
c     3.5331529    1.1700499   -0.6170130  0.00   -0.0019951    0.0045198   -0.0006528
c     4.1462691    2.1104927    0.4522687  0.00   -0.0101817    0.0003370   -0.0070291
h     3.5450499    1.6807526   -1.6100411  0.00    0.0003740    0.0016109   -0.0020865
h     4.1740717    0.2616775   -0.7154053  0.00    0.0011732   -0.0030054   -0.0012895
c     5.5517826    2.5386918    0.0410776  0.00    0.0183270    0.0067414   -0.0536544
n     4.1726997    1.4747547    1.7953234  0.00    0.0115546    0.0023883    0.0168981
h     3.5526874    3.0540269    0.4836670  0.00   -0.1016912    0.0297944   -0.0332108
h     3.6527266    2.0766229    2.4750553  0.00   -0.0005397   -0.0007353   -0.0003912
h     3.6997376    0.5418558    1.7981398  0.00   -0.0004188    0.0004284   -0.0024433
h    -2.3452371    3.2424393    0.3757877  0.00   -0.0008527    0.0003702    0.0000463
h    -2.1844349    0.7807453    0.2177392  0.00   -0.0017452   -0.0005071   -0.0000796
h    -0.3154332    4.6192217    0.2392670  0.00    0.0001146    0.0014940    0.0001967
h     1.8819306    3.5586438   -0.0612642  0.00    0.0991280   -0.0279175    0.0357558
h     2.2338375   -1.3990158   -0.5710017  0.00   -0.0050775   -0.0037007   -0.0001716
o     5.7752405    3.0740986   -1.2006935  0.00   -0.0126104   -0.0049741    0.0316848
o     6.5918096    2.4787560    0.9641411  0.00   -0.0281639    0.0374540    0.0271944
h     7.2819179    1.7946231    0.6091552  0.00    0.0213809   -0.0402196   -0.0101828
    27
 Energy =       0.2170481011
c    -1.3866329    2.7353998    0.3273664  0.00   -0.0075367    0.0056697    0.0002427
c    -1.2943062    1.3724978    0.2380206  0.00   -0.0127127   -0.0056402   -0.0000113
c    -0.0674498    0.8242528    0.0486139  0.00   -0.0119314   -0.0239388    0.0003024
c    -0.2619597    3.5151515    0.2282866  0.00   -0.0030417    0.0109388    0.0002314
c     0.9644231    2.9393220    0.0272991  0.00    0.0068675    0.0103593    0.0010529
c     1.0388300    1.5782243   -0.0706758  0.00    0.0078958    0.0079896    0.0006112
n     0.2474547   -0.5480577   -0.0987171  0.00    0.0173953    0.0122312   -0.0003435
c     2.1001251    0.7662200   -0.3159149  0.00    0.0215432   -0.0117790   -0.0025107
c     1.6511231   -0.5081772   -0.3481273  0.00   -0.0120775   -0.0130324    0.0003550
h    -0.3877108   -1.3737486   -0.0430536  0.00    0.0028113    0.0035769   -0.0002033
c     3.5153854    1.1908561   -0.6526648  0.00   -0.0014467    0.0042469   -0.0008993
c     4.1530646    2.1140579    0.4163700  0.00   -0.0100882    0.0003908   -0.0075982
h     3.4914300    1.7210367   -1.6359140  0.00    0.0002602    0.0017572   -0.0026645
h     4.1607286    0.2901285   -0.7888955  0.00    0.0016382   -0.0031776   -0.0012638
c     5.5298502    2.5908189   -0.0405005  0.00    0.0157253    0.0033631   -0.0447416
n     4.2452831    1.4420407    1.7402102  0.00    0.0117579    0.0002229    0.0167451
h     3.5410664    3.0432801    0.4967526  0.00   -0.0927044    0.0279772   -0.0301490
h     3.7306984    2.0094841    2.4546634  0.00   -0.0015168    0.0002825    0.0010909
h     3.8007371    0.4945963    1.7340193  0.00   -0.0006693   -0.0004938   -0.0015245
h    -2.3575063    3.2022291    0.4807088  0.00   -0.0010282    0.0004165    0.0000776
h    -2.1765346    0.7432030    0.3121565  0.00   -0.0017637   -0.0005196   -0.0000540
h    -0.3436291    4.5977581    0.3087213  0.00    0.0000783    0.0013965    0.0001840
h     1.8557638    3.5600619   -0.0385201  0.00    0.0896057   -0.0250840    0.0323175
h     2.2454398   -1.3887109   -0.5842034  0.00   -0.0043231   -0.0034988   -0.0002337
o     5.6762530    3.1993807   -1.2671167  0.00   -0.0105215   -0.0010502    0.0220355
o     6.6116409    2.5327516    0.8342362  0.00   -0.0240397    0.0339936    0.0263036
h     7.2898755    1.8560366    0.4504021  0.00    0.0198230   -0.0365984   -0.0093525
    27
 Energy =       0.2173251599
c    -1.3967195    2.6937405    0.4097854  0.00   -0.0071298    0.0054690    0.0002607
c    -1.2893594    1.3340643    0.2961950  0.00   -0.0119122   -0.0051984    0.0000276
c    -0.0595628    0.8036482    0.0784438  0.00   -0.0109804   -0.0217584    0.0003396
c    -0.2832312    3.4881002    0.3073639  0.00   -0.0030564    0.0103159    0.0002594
c     0.9463332    2.9306356    0.0777910  0.00    0.0065105    0.0095460    0.0009366
c     1.0353028    1.5723714   -0.0465421  0.00    0.0071103    0.0072433    0.0006067
n     0.2680277   -0.5629961   -0.0991888  0.00    0.0156593    0.0108553   -0.0002767
c     2.1011021    0.7777332   -0.3268804  0.00    0.0197212   -0.0109064   -0.0021420
c     1.6670724   -0.5008821   -0.3737316  0.00   -0.0106357   -0.0120003    0.0002517
h    -0.3563284   -1.3975300   -0.0468942  0.00    0.0024704    0.0031169   -0.0001805
c     3.5041203    1.2244207   -0.6900447  0.00   -0.0011433    0.0039240   -0.0010884
c     4.1582154    2.1201868    0.3910669  0.00   -0.0099401    0.0005276   -0.0079330
h     3.4489532    1.7842855   -1.6563311  0.00    0.0001748    0.0020524   -0.0033528
h     4.1549480    0.3347307   -0.8702204  0.00    0.0021592   -0.0036344   -0.0013618
c     5.5039342    2.6581535   -0.0927131  0.00    0.0140862   -0.0011202   -0.0359708