    27
 Energy =       0.2831038503
c    -1.4235396    2.6054793   -0.0667700  0.00   -0.0462074    0.0382984    0.0027414
c    -1.3072796    1.2134697   -0.1072300  0.00   -0.0852475   -0.0325616    0.0020000
c    -0.0178900    0.6711998   -0.1697000  0.00   -0.0885594   -0.1878484   -0.0010642
c    -0.2940599    3.4190890   -0.0891300  0.00   -0.0230909    0.0691358    0.0029284
c     0.9872197    2.8590292   -0.1560400  0.00    0.0104478    0.0643782    0.0010017
c     1.1340797    1.4562096   -0.1970299  0.00    0.0530846    0.0518100    0.0021803
n     0.3879399   -0.6395298   -0.2140799  0.00    0.1438892    0.1090957   -0.0038243
c     2.2666594    0.5727398   -0.2659299  0.00    0.1388633   -0.0561619   -0.0196648
c     1.7555995   -0.7123598   -0.2706899  0.00   -0.0964032   -0.0971746    0.0047809
h    -0.2400399   -1.4313496   -0.2047299  0.00    0.0365088    0.0476039   -0.0003870
c     3.7030089    1.0223397   -0.3320099  0.00    0.0496635    0.0393573    0.0273742
c     4.7465686   -0.0024900    0.1378100  0.00   -0.1116950    0.0909298    0.0139498
h     3.7978489    1.9290294    0.2803699  0.00    0.0213682   -0.0117607   -0.0135807
h     3.9233889    1.3348996   -1.3618196  0.00   -0.0034537    0.0022491    0.0143945
c     6.0911583    0.7171698    0.3515799  0.00    0.3614190   -0.1448954    0.0730433
n     4.9813086   -1.1161597   -0.8485798  0.00    0.0833611   -0.0794449   -0.0214688
h     4.4627987   -0.4486599    1.0982597  0.00    0.0092782   -0.0113747   -0.0263103
h     5.9519483   -1.0348997   -1.1684897  0.00   -0.0307071    0.0266738    0.0444969
h     4.9673786   -2.0001494   -0.3277699  0.00    0.0016275    0.0348511   -0.0119025
h    -2.4108593    3.0588691   -0.0157800  0.00   -0.0008866    0.0002717    0.0000403
h    -2.1896094    0.5822398   -0.0890100  0.00   -0.0036509    0.0037116    0.0000794
h    -0.4052699    4.5000487   -0.0535400  0.00    0.0008407    0.0002128    0.0002713
h     1.8590495    3.5066790   -0.1715100  0.00   -0.0008622    0.0024272    0.0006919
h     2.2327294   -1.6813195   -0.3062999  0.00   -0.0416450   -0.0114815    0.0035777
o     7.1078880    0.2061599    0.7909508  0.00   -0.2457816    0.1228684   -0.0990129
o     6.0134283    2.0241194   -0.0177607  0.00   -0.1010279   -0.0494880   -0.0090514
h     6.6727281    2.1222694   -0.7528048  0.00   -0.0311334   -0.0216830    0.0127148
    27
 Energy =       0.2412763791
c    -1.4200557    2.5101986   -0.0274971  0.00   -0.0324657    0.0273082    0.0019167
c    -1.2855904    1.1294696   -0.0696128  0.00   -0.0606170   -0.0229972    0.0014044
c    -0.0040063    0.6068623   -0.1317650  0.00   -0.0634069   -0.1336678   -0.0005457
c    -0.3059575    3.3324850   -0.0501435  0.00   -0.0162281    0.0490997    0.0020655
c     0.9702473    2.7895632   -0.1178837  0.00    0.0080891    0.0455801    0.0006687
c     1.1190893    1.4035569   -0.1582074  0.00    0.0367818    0.0378146    0.0014932
n     0.4056244   -0.7183759   -0.1893614  0.00    0.1002736    0.0773070   -0.0026729
c     2.2530927    0.5702389   -0.2319966  0.00    0.0991870   -0.0394707   -0.0136264
c     1.7935504   -0.7214450   -0.2520799  0.00   -0.0692955   -0.0669206    0.0035910
h    -0.2012467   -1.5397655   -0.1843297  0.00    0.0257409    0.0328572   -0.0003570
c     3.6763412    1.0664537   -0.3125580  0.00    0.0361722    0.0287776    0.0195423
c     4.7648591    0.0602264    0.0977549  0.00   -0.0791099    0.0662282    0.0110184
h     3.7577408    1.9506598    0.3430580  0.00    0.0154743   -0.0075803   -0.0089374
h     3.8669402    1.4264549   -1.3386552  0.00   -0.0020153    0.0023603    0.0089018
c     6.0786737    0.8174036    0.3198660  0.00    0.2581888   -0.1055532    0.0495731
n     4.9837854   -0.9955796   -0.9424518  0.00    0.0603444   -0.0540224   -0.0188462
h     4.5142179   -0.4265484    1.0564245  0.00    0.0062679   -0.0086973   -0.0172073
h     5.9575264   -0.9159158   -1.2763465  0.00   -0.0215175    0.0197236    0.0320796
h     4.9381259   -1.9238259   -0.4865230  0.00    0.0007676    0.0194257   -0.0066759
h    -2.4129173    2.9511621    0.0235567  0.00   -0.0007061    0.0002615    0.0000325
h    -2.1575112    0.4839476   -0.0544037  0.00   -0.0027285    0.0025837    0.0000502
h    -0.4294985    4.4122602   -0.0152468  0.00    0.0006181    0.0002298    0.0001938
h     1.8373699    3.4433592   -0.1370521  0.00   -0.0004395    0.0015659    0.0004998
h     2.3436506   -1.6520134   -0.3162225  0.00   -0.0274861   -0.0105247    0.0023336
o     7.1349689    0.2966459    0.7871787  0.00   -0.1749961    0.0884306   -0.0703610
o     6.0093818    2.1433143   -0.0132655  0.00   -0.0848303   -0.0341848    0.0095335
h     6.5657792    2.2333300   -0.8499702  0.00   -0.0120630   -0.0159349   -0.0056682
    27
 Energy =       0.2285501423
c    -1.4295450    2.4329903    0.0020114  0.00   -0.0264754    0.0224057    0.0015636
c    -1.2759201    1.0584424   -0.0420583  0.00   -0.0495694   -0.0187581    0.0011536
c     0.0064100    0.5547164   -0.1040120  0.00   -0.0520472   -0.1091283   -0.0003709
c    -0.3287424    3.2677920   -0.0191901  0.00   -0.0131460    0.0401798    0.0016804
c     0.9493216    2.7423828   -0.0866468  0.00    0.0068995    0.0371753    0.0005230
c     1.1100754    1.3648325   -0.1279968  0.00    0.0297726    0.0312039    0.0011984
n     0.4296296   -0.7736097   -0.1671943  0.00    0.0811981    0.0630195   -0.0021996
c     2.2508057    0.5632474   -0.2024939  0.00    0.0809901   -0.0322105   -0.0106854
c     1.8256624   -0.7345200   -0.2289698  0.00   -0.0566249   -0.0543036    0.0029718
h    -0.1613396   -1.6123627   -0.1659267  0.00    0.0208747    0.0263709   -0.0003196
c     3.6619037    1.0968003   -0.2826220  0.00    0.0287735    0.0238196    0.0162402
c     4.7892447    0.1039981    0.0583969  0.00   -0.0641745    0.0554540    0.0102560
h     3.7327243    1.9492375    0.4207470  0.00    0.0123548   -0.0049561   -0.0062286
h     3.8247063    1.5139050   -1.2957411  0.00   -0.0012091    0.0028611    0.0054269
c     6.0798892    0.8921072    0.2960114  0.00    0.2115797   -0.0869278    0.0397919
n     5.0048863   -0.8906106   -1.0379684  0.00    0.0506108   -0.0429649   -0.0193810
h     4.5711976   -0.4336385    1.0031519  0.00    0.0046080   -0.0079935   -0.0122076
h     5.9831281   -0.8053098   -1.3679887  0.00   -0.0174137    0.0163537    0.0261727
h     4.9356531   -1.8509551   -0.6452761  0.00    0.0003050    0.0115312   -0.0040735
h    -2.4283351    2.8604305    0.0529213  0.00   -0.0006766    0.0002730    0.0000319
h    -2.1378856    0.3996145   -0.0290754  0.00   -0.0023464    0.0020397    0.0000420
h    -0.4662458    4.3459678    0.0164149  0.00    0.0005066    0.0002917    0.0001605
h     1.8090224    3.4060531   -0.1057326  0.00   -0.0002565    0.0012768    0.0003992
h     2.4133671   -1.6416665   -0.3010112  0.00   -0.0219142   -0.0092578    0.0018260
o     7.1602172    0.3771105    0.7735549  0.00   -0.1426216    0.0726227   -0.0575854
o     5.9999923    2.2278672   -0.0143738  0.00   -0.0773608   -0.0279375    0.0217562
h     6.4443582    2.3193005   -0.9266651  0.00   -0.0026372   -0.0124406   -0.0181427
    27
 Energy =       0.2248909400
c    -1.4392562    2.3712651    0.0271415  0.00   -0.0237781    0.0201460    0.0014073
c    -1.2688575    1.0006707   -0.0231670  0.00   -0.0444886   -0.0168523    0.0010571
c     0.0168474    0.5131871   -0.0830294  0.00   -0.0467499   -0.0976861   -0.0002163
c    -0.3493665    3.2181616    0.0133507  0.00   -0.0117279    0.0361088    0.0014967
c     0.9325683    2.7083556   -0.0518608  0.00    0.0063488    0.0333386    0.0004436
c     1.1066726    1.3358326   -0.0987217  0.00    0.0266061    0.0281104    0.0010457
n     0.4550199   -0.8136104   -0.1579933  0.00    0.0724147    0.0563237   -0.0020961
c     2.2551970    0.5564750   -0.1727921  0.00    0.0725392   -0.0289375   -0.0092008
c     1.8546129   -0.7462129   -0.2076286  0.00   -0.0506231   -0.0486021    0.0027315
h    -0.1231723   -1.6639296   -0.1683814  0.00    0.0185412    0.0232993   -0.0003274
c     3.6557190    1.1194500   -0.2451681  0.00    0.0247612    0.0214525    0.0148124
c     4.8137392    0.1375111    0.0257420  0.00   -0.0569751    0.0506648    0.0102718
h     3.7213182    1.9369217    0.5028877  0.00    0.0106838   -0.0032400   -0.0044934
h     3.7919908    1.5916338   -1.2406628  0.00   -0.0006374    0.0035323    0.0031020
c     6.0880054    0.9482126    0.2731616  0.00    0.1901168   -0.0780420    0.0352502
n     5.0224973   -0.8005136   -1.1196885  0.00    0.0464587   -0.0378693   -0.0205032
h     4.6294302   -0.4466559    0.9534169  0.00    0.0037597   -0.0080162   -0.0092960
h     6.0026894   -0.7083646   -1.4473253  0.00   -0.0155318    0.0146706    0.0233430
h     4.9382414   -1.7830053   -0.7821195  0.00    0.0000957    0.0073425   -0.0028830
h    -2.4433093    2.7865062    0.0763333  0.00   -0.0006928    0.0002845    0.0000333
h    -2.1224322    0.3308298   -0.0178198  0.00   -0.0022046    0.0017513    0.0000383
h    -0.4995840    4.2945812    0.0532044  0.00    0.0004511    0.0003583    0.0001456
h     1.7851733    3.3814555   -0.0650996  0.00   -0.0001362    0.0011804    0.0003467
h     2.4652374   -1.6379816   -0.2813791  0.00   -0.0194628   -0.0085629    0.0016132
o     7.1872367    0.4408667    0.7427705  0.00   -0.1275017    0.0650985   -0.0518093
o     5.9923580    2.2890915   -0.0231282  0.00   -0.0769334   -0.0258206    0.0423121
h     6.2856051    2.3733890   -1.0097770  0.00    0.0046663   -0.0100334   -0.0386249
    27
 Energy =       0.2192862604
c    -1.4369334    2.3721444    0.0077267  0.00   -0.0215028    0.0182246    0.0012641
c    -1.2662753    1.0038354   -0.0505553  0.00   -0.0402302   -0.0152822    0.0009436
c     0.0169820    0.5170439   -0.1080343  0.00   -0.0422564   -0.0881232   -0.0000977
c    -0.3476538    3.2177381    0.0019459  0.00   -0.0105883    0.0326668    0.0013515
c     0.9325937    2.7081367   -0.0623344  0.00    0.0057729    0.0301637    0.0003993
c     1.1046236    1.3378989   -0.1151434  0.00    0.0240517    0.0254938    0.0009020
n     0.4498766   -0.8121841   -0.2022063  0.00    0.0655143    0.0507278   -0.0020428
c     2.2504054    0.5621246   -0.1937927  0.00    0.0655422   -0.0261492   -0.0079689
c     1.8522360   -0.7391884   -0.2464536  0.00   -0.0458845   -0.0438999    0.0024696
h    -0.1299266   -1.6632712   -0.2248724  0.00    0.0167057    0.0209662   -0.0004044
c     3.6530024    1.1210192   -0.2796383  0.00    0.0210878    0.0189023    0.0135135
c     4.8012388    0.1497085    0.0711314  0.00   -0.0505362    0.0470798    0.0109147
h     3.7075599    1.9848049    0.4186412  0.00    0.0091584   -0.0010591   -0.0026009
h     3.8091095    1.5299513   -1.3021591  0.00   -0.0003552    0.0041782    0.0005854
c     6.0770360    0.9619033    0.3035992  0.00    0.1719964   -0.0703405    0.0321297
n     5.0209359   -0.8496775   -1.0211009  0.00    0.0426588   -0.0337923   -0.0227073
h     4.5898448   -0.3806063    1.0271085  0.00    0.0031410   -0.0081101   -0.0064261
h     6.0022205   -0.7718582   -1.3527424  0.00   -0.0138571    0.0129712    0.0209470
h     4.9493333   -1.8131236   -0.6233664  0.00   -0.0000154    0.0034411   -0.0015562
h    -2.4410882    2.7872202    0.0551753  0.00   -0.0006318    0.0002507    0.0000179
h    -2.1195598    0.3335945   -0.0553419  0.00   -0.0020321    0.0015424   -0.0000111
h    -0.4975986    4.2940059    0.0467545  0.00    0.0004094    0.0003339    0.0001556
h     1.7849882    3.3813616   -0.0711405  0.00   -0.0000365    0.0010251    0.0003470
h     2.4687745   -1.6253487   -0.3395219  0.00   -0.0175167   -0.0079292    0.0014474
o     7.1794768    0.4473353    0.7814444  0.00   -0.1153233    0.0588228   -0.0467894
o     5.9989600    2.3002470   -0.0118421  0.00   -0.0700676   -0.0232162    0.0405251
h     6.3440194    2.3793071   -0.9810145  0.00    0.0047954   -0.0088884   -0.0373084
    27
 Energy =       0.2119737785
c    -1.4428629    2.3364331   -0.0044790  0.00   -0.0184665    0.0153643    0.0010702
c    -1.2609736    0.9710203   -0.0338581  0.00   -0.0341214   -0.0134030    0.0006633
c     0.0217143    0.4948852   -0.1048656  0.00   -0.0353816   -0.0731625   -0.0007152
c    -0.3621907    3.1895937   -0.0492611  0.00   -0.0085262    0.0279841    0.0012014
c     0.9184018    2.6897597   -0.1272501  0.00    0.0051646    0.0258174    0.0004385
c     1.0982324    1.3229034   -0.1527953  0.00    0.0205087    0.0219060    0.0007817
n     0.4598010   -0.8393908   -0.1489900  0.00    0.0533444    0.0416442   -0.0008154
c     2.2455049    0.5610479   -0.2375153  0.00    0.0557371   -0.0222557   -0.0062513
c     1.8632250   -0.7437536   -0.2571473  0.00   -0.0369362   -0.0363008    0.0013950
h    -0.1127219   -1.6998143   -0.1176830  0.00    0.0127400    0.0156440   -0.0000684
c     3.6445975    1.1262428   -0.3640784  0.00    0.0155391    0.0146910    0.0110232
c     4.7905175    0.1893908    0.0889684  0.00   -0.0410251    0.0406544    0.0120124
h     3.6796197    2.0505250    0.2598881  0.00    0.0068560    0.0030417    0.0004948
h     3.8137452    1.4457379   -1.4196592  0.00    0.0001495    0.0050242   -0.0036497
c     6.0543973    1.0175090    0.3285370  0.00    0.1454009   -0.0591432    0.0271269
n     5.0456361   -0.8679341   -0.9404806  0.00    0.0368283   -0.0286547   -0.0243762
h     4.5427797   -0.2846876    1.0679345  0.00    0.0024193   -0.0074845   -0.0030412
h     6.0306119   -0.7926632   -1.2673623  0.00   -0.0115354    0.0105457    0.0176758
h     4.9925637   -1.8086921   -0.4832770  0.00    0.0000692   -0.0005369   -0.0001099
h    -2.4496247    2.7437454    0.0541017  0.00   -0.0006685    0.0001715    0.0000176
h    -2.1075600    0.2921103   -0.0005462  0.00   -0.0023141    0.0007399    0.0000134
h    -0.5202612    4.2655986   -0.0256008  0.00    0.0004402    0.0005727    0.0001361
h     1.7641364    3.3706230   -0.1690868  0.00    0.0005658    0.0012087    0.0002879
h     2.4958250   -1.6182116   -0.3574998  0.00   -0.0147016   -0.0068296    0.0011143
o     7.1633140    0.5023153    0.8251541  0.00   -0.0972668    0.0496916   -0.0392130
o     5.9819395    2.3597561    0.0224769  0.00   -0.0608072   -0.0197825    0.0399471
h     6.4038139    2.4600731   -0.9133580  0.00    0.0059875   -0.0071480   -0.0371592
    27
 Energy =       0.2057318655
c    -1.4653088    2.2507256   -0.0514648  0.00   -0.0151725    0.0126502    0.0008854
c    -1.2585616    0.8915584   -0.0896840  0.00   -0.0279012   -0.0110273    0.0005807
c     0.0292940    0.4392761   -0.1569429  0.00   -0.0288887   -0.0592998   -0.0003738
c    -0.4009696    3.1215719   -0.0858979  0.00   -0.0068566    0.0229995    0.0009626
c     0.8858593    2.6450901   -0.1601421  0.00    0.0044929    0.0210673    0.0003142
c     1.0873106    1.2846263   -0.1920779  0.00    0.0166518    0.0179582    0.0005544
n     0.4865342   -0.8917150   -0.2206991  0.00    0.0427951    0.0334882   -0.0008485
c     2.2451836    0.5501809   -0.2750145  0.00    0.0454487   -0.0178200   -0.0051353
c     1.8930465   -0.7598799   -0.3120044  0.00   -0.0298771   -0.0294131    0.0011855
h    -0.0705608   -1.7657447   -0.2078606  0.00    0.0100728    0.0121351   -0.0001100
c     3.6357038    1.1406414   -0.3969531  0.00    0.0103265    0.0113598    0.0078602
c     4.7887468    0.2570712    0.1456819  0.00   -0.0317742    0.0338632    0.0124810
h     3.6308692    2.1002267    0.1739503  0.00    0.0044550    0.0047966    0.0019563
h     3.8296772    1.4021287   -1.4649921  0.00    0.0000035    0.0045798   -0.0049531
c     6.0246657    1.1242741    0.3982800  0.00    0.1180433   -0.0480258    0.0210846
n     5.0959406   -0.8395258   -0.8264419  0.00    0.0301545   -0.0244194   -0.0238712
h     4.5105582   -0.1739024    1.1374864  0.00    0.0019937   -0.0062287   -0.0008877
h     6.0874077   -0.7564068   -1.1380423  0.00   -0.0089258    0.0080501    0.0142255
h     5.0586615   -1.7594758   -0.3245239  0.00    0.0003602   -0.0025922    0.0006094
h    -2.4795643    2.6397161    0.0040768  0.00   -0.0007401    0.0002222    0.0000264
h    -2.0925434    0.1967184   -0.0681752  0.00   -0.0021045    0.0004277    0.0000176
h    -0.5780267    4.1946217   -0.0571242  0.00    0.0003429    0.0006740    0.0001129
h     1.7183427    3.3422353   -0.1949807  0.00    0.0008264    0.0010479    0.0002197
h     2.5533448   -1.6132884   -0.4213406  0.00   -0.0117087   -0.0060176    0.0008758
o     7.1458104    0.6363457    0.9299471  0.00   -0.0778755    0.0405769   -0.0308142
o     5.9316082    2.4701045    0.1025955  0.00   -0.0551576   -0.0158848    0.0447893
h     6.4611516    2.6069487   -0.7753894  0.00    0.0110151   -0.0051680   -0.0417478
    27
 Energy =       0.2050365387
c    -1.4930615    2.1498568   -0.0816806  0.00   -0.0148661    0.0122411    0.0008686
c    -1.2559739    0.7957075   -0.1203136  0.00   -0.0269776   -0.0107872    0.0005653
c     0.0415225    0.3720060   -0.1856517  0.00   -0.0277608   -0.0567332   -0.0003409
c    -0.4484877    3.0440879   -0.1141854  0.00   -0.0066104    0.0223870    0.0009333
c     0.8481928    2.5964510   -0.1864696  0.00    0.0045730    0.0203756    0.0002902
c     1.0797617    1.2409092   -0.2181208  0.00    0.0160065    0.0172497    0.0005130
n     0.5297154   -0.9499238   -0.2502269  0.00    0.0406663    0.0317447   -0.0008014
c     2.2539168    0.5342936   -0.2983901  0.00    0.0436168   -0.0169177   -0.0050260
c     1.9341149   -0.7830266   -0.3376819  0.00   -0.0283235   -0.0283406    0.0010780
h    -0.0055977   -1.8383840   -0.2401913  0.00    0.0093545    0.0111057   -0.0001016
c     3.6308641    1.1574192   -0.4176999  0.00    0.0086556    0.0105382    0.0065889
c     4.7986594    0.3249534    0.1762818  0.00   -0.0302681    0.0325576    0.0134432
h     3.5867789    2.1340884    0.1218357  0.00    0.0037332    0.0057887    0.0026364
h     3.8364779    1.3903200   -1.4902022  0.00   -0.0001758    0.0044725   -0.0052557
c     5.9990712    1.2390908    0.4461173  0.00    0.1128310   -0.0466119    0.0202473
n     5.1635270   -0.7814708   -0.7654920  0.00    0.0275542   -0.0237679   -0.0248008
h     4.5054227   -0.0940420    1.1689170  0.00    0.0019334   -0.0057623   -0.0004706
h     6.1518382   -0.6554581   -1.0773226  0.00   -0.0070379    0.0078060    0.0131740
h     5.1702956   -1.6899092   -0.2391376  0.00    0.0005876   -0.0046135    0.0012885
h    -2.5160406    2.5162450   -0.0275875  0.00   -0.0010015    0.0003208    0.0000410
h    -2.0743961    0.0822667   -0.1006690  0.00   -0.0022497    0.0002065    0.0000229
h    -0.6495113    4.1131698   -0.0854333  0.00    0.0002742    0.0009537    0.0001159
h     1.6637691    3.3135040   -0.2200956  0.00    0.0011087    0.0012198    0.0001965
h     2.6183234   -1.6181548   -0.4466340  0.00   -0.0109060   -0.0061237    0.0007659
o     7.1373636    0.7950988    0.9881764  0.00   -0.0731242    0.0386147   -0.0287226
o     5.8556861    2.5872472    0.1706140  0.00   -0.0526970   -0.0130135    0.0435624
h     6.3919490    2.7577768   -0.6964900  0.00    0.0111035   -0.0049106   -0.0408114
    27
 Energy =       0.2035796290
c    -1.4682373    2.2442263   -0.0721790  0.00   -0.0146994    0.0119329    0.0008559
c    -1.2587725    0.8859950   -0.1157983  0.00   -0.0263395   -0.0106659    0.0005512
c     0.0293607    0.4362691   -0.1806264  0.00   -0.0269134   -0.0548172   -0.0003047
c    -0.4051986    3.1168202   -0.0993773  0.00   -0.0064495    0.0219874    0.0009097
c     0.8824225    2.6426402   -0.1709102  0.00    0.0046279    0.0199349    0.0002715
c     1.0853931    1.2830521   -0.2077166  0.00    0.0155705    0.0167465    0.0004900
n     0.4868865   -0.8958112   -0.2526928  0.00    0.0391980    0.0304236   -0.0007825
c     2.2439563    0.5520943   -0.2891678  0.00    0.0422791   -0.0162857   -0.0049250
c     1.8954538   -0.7585809   -0.3353042  0.00   -0.0271430   -0.0276588    0.0010143
h    -0.0699454   -1.7716751   -0.2488061  0.00    0.0087525    0.0102857   -0.0000984
c     3.6360456    1.1436041   -0.4029832  0.00    0.0077280    0.0102428    0.0057668
c     4.7837171    0.2647105    0.1647307  0.00   -0.0294409    0.0314089    0.0137765
h     3.6259126    2.1118395    0.1559866  0.00    0.0035035    0.0063551    0.0029629
h     3.8415213    1.3905442   -1.4723969  0.00   -0.0002826    0.0043870   -0.0052137
c     6.0194510    1.1322411    0.4297487  0.00    0.1086412   -0.0456590    0.0196165
n     5.1004068   -0.8427424   -0.7938534  0.00    0.0232733   -0.0209565   -0.0257680
h     4.4907447   -0.1549827    1.1571870  0.00    0.0018629   -0.0054709   -0.0003239
h     6.1049589   -0.7764524   -1.0788427  0.00   -0.0032585    0.0079666    0.0118570
h     5.0370017   -1.7635792   -0.2883968  0.00    0.0003510   -0.0085868    0.0030266
h    -2.4837810    2.6313695   -0.0186407  0.00   -0.0012115    0.0003986    0.0000522
h    -2.0917160    0.1890842   -0.1011002  0.00   -0.0023776    0.0000196    0.0000252
h    -0.5841883    4.1899180   -0.0668879  0.00    0.0002232    0.0011937    0.0001194
h     1.7141093    3.3417176   -0.2000883  0.00    0.0013267    0.0013855    0.0001807
h     2.5608115   -1.6085216   -0.4475120  0.00   -0.0102468   -0.0061961    0.0006965
o     7.1369497    0.6363457    0.9768455  0.00   -0.0691130    0.0365623   -0.0268662
o     5.9360461    2.4829825    0.1407073  0.00   -0.0513782   -0.0106291    0.0428281
h     6.5048713    2.6310142   -0.7096584  0.00    0.0115161   -0.0043051   -0.0407185
    27
 Energy =       0.2002930839
c    -1.4525914    2.2751126   -0.1066135  0.00   -0.0124753    0.0100671    0.0007219
c    -1.2525068    0.9179114   -0.1600183  0.00   -0.0222619   -0.0090940    0.0004822
c     0.0299486    0.4598769   -0.2229116  0.00   -0.0226868   -0.0461443   -0.0001486
c    -0.3838362    3.1387749   -0.1229919  0.00   -0.0054381    0.0186250    0.0007483
c     0.8990529    2.6556655   -0.1921950  0.00    0.0039305    0.0169176    0.0002023
c     1.0904698    1.2968262   -0.2381113  0.00    0.0131711    0.0141954    0.0003736
n     0.4716831   -0.8775681   -0.3101185  0.00    0.0331024    0.0255364   -0.0007649
c     2.2409828    0.5596800   -0.3202147  0.00    0.0356487   -0.0136092   -0.0039514
c     1.8836603   -0.7468608   -0.3822406  0.00   -0.0228946   -0.0234483    0.0009071
h    -0.0951092   -1.7486238   -0.3199118  0.00    0.0072454    0.0084804   -0.0001062
c     3.6423427    1.1343051   -0.4239428  0.00    0.0059015    0.0086705    0.0048074
c     4.7641520    0.2541059    0.1929279  0.00   -0.0248882    0.0259977    0.0121771
h     3.6350574    2.1184043    0.1044484  0.00    0.0023326    0.0058761    0.0027154
h     3.8740049    1.3455951   -1.4955910  0.00   -0.0000170    0.0039432   -0.0052754
c     6.0028478    1.1061710    0.4913551  0.00    0.0911060   -0.0382560    0.0161788
n     5.0950991   -0.8674437   -0.7412547  0.00    0.0075356   -0.0081662   -0.0263424
h     4.4347763   -0.1473281    1.1821854  0.00    0.0013175   -0.0048221    0.0005023
h     6.1361690   -0.8818096   -0.9200896  0.00    0.0123136    0.0064482    0.0072455
h     4.9123815   -1.7863390   -0.2495086  0.00   -0.0024146   -0.0168376    0.0086710
h    -2.4654124    2.6691867   -0.0547258  0.00   -0.0010553    0.0003395    0.0000459
h    -2.0900135    0.2265647   -0.1556587  0.00   -0.0020614   -0.0000504    0.0000221
h    -0.5548889    4.2128548   -0.0835966  0.00    0.0001863    0.0010677    0.0000998
h     1.7354479    3.3489464   -0.2129623  0.00    0.0011760    0.0012152    0.0001405
h     2.5457692   -1.5976096   -0.5032216  0.00   -0.0083817   -0.0053449    0.0006852
o     7.0995295    0.5804828    1.0728924  0.00   -0.0572799    0.0301759   -0.0218162
o     5.9551297    2.4623981    0.2179908  0.00   -0.0471014   -0.0096246    0.0422063
h     6.6000355    2.6248431   -0.5736545  0.00    0.0139890   -0.0021585   -0.0405278
    27
 Energy =       0.1974432632
c    -1.4319756    2.3560126   -0.0760632  0.00   -0.0114874    0.0091215    0.0006612
c    -1.2558666    0.9964222   -0.1294475  0.00   -0.0202418   -0.0083618    0.0004327
c     0.0167948    0.5161589   -0.1954082  0.00   -0.0204363   -0.0415227   -0.0001273
c    -0.3481981    3.2000527   -0.0954003  0.00   -0.0049693    0.0170214    0.0006848
c     0.9252540    2.6939683   -0.1676468  0.00    0.0036854    0.0154012    0.0001814
c     1.0908794    1.3330864   -0.2137147  0.00    0.0119474    0.0128047    0.0003274
n     0.4308735   -0.8304191   -0.2831961  0.00    0.0297455    0.0227921   -0.0006884
c     2.2260850    0.5769091   -0.2991749  0.00    0.0321405   -0.0121733   -0.0036411
c     1.8460076   -0.7232103   -0.3603318  0.00   -0.0204232   -0.0213292    0.0007653
h    -0.1536189   -1.6907286   -0.2904002  0.00    0.0063109    0.0073519   -0.0000945
c     3.6383750    1.1244021   -0.4081310  0.00    0.0041496    0.0075298    0.0036226
c     4.7469921    0.2009991    0.1677953  0.00   -0.0230286    0.0230113    0.0129409
h     3.6681164    2.0964226    0.1442679  0.00    0.0019432    0.0062808    0.0031095
h     3.8594581    1.3540257   -1.4780528  0.00   -0.0001258    0.0035951   -0.0049982
c     6.0208982    1.0063077    0.4456241  0.00    0.0816305   -0.0369424    0.0149067
n     5.0170870   -0.9189550   -0.7872440  0.00    0.0032518   -0.0082127   -0.0252805
h     4.4279724   -0.2006417    1.1603709  0.00    0.0012149   -0.0042482    0.0005797
h     6.0440187   -0.9316209   -1.0416577  0.00    0.0156536    0.0053660    0.0052285
h     4.8685298   -1.8371370   -0.2834424  0.00   -0.0025370   -0.0158392    0.0087128
h    -2.4376138    2.7679806   -0.0218509  0.00   -0.0011373    0.0003759    0.0000508
h    -2.1051933    0.3195799   -0.1227616  0.00   -0.0020001   -0.0001700    0.0000205
h    -0.4998997    4.2771251   -0.0560962  0.00    0.0001355    0.0011633    0.0000968
h     1.7753067    3.3707272   -0.1909803  0.00    0.0012735    0.0012400    0.0001189
h     2.4941438   -1.5845760   -0.4838427  0.00   -0.0074120   -0.0049418    0.0005772
o     7.0833411    0.4434517    1.0671004  0.00   -0.0500990    0.0253077   -0.0182063
o     6.0480589    2.3516895    0.1082723  0.00   -0.0465043   -0.0036099    0.0418632
h     6.7583549    2.4660900   -0.6363209  0.00    0.0173197   -0.0010113   -0.0418443
    27
 Energy =       0.1935786493
c    -1.4161843    2.4020649   -0.0682734  0.00   -0.0091920    0.0072212    0.0005210
c    -1.2541918    1.0428572   -0.1252908  0.00   -0.0160895   -0.0066976    0.0003419
c     0.0106327    0.5499586   -0.1939554  0.00   -0.0161390   -0.0328321   -0.0000739
c    -0.3242567    3.2333479   -0.0868617  0.00   -0.0039856    0.0135591    0.0005373
c     0.9420122    2.7138343   -0.1616513  0.00    0.0029462    0.0122771    0.0001379
c     1.0909052    1.3536271   -0.2111638  0.00    0.0094849    0.0101493    0.0002563
n     0.4053055   -0.8033406   -0.2869972  0.00    0.0235863    0.0179446   -0.0005619
c     2.2148265    0.5886929   -0.3000763  0.00    0.0254433   -0.0096298   -0.0028401
c     1.8235092   -0.7065089   -0.3658709  0.00   -0.0160773   -0.0170008    0.0006104
h    -0.1903557   -1.6574476   -0.2962049  0.00    0.0049074    0.0057220   -0.0000784
c     3.6348056    1.1171587   -0.4106895  0.00    0.0030336    0.0059440    0.0027562
c     4.7248892    0.1745980    0.1649542  0.00   -0.0184966    0.0178813    0.0110085
h     3.6865293    2.0896165    0.1376041  0.00    0.0016776    0.0052616    0.0025849
h     3.8598339    1.3379977   -1.4806783  0.00   -0.0000639    0.0028814   -0.0039821
c     6.0149104    0.9497483    0.4459965  0.00    0.0618272   -0.0306570    0.0087532
n     4.9663654   -0.9490426   -0.7883290  0.00   -0.0006821   -0.0053588   -0.0207846
h     4.3939389   -0.2182025    1.1571095  0.00    0.0009347   -0.0034476    0.0005217
h     5.9748046   -0.9421030   -1.1090685  0.00    0.0163060    0.0043227    0.0031702
h     4.8641605   -1.8626370   -0.2666308  0.00   -0.0025838   -0.0140969    0.0081535
h    -2.4172115    2.8244693   -0.0119792  0.00   -0.0009680    0.0003201    0.0000429
h    -2.1099962    0.3745699   -0.1196195  0.00   -0.0016270   -0.0001820    0.0000158
h    -0.4641801    4.3117909   -0.0450166  0.00    0.0000912    0.0009982    0.0000782
h     1.7996205    3.3806574   -0.1846893  0.00    0.0010676    0.0010409    0.0000905
h     2.4676559   -1.5704268   -0.4944364  0.00   -0.0057331   -0.0039190    0.0004444
o     7.0258200    0.3798676    1.1650432  0.00   -0.0354438    0.0152142   -0.0095848
o     6.1129242    2.2736632    0.0309477  0.00   -0.0491947    0.0032682    0.0413959
h     6.9171080    2.3453115   -0.6219059  0.00    0.0249702   -0.0001843   -0.0435149
    27
 Energy =       0.1927752389
c    -1.4309104    2.3508829   -0.0503246  0.00   -0.0080451    0.0062684    0.0004482
c    -1.2534285    0.9945019   -0.1070860  0.00   -0.0139939   -0.0058226    0.0002832
c     0.0153715    0.5163576   -0.1836878  0.00   -0.0139973   -0.0283640   -0.0000799
c    -0.3492652    3.1940876   -0.0773838  0.00   -0.0034364    0.0118179    0.0004658
c     0.9213558    2.6892331   -0.1607449  0.00    0.0026461    0.0106330    0.0001170
c     1.0847844    1.3317761   -0.2096053  0.00    0.0081742    0.0087807    0.0002204
n     0.4236609   -0.8339138   -0.2794426  0.00    0.0201205    0.0154361   -0.0004332
c     2.2154514    0.5818968   -0.3085425  0.00    0.0219702   -0.0084301   -0.0024090
c     1.8410172   -0.7171452   -0.3730591  0.00   -0.0137480   -0.0146515    0.0004775
h    -0.1620016   -1.6957965   -0.2827147  0.00    0.0041505    0.0047989   -0.0000629
c     3.6280716    1.1255996   -0.4390125  0.00    0.0022405    0.0050271    0.0021397
c     4.7309355    0.2161072    0.1637337  0.00   -0.0159034    0.0153699    0.0101464
h     3.6716930    2.1153483    0.0776007  0.00    0.0016002    0.0051126    0.0025800
h     3.8486981    1.3159223   -1.5157182  0.00   -0.0000970    0.0026330   -0.0039087
c     6.0028995    1.0228513    0.4355975  0.00    0.0443977   -0.0253947   -0.0007553