    27
 Energy =       0.3249955300
c    -1.4235396    2.6054793   -0.0667700  0.00   -0.0462635    0.0384645    0.0024254
c    -1.3072796    1.2134697   -0.1072300  0.00   -0.0852389   -0.0325793    0.0018435
c    -0.0178900    0.6711998   -0.1697000  0.00   -0.0890444   -0.1884855   -0.0003989
c    -0.2940599    3.4190890   -0.0891300  0.00   -0.0221589    0.0692289    0.0023313
c     0.9872197    2.8590292   -0.1560400  0.00    0.0148252    0.0656452   -0.0021720
c     1.1340797    1.4562096   -0.1970299  0.00    0.0532822    0.0503240    0.0023097
n     0.3879399   -0.6395298   -0.2140799  0.00    0.1423056    0.1105856   -0.0035917
c     2.2666594    0.5727398   -0.2659299  0.00    0.1576384   -0.0879446   -0.0062821
c     1.7555995   -0.7123598   -0.2706899  0.00   -0.0965767   -0.0962639   -0.0015143
h    -0.2400399   -1.4313496   -0.2047299  0.00    0.0369084    0.0477686   -0.0003781
c     3.7030089    1.0223397   -0.3320099  0.00   -0.0116669    0.0460943   -0.0208344
c     4.2197688    1.4064496   -1.7267995  0.00    0.0615202   -0.0475680    0.0497136
h     4.3261788    0.2093419    0.0639454  0.00   -0.0096848    0.0103703   -0.0019237
h     3.8370289    1.8640295    0.3610799  0.00   -0.0049132   -0.0109859   -0.0108338
c     3.6319390    2.7753292   -2.1168494  0.00   -0.0179544    0.3294496    0.1339754
n     3.8331589    0.4251339   -2.8019292  0.00   -0.0714253    0.0209066   -0.0957196
h     5.3112285    1.5100896   -1.7329195  0.00   -0.0163913   -0.0069405   -0.0080773
h     3.3525690   -0.3535799   -2.3395993  0.00    0.0052042    0.0388386    0.0155867
h     3.1006291    0.8621858   -3.3722390  0.00    0.0096950    0.3492543    0.0539246
h    -2.4108593    3.0588691   -0.0157800  0.00   -0.0008244    0.0002221    0.0002670
h    -2.1896094    0.5822398   -0.0890100  0.00   -0.0036052    0.0036923    0.0002238
h    -0.4052699    4.5000487   -0.0535400  0.00    0.0005697   -0.0000803    0.0009479
h     1.8590495    3.5066790   -0.1715100  0.00    0.0117652    0.0031563   -0.0081302
h     2.2327294   -1.6813195   -0.3062999  0.00   -0.0404794   -0.0112386    0.0020079
o     3.7357489    3.8032989   -1.4684596  0.00   -0.0443791   -0.2522786   -0.1409687
o     2.9666192    2.7051892   -3.3013391  0.00    0.0636341   -0.4184736    0.0102925
h     3.4515890    3.3259391   -3.9047289  0.00    0.0032581   -0.0311624    0.0249754
    27
 Energy =       0.3042070404
c    -1.3778993    2.5822354    0.0388017  0.00   -0.0411787    0.0344039    0.0021224
c    -1.2575885    1.1950479   -0.0217081  0.00   -0.0759220   -0.0292335    0.0016172
c     0.0277770    0.6583262   -0.0892230  0.00   -0.0797207   -0.1649424    0.0004849
c    -0.2524575    3.3966722    0.0279432  0.00   -0.0197222    0.0617655    0.0019615
c     1.0255361    2.8409498   -0.0490450  0.00    0.0129878    0.0586306   -0.0020120
c     1.1708422    1.4453754   -0.1139805  0.00    0.0463216    0.0452288    0.0021225
n     0.4285584   -0.6571922   -0.2008580  0.00    0.1272903    0.0959651   -0.0039367
c     2.3004778    0.5787938   -0.2288155  0.00    0.1371736   -0.0781239   -0.0041623
c     1.8032500   -0.7071385   -0.2617752  0.00   -0.0869980   -0.0833947   -0.0008235
h    -0.1953232   -1.4574585   -0.2189578  0.00    0.0325547    0.0419557   -0.0005530
c     3.7332365    1.0342122   -0.3928348  0.00   -0.0089242    0.0407857   -0.0167879
c     4.1517685    1.4298703   -1.8242850  0.00    0.0546284   -0.0417539    0.0422421
h     4.3890161    0.2185888   -0.0499835  0.00   -0.0070632    0.0082143   -0.0010997
h     3.9170734    1.8743538    0.2943806  0.00   -0.0040523   -0.0092755   -0.0083700
c     3.5373947    2.7907569   -2.1946185  0.00   -0.0158502    0.2937338    0.1179141
n     3.7310515    0.4377998   -2.8734322  0.00   -0.0638589    0.0186533   -0.0865189
h     5.2432324    1.5523184   -1.8916726  0.00   -0.0125844   -0.0058800   -0.0074055
h     3.2418064   -0.3292590   -2.3977048  0.00    0.0044930    0.0339715    0.0133186
h     2.9908968    0.8776456   -3.4380311  0.00    0.0083240    0.3135152    0.0483264
h    -2.3663903    3.0324900    0.0937342  0.00   -0.0007421    0.0002181    0.0002379
h    -2.1376952    0.5602710   -0.0229563  0.00   -0.0033443    0.0031220    0.0001753
h    -0.3655144    4.4769681    0.0797183  0.00    0.0005023    0.0000681    0.0008442
h     1.8968234    3.4881968   -0.0495444  0.00    0.0095211    0.0027790   -0.0064321
h     2.3026876   -1.6620406   -0.3739698  0.00   -0.0345704   -0.0129137    0.0013816
o     3.6346055    3.8232319   -1.5190579  0.00   -0.0387739   -0.2243439   -0.1259846
o     2.8568719    2.7371026   -3.3745746  0.00    0.0550071   -0.3770137    0.0102813
h     3.3741582    3.3181225   -3.9968668  0.00    0.0045014   -0.0261354    0.0210565
    27
 Energy =       0.2906061916
c    -1.4339807    2.5614389   -0.0528705  0.00   -0.0382838    0.0321954    0.0019970
c    -1.3036736    1.1763184   -0.0923246  0.00   -0.0706441   -0.0275687    0.0014586
c    -0.0178340    0.6488928   -0.1607671  0.00   -0.0741271   -0.1489056   -0.0000067
c    -0.3155134    3.3824243   -0.0772200  0.00   -0.0182746    0.0575915    0.0018827
c     0.9637237    2.8349777   -0.1475117  0.00    0.0119767    0.0546623   -0.0018080
c     1.1160877    1.4426754   -0.1949399  0.00    0.0422972    0.0425279    0.0020523
n     0.3923774   -0.6742491   -0.1920078  0.00    0.1189118    0.0853025   -0.0030599
c     2.2503801    0.5871973   -0.2724668  0.00    0.1239522   -0.0724255   -0.0033818
c     1.7702986   -0.7023716   -0.2783410  0.00   -0.0808605   -0.0749872   -0.0013239
h    -0.2215856   -1.4859318   -0.1650387  0.00    0.0293054    0.0374794   -0.0002943
c     3.6933873    1.0439526   -0.3382593  0.00   -0.0065680    0.0376212   -0.0131241
c     4.2082033    1.4462654   -1.7386461  0.00    0.0508689   -0.0376957    0.0382443
h     4.3280200    0.2278598    0.0467814  0.00   -0.0056112    0.0071288   -0.0004654
h     3.8294256    1.8805134    0.3679781  0.00   -0.0035325   -0.0080384   -0.0064241
c     3.6235548    2.8099023   -2.1322604  0.00   -0.0150524    0.2734243    0.1089897
n     3.8429667    0.4630721   -2.8144044  0.00   -0.0587280    0.0183318   -0.0832275
h     5.3053750    1.5619149   -1.7329195  0.00   -0.0091231   -0.0051988   -0.0068753
h     3.3809392   -0.3422675   -2.3682685  0.00    0.0032090    0.0289710    0.0124582
h     3.1084675    0.8959879   -3.3958329  0.00    0.0074110    0.2926049    0.0448613
h    -2.4253810    3.0052512    0.0021246  0.00   -0.0007182    0.0002119    0.0002234
h    -2.1781452    0.5337880   -0.0671316  0.00   -0.0034040    0.0026059    0.0001786
h    -0.4358383    4.4626519   -0.0390548  0.00    0.0004740    0.0001887    0.0007918
h     1.8289735    3.4887387   -0.1566722  0.00    0.0077883    0.0025100   -0.0052455
h     2.2925712   -1.6523361   -0.3267901  0.00   -0.0313908   -0.0142648    0.0011138
o     3.7224389    3.8502397   -1.4491955  0.00   -0.0350373   -0.2084246   -0.1177386
o     2.9644248    2.7659276   -3.3268849  0.00    0.0501573   -0.3522803    0.0100323
h     3.5145331    3.3234065   -3.9463934  0.00    0.0050038   -0.0235679    0.0186914
    27
 Energy =       0.2497258298
c    -1.4609242    2.4866835   -0.0729296  0.00   -0.0253526    0.0219242    0.0012722
c    -1.3050229    1.1130730   -0.0858796  0.00   -0.0474791   -0.0190091    0.0006097
c    -0.0247718    0.6105648   -0.1709447  0.00   -0.0488727   -0.0940832   -0.0038010
c    -0.3622820    3.3209606   -0.1262264  0.00   -0.0116993    0.0388638    0.0014441
c     0.9142160    2.7954982   -0.2056104  0.00    0.0086325    0.0365730   -0.0009647
c     1.0782832    1.4195607   -0.2408727  0.00    0.0280679    0.0299727    0.0016667
n     0.3967901   -0.7244780   -0.1101762  0.00    0.0756819    0.0522759    0.0032443
c     2.2154493    0.6105806   -0.3128104  0.00    0.0839005   -0.0470833   -0.0024598
c     1.7867100   -0.6856127   -0.2785606  0.00   -0.0507217   -0.0458264   -0.0045196
h    -0.1932487   -1.5632482   -0.0062856  0.00    0.0167711    0.0201945    0.0014985
c     3.6570328    1.0840048   -0.3432362  0.00   -0.0040960    0.0248136   -0.0082470
c     4.2026282    1.5103614   -1.7278005  0.00    0.0340411   -0.0242877    0.0263052
h     4.2966512    0.2689839    0.0445096  0.00   -0.0038147    0.0047164   -0.0002971
h     3.7715126    1.9152625    0.3788793  0.00   -0.0023752   -0.0051659   -0.0039761
c     3.6399594    2.8691398   -2.1322006  0.00   -0.0079658    0.1836311    0.0702283
n     3.8895385    0.5277906   -2.8085682  0.00   -0.0383580    0.0157818   -0.0579684
h     5.3014311    1.6361872   -1.6755433  0.00   -0.0051282   -0.0034219   -0.0045365
h     3.4711579   -0.3254108   -2.3922929  0.00    0.0006217    0.0158642    0.0097768
h     3.1495147    0.9476753   -3.4089846  0.00    0.0037705    0.2141043    0.0306343
h    -2.4590325    2.9136949   -0.0058621  0.00   -0.0007375    0.0001936    0.0001512
h    -2.1641731    0.4520024   -0.0163670  0.00   -0.0032901    0.0009392    0.0002418
h    -0.4992139    4.3998999   -0.1012494  0.00    0.0003888    0.0003661    0.0005405
h     1.7666948    3.4615772   -0.2269485  0.00    0.0048690    0.0016075   -0.0030950
h     2.3784771   -1.5970676   -0.2991887  0.00   -0.0197906   -0.0121333    0.0003527
o     3.7287425    3.9269202   -1.3907249  0.00   -0.0238556   -0.1397691   -0.0770820
o     2.9866051    2.8681448   -3.3393600  0.00    0.0153998   -0.2657671    0.0207120
h     3.6414709    3.2934918   -3.9940832  0.00    0.0213923   -0.0052751   -0.0017312
    27
 Energy =       0.2501918227
c    -1.4384106    2.4695088    0.0170115  0.00   -0.0247555    0.0210441    0.0012289
c    -1.2719440    1.0976786    0.0199282  0.00   -0.0460872   -0.0185509    0.0005792
c     0.0094704    0.6041768   -0.0865534  0.00   -0.0471597   -0.0904653   -0.0039081
c    -0.3476639    3.3109490   -0.0695051  0.00   -0.0111514    0.0377997    0.0013809
c     0.9300057    2.7942051   -0.1725049  0.00    0.0087382    0.0354061   -0.0009370
c     1.1032071    1.4203172   -0.1982738  0.00    0.0270241    0.0293501    0.0016296
n     0.4441597   -0.7266897   -0.0000408  0.00    0.0702868    0.0505562    0.0038289
c     2.2431413    0.6209018   -0.3026130  0.00    0.0800510   -0.0456143   -0.0020938
c     1.8260568   -0.6776375   -0.2424937  0.00   -0.0469017   -0.0435316   -0.0048775
h    -0.1338406   -1.5687307    0.1524675  0.00    0.0149342    0.0178733    0.0017984
c     3.6813511    1.1029986   -0.4100609  0.00   -0.0028137    0.0243129   -0.0067838
c     4.1590178    1.5260886   -1.8237547  0.00    0.0327341   -0.0228103    0.0245521
h     4.3452993    0.2936027   -0.0501308  0.00   -0.0030582    0.0042360    0.0000507
h     3.8274284    1.9390503    0.3017502  0.00   -0.0021306   -0.0047520   -0.0032424
c     3.5766053    2.8820736   -2.2125901  0.00   -0.0071656    0.1775250    0.0669760
n     3.8098872    0.5341254   -2.8860361  0.00   -0.0367385    0.0156279   -0.0572333
h     5.2596436    1.6592735   -1.8192132  0.00   -0.0038112   -0.0031518   -0.0043821
h     3.3649380   -0.2989100   -2.4545587  0.00    0.0002656    0.0141879    0.0092605
h     3.0751880    0.9613568   -3.4885261  0.00    0.0036923    0.2071337    0.0294132
h    -2.4382229    2.8897376    0.1016432  0.00   -0.0009272    0.0001671    0.0001627
h    -2.1238883    0.4307574    0.1216353  0.00   -0.0036440    0.0005580    0.0002848
h    -0.4919598    4.3891628   -0.0530054  0.00    0.0004263    0.0004333    0.0005195
h     1.7759059    3.4664798   -0.2171146  0.00    0.0047941    0.0017285   -0.0029103
h     2.4252783   -1.5833619   -0.2952341  0.00   -0.0184948   -0.0120256    0.0002573
o     3.6671566    3.9373759   -1.4626950  0.00   -0.0227571   -0.1347244   -0.0745241
o     2.9096011    2.8868919   -3.4127098  0.00    0.0002338   -0.2623517    0.0324224
h     3.6167851    3.1748583   -4.1061392  0.00    0.0344159    0.0000381   -0.0134529
    27
 Energy =       0.2444442124
c    -1.4583901    2.4928471   -0.0583032  0.00   -0.0238986    0.0200016    0.0011872
c    -1.3049336    1.1203613   -0.0715131  0.00   -0.0442494   -0.0179793    0.0006116
c    -0.0273770    0.6164766   -0.1570885  0.00   -0.0446666   -0.0854990   -0.0037013
c    -0.3583743    3.3247524   -0.1131348  0.00   -0.0105256    0.0363864    0.0012967
c     0.9161943    2.7974770   -0.1937009  0.00    0.0087357    0.0339469   -0.0009372
c     1.0756545    1.4231599   -0.2282378  0.00    0.0258218    0.0284648    0.0015390
n     0.3862286   -0.7236315   -0.1046088  0.00    0.0639341    0.0480286    0.0038494
c     2.2102315    0.6166613   -0.3027958  0.00    0.0759935   -0.0436100   -0.0019745
c     1.7831389   -0.6790184   -0.2679115  0.00   -0.0419722   -0.0406847   -0.0048514
h    -0.2087449   -1.5643642   -0.0062856  0.00    0.0126420    0.0150074    0.0019222
c     3.6560434    1.0871754   -0.3449307  0.00   -0.0018426    0.0235863   -0.0055881
c     4.1920065    1.5105381   -1.7380083  0.00    0.0312878   -0.0214104    0.0231504
h     4.2989796    0.2710753    0.0395374  0.00   -0.0024702    0.0037774    0.0003372
h     3.7790736    1.9201446    0.3757385  0.00   -0.0019580   -0.0044292   -0.0027231
c     3.6303304    2.8683635   -2.1457654  0.00   -0.0066588    0.1690898    0.0642222
n     3.8794288    0.5213679   -2.8134069  0.00   -0.0347428    0.0147985   -0.0552924
h     5.2930758    1.6389950   -1.6892814  0.00   -0.0026873   -0.0029271   -0.0041484
h     3.4380146   -0.3232572   -2.4003556  0.00    0.0001366    0.0131138    0.0086249
h     3.1584164    0.9457319   -3.4358616  0.00    0.0031424    0.1979624    0.0277347
h    -2.4561679    2.9213173    0.0090637  0.00   -0.0011072    0.0001435    0.0001713
h    -2.1656545    0.4596931   -0.0030006  0.00   -0.0039844    0.0001465    0.0003130
h    -0.4931211    4.4041205   -0.0891210  0.00    0.0004469    0.0005035    0.0004959
h     1.7708453    3.4618444   -0.2172629  0.00    0.0047908    0.0018327   -0.0028063
h     2.3828739   -1.5860869   -0.2920851  0.00   -0.0171648   -0.0116953    0.0002512
o     3.7282491    3.9329885   -1.4025324  0.00   -0.0216860   -0.1282786   -0.0711807
o     2.9927928    2.8785133   -3.3628946  0.00   -0.0010602   -0.2505872    0.0311009
h     3.7053817    3.1989943   -4.0355705  0.00    0.0337430    0.0003107   -0.0136046
    27
 Energy =       0.2371347924
c    -1.4770691    2.5047773   -0.1274942  0.00   -0.0222777    0.0183467    0.0011099
c    -1.3318344    1.1330685   -0.1592584  0.00   -0.0409860   -0.0168538    0.0006400
c    -0.0579608    0.6228783   -0.2266722  0.00   -0.0408617   -0.0780561   -0.0032099
c    -0.3714284    3.3297498   -0.1499540  0.00   -0.0095498    0.0338084    0.0011693
c     0.9002246    2.7956411   -0.2103603  0.00    0.0083834    0.0314583   -0.0009134
c     1.0495844    1.4225339   -0.2577957  0.00    0.0238395    0.0266308    0.0013875
n     0.3402887   -0.7242569   -0.2099890  0.00    0.0562887    0.0440461    0.0033851
c     2.1791190    0.6134762   -0.3069312  0.00    0.0696206   -0.0401996   -0.0018706
c     1.7475270   -0.6799658   -0.2996002  0.00   -0.0364041   -0.0367928   -0.0043720
h    -0.2656046   -1.5644414   -0.1650387  0.00    0.0101635    0.0119513    0.0018125
c     3.6287094    1.0752761   -0.2858041  0.00   -0.0009497    0.0220814   -0.0042576
c     4.2197353    1.5017754   -1.6561668  0.00    0.0289020   -0.0192965    0.0212133
h     4.2520512    0.2531864    0.1198106  0.00   -0.0019131    0.0032787    0.0005702
h     3.7282365    1.9045215    0.4438648  0.00   -0.0017411   -0.0039589   -0.0021392
c     3.6794228    2.8613745   -2.0810810  0.00   -0.0059901    0.1557787    0.0593779
n     3.9463276    0.5153940   -2.7432254  0.00   -0.0317366    0.0136206   -0.0517442
h     5.3193346    1.6269728   -1.5630502  0.00   -0.0015310   -0.0026195   -0.0037546
h     3.5138712   -0.3434503   -2.3489251  0.00   -0.0000235    0.0115534    0.0077670
h     3.2367204    0.9349419   -3.3841750  0.00    0.0025541    0.1832108    0.0252869
h    -2.4735387    2.9385210   -0.0752902  0.00   -0.0011871    0.0001009    0.0001678
h    -2.1979906    0.4763752   -0.1235772  0.00   -0.0041329   -0.0002301    0.0003127
h    -0.4998322    4.4096626   -0.1155850  0.00    0.0004658    0.0005543    0.0004568
h     1.7608905    3.4541518   -0.2103095  0.00    0.0046373    0.0018852   -0.0025948
h     2.3503433   -1.5855581   -0.2994710  0.00   -0.0154438   -0.0109237    0.0002792
o     3.7752691    3.9327868   -1.3352979  0.00   -0.0199442   -0.1181425   -0.0656071
o     3.0705335    2.8801549   -3.3141626  0.00   -0.0028506   -0.2320611    0.0293737
h     3.7812660    3.2466931   -3.9637780  0.00    0.0326680    0.0008290   -0.0138464
    27
 Energy =       0.2285721518
c    -1.4971448    2.5018341   -0.1959327  0.00   -0.0200032    0.0161408    0.0010002
c    -1.3541473    1.1324036   -0.2488614  0.00   -0.0364789   -0.0152255    0.0006667
c    -0.0829781    0.6209590   -0.2994463  0.00   -0.0360126   -0.0686138   -0.0025089
c    -0.3900679    3.3233341   -0.1834191  0.00   -0.0082432    0.0302140    0.0010022
c     0.8795571    2.7870792   -0.2244900  0.00    0.0077328    0.0280598   -0.0008709
c     1.0240000    1.4169250   -0.2895316  0.00    0.0211685    0.0239294    0.0011766
n     0.3068745   -0.7306521   -0.3176159  0.00    0.0476951    0.0388421    0.0025999
c     2.1500573    0.6106421   -0.3163693  0.00    0.0611589   -0.0355518   -0.0017764
c     1.7205195   -0.6815100   -0.3396901  0.00   -0.0305444   -0.0320825   -0.0035778
h    -0.3035057   -1.5715246   -0.3237919  0.00    0.0076858    0.0089151    0.0015237
c     3.5995472    1.0677699   -0.2308833  0.00   -0.0001149    0.0198592   -0.0027715
c     4.2450507    1.5024428   -1.5748137  0.00    0.0256548   -0.0164288    0.0188159
h     4.2048285    0.2404725    0.1931349  0.00   -0.0013839    0.0027580    0.0007460
h     3.6728178    1.8918114    0.5090810  0.00   -0.0014788   -0.0033261   -0.0014598
c     3.7262363    2.8638849   -2.0144303  0.00   -0.0050208    0.1379103    0.0522143
n     4.0159216    0.5201123   -2.6735863  0.00   -0.0277991    0.0122872   -0.0469648
h     5.3409224    1.6264293   -1.4348723  0.00   -0.0003132   -0.0022213   -0.0032085
h     3.6024588   -0.3578165   -2.2987822  0.00   -0.0002792    0.0093380    0.0067559
h     3.3123486    0.9313011   -3.3293100  0.00    0.0019635    0.1637037    0.0222447
h    -2.4935907    2.9370896   -0.1578479  0.00   -0.0011908    0.0000472    0.0001552
h    -2.2220573    0.4767506   -0.2464906  0.00   -0.0041110   -0.0005720    0.0002885
h    -0.5163360    4.4030370   -0.1354128  0.00    0.0004864    0.0006061    0.0004051
h     1.7426805    3.4425101   -0.1965232  0.00    0.0043501    0.0019078   -0.0022699
h     2.3299603   -1.5824797   -0.3190699  0.00   -0.0133758   -0.0097762    0.0003250
o     3.8039144    3.9382933   -1.2544050  0.00   -0.0176752   -0.1044855   -0.0577062
o     3.1448743    2.8948647   -3.2622044  0.00   -0.0061246   -0.2085296    0.0281686
h     3.8414541    3.3302768   -3.8837532  0.00    0.0322535    0.0022947   -0.0149738
    27
 Energy =       0.2202603406
c    -1.5206481    2.4766789   -0.2631326  0.00   -0.0176143    0.0138111    0.0008755
c    -1.3708961    1.1110846   -0.3412602  0.00   -0.0316649   -0.0135064    0.0006812
c    -0.0996599    0.6060402   -0.3760338  0.00   -0.0310770   -0.0589283   -0.0018022
c    -0.4180200    3.3006000   -0.2111263  0.00   -0.0067714    0.0264100    0.0008310
c     0.8520662    2.7696085   -0.2336076  0.00    0.0069787    0.0244949   -0.0008148
c     1.0006165    1.4041829   -0.3227963  0.00    0.0183905    0.0209218    0.0009416
n     0.2922070   -0.7464422   -0.4281731  0.00    0.0395179    0.0332965    0.0017848
c     2.1273861    0.6076775   -0.3318858  0.00    0.0522708   -0.0304966   -0.0016913
c     1.7086708   -0.6849943   -0.3909062  0.00   -0.0252989   -0.0274751   -0.0027516
h    -0.3147613   -1.5905507   -0.4825450  0.00    0.0054840    0.0061852    0.0011603
c     3.5719328    1.0674888   -0.1820629  0.00    0.0005832    0.0173325   -0.0013320
c     4.2686627    1.5199105   -1.4954457  0.00    0.0221190   -0.0131289    0.0163804
h     4.1632870    0.2364231    0.2555354  0.00   -0.0009703    0.0023254    0.0008274
h     3.6146410    1.8832776    0.5708539  0.00   -0.0012089   -0.0025639   -0.0007161
c     3.7660910    2.8830439   -1.9431953  0.00   -0.0036704    0.1180765    0.0434603
n     4.0884782    0.5455213   -2.6080051  0.00   -0.0233104    0.0113595   -0.0421870
h     5.3581601    1.6467484   -1.3082375  0.00    0.0007959   -0.0017658   -0.0026068
h     3.7111080   -0.3582761   -2.2524755  0.00   -0.0007725    0.0062217    0.0059608
h     3.3786107    0.9425940   -3.2685975  0.00    0.0013373    0.1431507    0.0191789
h    -2.5194022    2.9075181   -0.2382472  0.00   -0.0011672   -0.0000015    0.0001376
h    -2.2356389    0.4518318   -0.3737948  0.00   -0.0040383   -0.0009133    0.0002445
h    -0.5489129    4.3789005   -0.1447403  0.00    0.0005214    0.0007322    0.0003564
h     1.7121236    3.4266457   -0.1717264  0.00    0.0041107    0.0020025   -0.0018910
h     2.3291759   -1.5778398   -0.3562172  0.00   -0.0113297   -0.0085161    0.0003682
o     3.8015585    3.9533485   -1.1558105  0.00   -0.0154772   -0.0891354   -0.0483196
o     3.2091952    2.9289145   -3.2032860  0.00   -0.0103143   -0.1848703    0.0276817
h     3.8781644    3.4463043   -3.7923979  0.00    0.0325761    0.0049809   -0.0167583
    27
 Energy =       0.2145241832
c    -1.5491934    2.4183785   -0.3203578  0.00   -0.0158970    0.0120079    0.0007625
c    -1.3788260    1.0586177   -0.4298453  0.00   -0.0278531   -0.0123637    0.0006516
c    -0.1022289    0.5720611   -0.4515338  0.00   -0.0272311   -0.0511784   -0.0012832
c    -0.4598402    3.2544639   -0.2241090  0.00   -0.0054022    0.0235936    0.0007242
c     0.8155885    2.7407522   -0.2308520  0.00    0.0063953    0.0218876   -0.0007305
c     0.9831735    1.3822222   -0.3528829  0.00    0.0162978    0.0184121    0.0007411
n     0.3075355   -0.7756260   -0.5406945  0.00    0.0333579    0.0284522    0.0011662
c     2.1188287    0.6056240   -0.3528450  0.00    0.0453117   -0.0261135   -0.0015748
c     1.7235328   -0.6904851   -0.4546295  0.00   -0.0215017   -0.0241970   -0.0021789
h    -0.2856445   -1.6274211   -0.6412981  0.00    0.0036690    0.0038067    0.0007913
c     3.5527037    1.0808467   -0.1446697  0.00    0.0010219    0.0150929   -0.0002324
c     4.2886931    1.5671739   -1.4257511  0.00    0.0191577   -0.0100690    0.0143019
h     4.1400606    0.2488375    0.2972214  0.00   -0.0007495    0.0020473    0.0007918
h     3.5602543    1.8831116    0.6253868  0.00   -0.0010059   -0.0017050    0.0000536
c     3.7860457    2.9308301   -1.8680134  0.00   -0.0020985    0.0997057    0.0346343
n     4.1565599    0.6090139   -2.5568477  0.00   -0.0175932    0.0120040   -0.0386810
h     5.3699347    1.7038564   -1.1980722  0.00    0.0015272   -0.0013249   -0.0021393
h     3.8457848   -0.3296338   -2.2178582  0.00   -0.0018022    0.0008961    0.0063050
h     3.4134042    0.9815638   -3.1988471  0.00   -0.0003541    0.1270752    0.0161385
h    -2.5541363    2.8352328   -0.3063178  0.00   -0.0012275    0.0000028    0.0001211
h    -2.2332632    0.3884173   -0.4993949  0.00   -0.0041246   -0.0013616    0.0001739
h    -0.6062387    4.3292960   -0.1328909  0.00    0.0005670    0.0011175    0.0003459
h     1.6640436    3.4070398   -0.1290215  0.00    0.0042289    0.0023735   -0.0015530
h     2.3615798   -1.5706120   -0.4169363  0.00   -0.0097298   -0.0075983    0.0003939
o     3.7521701    3.9850517   -1.0418073  0.00   -0.0142254   -0.0745318   -0.0389815
o     3.2433697    2.9913331   -3.1349308  0.00   -0.0108366   -0.1635275    0.0252996
h     3.8903045    3.5562942   -3.7015189  0.00    0.0300979    0.0054955   -0.0160419
    27
 Energy =       0.2102903101
c    -1.5935866    2.3413838   -0.3556099  0.00   -0.0143737    0.0105096    0.0006942
c    -1.3932769    0.9891610   -0.4914799  0.00   -0.0245410   -0.0113752    0.0005871
c    -0.1083630    0.5296261   -0.5046065  0.00   -0.0239037   -0.0447208   -0.0009638
c    -0.5237666    3.1963459   -0.2241709  0.00   -0.0043879    0.0210997    0.0006951
c     0.7602083    2.7084532   -0.2210613  0.00    0.0059361    0.0195407   -0.0006423
c     0.9562917    1.3586183   -0.3712045  0.00    0.0144561    0.0160742    0.0005814
n     0.3293771   -0.8094641   -0.6185675  0.00    0.0284325    0.0242613    0.0007198
c     2.1058425    0.6096176   -0.3654993  0.00    0.0394661   -0.0223545   -0.0014671
c     1.7427033   -0.6919806   -0.4981999  0.00   -0.0182214   -0.0213759   -0.0018380
h    -0.2429252   -1.6724940   -0.7512920  0.00    0.0025756    0.0021921    0.0004695
c     3.5254718    1.1095958   -0.1138193  0.00    0.0013118    0.0132215    0.0002098
c     4.2968073    1.6119497   -1.3693776  0.00    0.0164333   -0.0077743    0.0146634
h     4.1132688    0.2857015    0.3434630  0.00   -0.0003402    0.0017843    0.0006785
h     3.4975973    1.9093279    0.6592600  0.00   -0.0008913   -0.0010774    0.0005366
c     3.8065234    2.9758795   -1.8287623  0.00    0.0023322    0.0823434    0.0304529
n     4.2273576    0.6508493   -2.5040485  0.00   -0.0108820    0.0089509   -0.0323747
h     5.3670076    1.7610002   -1.0982532  0.00    0.0023143   -0.0009620   -0.0016905
h     3.8798476   -0.2840031   -2.1901552  0.00   -0.0020246   -0.0005053    0.0063042
h     3.5443403    1.0316530   -3.2117951  0.00   -0.0046802    0.1129927    0.0093745
h    -2.6072048    2.7372058   -0.3476129  0.00   -0.0013592    0.0000070    0.0001498
h    -2.2321188    0.3027018   -0.5886318  0.00   -0.0040257   -0.0017180    0.0001046
h    -0.6934027    4.2659510   -0.1102768  0.00    0.0004925    0.0014967    0.0004244
h     1.5920780    3.3883475   -0.0858568  0.00    0.0044956    0.0026244   -0.0013771
h     2.4036908   -1.5551053   -0.4594032  0.00   -0.0081431   -0.0069154    0.0003140
o     3.6504023    4.0094978   -0.9696112  0.00   -0.0135569   -0.0584734   -0.0247940
o     3.3810185    3.0613737   -3.1452105  0.00   -0.0213061   -0.1520401    0.0170613
h     4.0190068    3.7150474   -3.6275344  0.00    0.0343909    0.0121939   -0.0188736
    27
 Energy =       0.2006148643
c    -1.5886084    2.3515370   -0.4833322  0.00   -0.0126736    0.0089072    0.0006084
c    -1.3914225    0.9986487   -0.6019675  0.00   -0.0216291   -0.0097748    0.0004732
c    -0.1110960    0.5330105   -0.5753942  0.00   -0.0207102   -0.0383855   -0.0008938
c    -0.5182431    3.2023133   -0.3354576  0.00   -0.0043002    0.0182197    0.0006792
c     0.7625400    2.7084929   -0.2947215  0.00    0.0054204    0.0167710   -0.0004997
c     0.9507385    1.3564393   -0.4168942  0.00    0.0119800    0.0137321    0.0003668
n     0.3209013   -0.8112800   -0.6640850  0.00    0.0233201    0.0207391    0.0001839
c     2.0912729    0.6036028   -0.3579098  0.00    0.0341408   -0.0198278   -0.0017053
c     1.7311544   -0.6966882   -0.4908343  0.00   -0.0143498   -0.0181697   -0.0015156
h    -0.2509831   -1.6730899   -0.8089903  0.00    0.0022484    0.0016965    0.0001511
c     3.4989777    1.0988330   -0.0494304  0.00    0.0017805    0.0115089    0.0007189
c     4.3042517    1.5991212   -1.2795286  0.00    0.0137589   -0.0064188    0.0123216
h     4.0709648    0.2737001    0.4264865  0.00   -0.0000523    0.0015184    0.0008375
h     3.4453279    1.8996411    0.7221614  0.00   -0.0008661   -0.0007071    0.0008516
c     3.8291419    2.9624177   -1.7473871  0.00    0.0006292    0.0631496    0.0208973
n     4.2561753    0.6404634   -2.4133866  0.00   -0.0055185    0.0106320   -0.0275043
h     5.3681359    1.7446809   -0.9814483  0.00    0.0023436   -0.0006197   -0.0011955
h     3.9814965   -0.3188381   -2.0914744  0.00   -0.0025632   -0.0048079    0.0067401
h     3.5247451    0.9882116   -3.0922920  0.00   -0.0064701    0.0998367    0.0063710
h    -2.6006162    2.7518189   -0.5063660  0.00   -0.0017733   -0.0000549    0.0000841
h    -2.2301292    0.3150127   -0.7161297  0.00   -0.0036270   -0.0017110   -0.0000658
h    -0.6862390    4.2740311   -0.2416814  0.00    0.0000385    0.0013278    0.0004808
h     1.6009480    3.3856315   -0.1615392  0.00    0.0046064    0.0024461   -0.0018753
h     2.3916585   -1.5585285   -0.4157448  0.00   -0.0062737   -0.0063109    0.0002533
o     3.7898896    4.0382014   -0.9099939  0.00   -0.0113644   -0.0420923   -0.0144553
o     3.3688890    3.0463527   -3.0530375  0.00   -0.0293486   -0.1496150    0.0231389
h     3.8943250    3.8225034   -3.5089390  0.00    0.0412533    0.0280103   -0.0254470
    27
 Energy =       0.1928037177
c    -1.5398909    2.4403114   -0.4763264  0.00   -0.0110501    0.0075510    0.0005021
c    -1.3795842    1.0828420   -0.5844788  0.00   -0.0183271   -0.0084912    0.0003303
c    -0.1148950    0.5825496   -0.5524791  0.00   -0.0170651   -0.0317027   -0.0008301
c    -0.4468832    3.2619392   -0.3348026  0.00   -0.0037133    0.0156626    0.0006327
c     0.8192117    2.7334296   -0.2909696  0.00    0.0048313    0.0143561   -0.0003529
c     0.9667019    1.3764951   -0.4011020  0.00    0.0101127    0.0112833    0.0002620
n     0.2758650   -0.7763148   -0.6292919  0.00    0.0192025    0.0165878    0.0001504
c     2.0829269    0.5949307   -0.3411898  0.00    0.0282717   -0.0164162   -0.0014895
c     1.6911849   -0.6956257   -0.4660409  0.00   -0.0114312   -0.0154692   -0.0013066
h    -0.3217871   -1.6234066   -0.7619573  0.00    0.0013824    0.0007208    0.0000187
c     3.5065154    1.0522004   -0.0597872  0.00    0.0017455    0.0095485    0.0006943
c     4.2900612    1.5315977   -1.3096137  0.00    0.0116083   -0.0049162    0.0105166
h     4.0692312    0.2123036    0.4021785  0.00    0.0002159    0.0011172    0.0007164
h     3.4901710    1.8560088    0.7113563  0.00   -0.0007456   -0.0000956    0.0011651
c     3.8292898    2.9003784   -1.7699834  0.00   -0.0021083    0.0405881    0.0116319