24
 energy: -4.198820436464 gnorm: 0.227833781403 xtb: 6.4.0 (d4b70c2)
C        -0.37501793078280    1.64720631944869    0.79487361696088
C         0.03031721338845    2.81093430866966    0.15704376299413
C         1.00811385061755    2.77181329259988   -0.82624368074725
C         0.20694180936898    0.42934916331787    0.43109716913915
C         1.20477867250000    0.36107833640000   -0.56088623010000
C         1.59881779311262    1.55413535598635   -1.17801889972152
O        -0.50698405910005    4.02301780667781    0.47102617785173
H         0.20916880072544    4.61596264970496    0.75182898680754
H         2.37072373795897    1.58187285954512   -1.93648019075476
H        -0.12064934235402   -0.47796632978407    0.93739455414968
H        -1.13504455675908    1.66321408978542    1.56946735398846
H         1.31639397636571    3.69070226729081   -1.31768607614051
C         1.76693781090000   -1.00734158430000   -0.89647263510000
C         0.88611368860000   -2.01942717790000   -1.65564529290000
H         2.12129426150000   -1.46589347050000    0.03714050690000
H         2.66457368570000   -0.82853140130000   -1.50587978960000
C        -0.25507066839690   -2.49934081062408   -0.73138986996588
O        -0.85878937920802   -3.55625293555004   -0.82470881375795
O        -0.54571697108092   -1.55823700768495    0.20759504537234
H         0.15268656922513   -0.86309485518544    0.10417197866957
N         0.24106167948034   -1.49156713134165   -2.90174778898299
H         1.46421695155770   -2.91223073159061   -1.92065314680380
H        -0.75138898942574   -1.75285050784769   -2.87972267313931
H         0.23279047303833   -0.47007054788766   -2.85689931659057
24
 energy: -4.238571144096 gnorm: 0.140953675753 xtb: 6.4.0 (d4b70c2)
C        -0.37829247354824    1.66750013941893    0.79696423054598
C         0.01970864297009    2.81651838183035    0.15463968435565
C         1.01442355754524    2.76696341894391   -0.83624015211733
C         0.21692390877785    0.41920268908130    0.43637401569521
C         1.23839574577944    0.37758027709364   -0.57446707193081
C         1.60443245047539    1.55024095545513   -1.19246359457854
O        -0.52090284080072    4.04248023207998    0.48556899418130
H         0.20420426078160    4.65370994034330    0.74095401301827
H         2.37448762988100    1.57180502538824   -1.94445506698560
H        -0.05815954006252   -0.45128892009478    1.05318216127063
H        -1.13567848337548    1.69022076182433    1.56508143267495
H         1.31786433220033    3.68077887310562   -1.32319845883796
C         1.79506779207081   -0.99501793298357   -0.91481026731561
C         0.86972690874764   -2.01290004883999   -1.63956869326360
H         2.14452206483036   -1.45540162505512    0.01905005874405
H         2.68562960537039   -0.83485307556667   -1.52690686646537
C        -0.27497051011382   -2.53451393647982   -0.74659201449116
O        -0.84437442507017   -3.59427125019786   -0.89664953444553
O        -0.65830803799977   -1.62544157354799    0.18575096847430
H         0.10747265288303   -0.87436915523068    0.16640682837606
N         0.24842989548444   -1.48386882127995   -2.88272552327915
H         1.45557206581446   -2.90132003769466   -1.92176801555991
H        -0.73325323959322   -1.75741788745956   -2.89060045981968
H         0.23334711388357   -0.46985447220368   -2.84432191971720
24
 energy: -4.262363982879 gnorm: 0.089574343413 xtb: 6.4.0 (d4b70c2)
C        -0.40498296005620    1.65145336409660    0.77611021759127
C         0.00259058115517    2.79901081599827    0.15374615266244
C         1.01866794457663    2.74720666675919   -0.84416091786773
C         0.21104866714413    0.35708970960853    0.40615750356526
C         1.28292320659419    0.38206875817947   -0.60241261828046
C         1.61143359641190    1.53682230999689   -1.21413165335847
O        -0.53961529301782    4.04146886755122    0.51692691462662
H         0.19415031797946    4.67999421361980    0.72511595689932
H         2.38721377152366    1.55617116070835   -1.95242751891815
H         0.00098632806625   -0.49697453825120    1.13416049596624
H        -1.14744001223066    1.68699420621920    1.54900819614884
H         1.31968443697615    3.66293750170782   -1.31430348338384
C         1.83832554571017   -0.98297206371096   -0.94477841283772
C         0.85025365959952   -1.99340278585537   -1.61825681765257
H         2.17595865367926   -1.44491749665559   -0.00848287053101
H         2.72209436762874   -0.84798055983412   -1.55906238991983
C        -0.29448318271849   -2.49911451672258   -0.73327474288539
O        -0.83125127591866   -3.56527437759772   -0.91868676306306
O        -0.74510929731281   -1.60404224730077    0.18465224651305
H         0.05856287984988   -0.83394386430096    0.24073072390666
N         0.25954492895172   -1.47009299498633   -2.85830658823265
H         1.42777261925433   -2.89094996420911   -1.91134273488633
H        -0.70899853897211   -1.76142175061772   -2.90519366498706
H         0.23693813205731   -0.46364845647256   -2.83258248254646
24
 energy: -4.273701721649 gnorm: 0.076186861248 xtb: 6.4.0 (d4b70c2)
C        -0.41939464742592    1.64713561050999    0.75696641679612
C        -0.00121137639927    2.79668875045477    0.14964549985399
C         1.02162317724665    2.74387371089519   -0.84904854865393
C         0.21303973524200    0.33324592010093    0.38722257511581
C         1.31119236279699    0.38333951510071   -0.61578896952013
C         1.62550226247926    1.53953530859801   -1.22533225055714
O        -0.54690513161136    4.04010580658048    0.52889098232807
H         0.18042167733995    4.69764687122945    0.69716639931889
H         2.40315016508035    1.55571570214113   -1.96403032031853
H         0.05239421660174   -0.52584488777756    1.18779525972689
H        -1.16058736355386    1.69062370092153    1.53006226716778
H         1.32089554902229    3.66412298816300   -1.31022014134016
C         1.85922137922149   -0.97928759778764   -0.95682857500303
C         0.83442491849431   -1.97657259738394   -1.60170031917934
H         2.20776079071681   -1.43959102293320   -0.02571794321204
H         2.73665610349732   -0.86092807322126   -1.58916585465184
C        -0.32097745830020   -2.47956342476889   -0.72830483288971
O        -0.82720689360756   -3.55818179396009   -0.95507675019011
O        -0.79041718675274   -1.62652883610591    0.21612423595697
H         0.01062429554922   -0.86704837744470    0.32452197020888
N         0.27292459186414   -1.44475716602943   -2.84214482045447
H         1.40095986651514   -2.87876917743103   -1.90264118678331
H        -0.68470393706168   -1.76958244063251   -2.93804240110298
H         0.22688197997666   -0.43889653128867   -2.80514794408769
24
 energy: -4.283396505595 gnorm: 0.067288115069 xtb: 6.4.0 (d4b70c2)
C        -0.44478361665416    1.63675316147301    0.71916161692124
C         0.00166056693737    2.79395714917417    0.14657199434354
C         1.02448937452357    2.73805037198673   -0.85306369295716
C         0.20952065678430    0.30865460515630    0.35244572693062
C         1.33515599387894    0.37680907219189   -0.63106866992329
C         1.64037047035969    1.54127400521857   -1.24051485893014
O        -0.54307120453873    4.03172146474351    0.55177945249039
H         0.16929202117042    4.71372855076371    0.65587393094143
H         2.41638671779638    1.54948453593625   -1.98599623030747
H         0.09014150348298   -0.56085287929823    1.21900228125944
H        -1.17985589125137    1.69144751858877    1.49915508258787
H         1.32472574868781    3.66535807449874   -1.30270829808678
C         1.88008758162755   -0.97835307418453   -0.96732685507922
C         0.82370392884068   -1.95111134201095   -1.58672566926948
H         2.25310795124324   -1.43558981270918   -0.04655869310952
H         2.74650579556035   -0.87322857181485   -1.62791942094418
C        -0.34168367889803   -2.44015822895915   -0.72100669380971
O        -0.81281998015789   -3.52672941223874   -1.02052665596826
O        -0.83469007653447   -1.65114695279734    0.26981777558206
H        -0.03706320385900   -0.91333943709515    0.50117822054158
N         0.28731392834812   -1.40991812403065   -2.82365915435597
H         1.36890143555920   -2.86345037421019   -1.89263159063352
H        -0.64769755041127   -1.79316939651831   -2.98015115385842
H         0.19657060443604   -0.40370894593403   -2.76592369583604
24
 energy: -4.287069784010 gnorm: 0.060906954275 xtb: 6.4.0 (d4b70c2)
C        -0.43677000387342    1.62386957070964    0.71958421999786
C         0.00000736371349    2.78350627613687    0.14197300810293
C         1.02167002738851    2.73040374699672   -0.84833595106538
C         0.21968048628888    0.30718767388171    0.36061766046152
C         1.32583400000515    0.36313070891827   -0.62459195218843
C         1.64710300042496    1.53687548204513   -1.22554543921272
O        -0.55137463739182    4.01065215481414    0.54333162023118
H         0.14973668612137    4.70718521395597    0.61281201515603
H         2.41750122723939    1.54231013272208   -1.97918539114842
H         0.15868780657830   -0.55174679007439    1.28927599916382
H        -1.18747740188129    1.67602385188127    1.48588417297394
H         1.31808168731259    3.65800152163479   -1.30382867318856
C         1.87444437205443   -0.98646790086542   -0.96489943059582
C         0.82360293875285   -1.94432132380297   -1.59361677957602
H         2.26436530924696   -1.44484646275603   -0.05082652911649
H         2.73395024914645   -0.87376979353444   -1.63593923051883
C        -0.35529499740489   -2.41048872425545   -0.72981954265039
O        -0.82641868665695   -3.48968528009921   -1.03706506603564
O        -0.83161838559446   -1.63378896732780    0.27580878640164
H        -0.04898456097877   -0.91038001197932    0.51820855409919
N         0.29713247007776   -1.39346150734420   -2.83269145182241
H         1.35430976546869   -2.86668430183920   -1.88844600142938
H        -0.62438181669630   -1.79912349474620   -3.01092525019156
H         0.18248217758985   -0.38789981714162   -2.75257459931906
24
 energy: -4.290696501064 gnorm: 0.033902422687 xtb: 6.4.0 (d4b70c2)
C        -0.43397057843738    1.60791209230867    0.72174364340270
C         0.00106935486442    2.77007418542483    0.14283704287696
C         1.02125054927616    2.71775806346059   -0.84101208377167
C         0.22761127442840    0.30451214411606    0.37882399734902
C         1.31838943424639    0.34803244063539   -0.60974574667860
C         1.65090217002596    1.52514474331731   -1.20762643547826
O        -0.55588218860646    3.98879864055454    0.53612847156331
H         0.13543682251423    4.70197652086788    0.56158637538394
H         2.41379698071113    1.52713137360527   -1.96953115766376
H         0.17406075977599   -0.54445767675452    1.31307557106266
H        -1.20063434643938    1.65850198752030    1.47277407145345
H         1.31426445448690    3.64292725678891   -1.30529517932239
C         1.87531754234255   -0.99307200054420   -0.96392058217151
C         0.82974706749706   -1.93606073005819   -1.60321947090344
H         2.28501456155773   -1.45690737787321   -0.06013169329029
H         2.72366965542227   -0.86657872180956   -1.64704491655455
C        -0.35359190971356   -2.37975451499248   -0.73583611601911
O        -0.84131904526592   -3.44292037634484   -1.05430024158387
O        -0.81669083598586   -1.60642904743690    0.27662855361696
H        -0.03581065181990   -0.89367073466608    0.55379605746306
N         0.29845864934625   -1.37781762257688   -2.83850121469989
H         1.34514427386326   -2.86819709163520   -1.89140274107366
H        -0.60738292320991   -1.80426203049930   -3.02434296973595
H         0.15741800605142   -0.37615956547805   -2.73627848669607
24
 energy: -4.293378666094 gnorm: 0.027681731347 xtb: 6.4.0 (d4b70c2)
C        -0.43383062901727    1.58574867007626    0.71704964166410
C         0.00104177757829    2.75189101517661    0.14232030123926
C         1.02826101935950    2.70072356133791   -0.82785190976656
C         0.24254555318892    0.30376858711786    0.40081909617042
C         1.31421497172836    0.32810787235360   -0.59319412340167
C         1.66057134960655    1.50716821485204   -1.18380602769676
O        -0.56403546179544    3.95815154755245    0.52915388057392
H         0.10369193400238    4.69135684048775    0.48451421913437
H         2.41278716845926    1.50431959043007   -1.95514142683366
H         0.21339006375623   -0.52554492302520    1.36556423914353
H        -1.22309253225770    1.63242515276063    1.44580140449455
H         1.31638460199146    3.62138914412598   -1.30444588980862
C         1.87903002073958   -0.99990664843413   -0.96875400953557
C         0.83385433688315   -1.92056389951040   -1.61521126196810
H         2.31465836419859   -1.47248332471692   -0.08087514371839
H         2.70952065141811   -0.85629417039150   -1.66999522655178
C        -0.35436893615151   -2.33384256544449   -0.74099425386243
O        -0.86893980945223   -3.37359666124435   -1.09282589816432
O        -0.80185737204260   -1.57402172361809    0.28913506802184
H        -0.02257272290000   -0.87929073213104    0.64258458810539
N         0.30389359255600   -1.35094844675828   -2.84679110648237
H         1.32832058875273   -2.86562947278762   -1.89653014095428
H        -0.57133021400159   -1.82545569666314   -3.06548080493029
H         0.10413076033098   -0.36098997361565   -2.70584046634354
24
 energy: -4.294496825274 gnorm: 0.022128701563 xtb: 6.4.0 (d4b70c2)
C        -0.43059987997044    1.57187473173519    0.72023550239274
C        -0.00277614383606    2.74018785214072    0.14342998996050
C         1.03739989210981    2.69424370435530   -0.81459663901358
C         0.26124594813818    0.30526777875322    0.42219624480111
C         1.31973759370214    0.32090302517445   -0.58234152532712
C         1.67113392040407    1.49969887299725   -1.16520397364179
O        -0.58013574433623    3.94042318442877    0.51959006719581
H         0.06916682338214    4.68299058353242    0.44053093965863
H         2.42000306865833    1.49917033977261   -1.93763953571985
H         0.24491388039622   -0.50900886128329    1.38683550148634
H        -1.23699130024296    1.61032210415446    1.43121166150077
H         1.32101844429191    3.61168982771503   -1.29875494291531
C         1.88220505487743   -1.00287088583643   -0.97644026266245
C         0.83092647829247   -1.91682692673889   -1.62149982133643
H         2.32555713063137   -1.48323171262174   -0.09697014044008
H         2.70397244721395   -0.85167979502282   -1.68423641234855
C        -0.36010774678766   -2.31195603510298   -0.74113198431769
O        -0.90119725261920   -3.33578828870708   -1.09760288142466
O        -0.78433796823893   -1.54976766937938    0.29596550513397
H        -0.00889187281049   -0.86359791919966    0.66128153063011
N         0.30222892674665   -1.34507447877288   -2.85326872922500
H         1.31591021114365   -2.86802462345179   -1.89940134587702
H        -0.55795170389167   -1.82546536622995   -3.07988953070655
H         0.08383886967707   -0.36699748448223   -2.70309446927484
24
 energy: -4.295738093236 gnorm: 0.026081827656 xtb: 6.4.0 (d4b70c2)
C        -0.42770690443647    1.55372737469318    0.72306060390469
C        -0.00803395794374    2.72510438444447    0.14682916163974
C         1.05436434908446    2.68830453727287   -0.79357031816148
C         0.29638910125996    0.30465846985287    0.45387836021621
C         1.33953197522054    0.31386823663058   -0.56966826182094
C         1.69049292861486    1.49334308500282   -1.14267727342968
O        -0.60730495714727    3.91792347655041    0.50891567131349
H         0.01341716804090    4.68058235603930    0.36182241454958
H         2.43649520386694    1.49837336591220   -1.91604980998903
H         0.30450143496614   -0.48825549034926    1.42547648507703
H        -1.25465637276627    1.57984056601172    1.41091378277376
H         1.33210477566996    3.60306307156686   -1.28406620033924
C         1.88975702067810   -1.00627135705665   -0.98793254576352
C         0.82161718276535   -1.90819106083582   -1.62609582738225
H         2.33784158797133   -1.49998749180403   -0.11974352924503
H         2.70108622986788   -0.85111345250210   -1.70415132145160
C        -0.37571591449930   -2.28146991721178   -0.74315066020082
O        -0.95615182045337   -3.28096126717775   -1.11645886784905
O        -0.76601589209343   -1.52556406311751    0.31466884573216
H         0.00640529617946   -0.85048334077900    0.70343798669285
N         0.30644301590246   -1.32890221824562   -2.85972235997808
H         1.29566265872315   -2.86510347923653   -1.90395467925777
H        -0.52511383075370   -1.85753710449532   -3.13595042264655
H         0.02085879821383   -0.36846672323557   -2.67660648585540
24
 energy: -4.296783100899 gnorm: 0.019360628765 xtb: 6.4.0 (d4b70c2)
C        -0.43206287050368    1.53961498082181    0.71621674531854
C        -0.01574417064245    2.71364797040288    0.14549378340228
C         1.07685331805091    2.68882458238493   -0.77156850317450
C         0.33859752679365    0.30508830876404    0.48452535479164
C         1.37043500136109    0.31204669279821   -0.56284426460310
C         1.71304243583423    1.49365246137573   -1.12791170856044
O        -0.64115024055096    3.90160485218158    0.48940444000837
H        -0.05935545614934    4.66785548725811    0.30710718586464
H         2.46130313750431    1.50887343316195   -1.89839104467816
H         0.36202575913130   -0.46831260077307    1.45090235983846
H        -1.27492865185251    1.55148511552622    1.38361729910733
H         1.35248300290254    3.60349641571611   -1.26070499850975
C         1.89893833467575   -1.00973271485250   -1.00383171055288
C         0.80713353974309   -1.90444074296521   -1.62699614740901
H         2.34619757067111   -1.51756196390849   -0.14512390792255
H         2.70217767482495   -0.85669020518194   -1.72747633532173
C        -0.39191444285323   -2.26224770398923   -0.74179562480746
O        -1.01477932595797   -3.23548116005672   -1.12886729872571
O        -0.74692658109312   -1.51436933590320    0.33920653803111
H         0.02441984403905   -0.84569351050015    0.74069719545283
N         0.29893748410050   -1.32327286616638   -2.85902149847616
H         1.27235652187003   -2.86426227689970   -1.90934462806939
H        -0.50826186238097   -1.85233037977135   -3.15127045205541
H        -0.01350847258649   -0.38531288149334   -2.67281803041986
24
 energy: -4.297289952633 gnorm: 0.020908111604 xtb: 6.4.0 (d4b70c2)
C        -0.43235336862128    1.53109085860267    0.71533565429032
C        -0.01523503916693    2.70703944787516    0.15005954760665
C         1.08660475396885    2.69008200852330   -0.75654512306601
C         0.36249629120929    0.30310452967045    0.50339337940493
C         1.38650232317567    0.31103931828281   -0.55751784404957
C         1.72458140835313    1.49715505917872   -1.11940067054391
O        -0.65668484663420    3.89081976312491    0.48285685314177
H        -0.09142931508920    4.67248292625455    0.24834598944023
H         2.47468110455612    1.51863968763478   -1.88971854966078
H         0.38496530757221   -0.46637793884816    1.45601714142530
H        -1.28268017767132    1.53545519044606    1.37246349065021
H         1.36518528044686    3.60798619116654   -1.23836802046881
C         1.90018739793656   -1.01305352553653   -1.00750438537552
C         0.80031914260206   -1.90015628954412   -1.62809161897993
H         2.34624137872175   -1.53026994912881   -0.15335457234562
H         2.70161010894254   -0.86297351890779   -1.73477031769056
C        -0.39739762830678   -2.25353649858484   -0.74325117518503
O        -1.03842451559980   -3.21157038609580   -1.13334764826879
O        -0.73595228936692   -1.51253304474763    0.34921467993058
H         0.03527630699641   -0.84492216952108    0.75194445051202
N         0.29550259679192   -1.31299609662627   -2.85719054470462
H         1.26193719339347   -2.85995633198435   -1.91466266394823
H        -0.49403522705999   -1.86452018579094   -3.17290359316747
H        -0.05562911021864   -0.38554708751334   -2.65379971041808
24
 energy: -4.297486044172 gnorm: 0.026052414517 xtb: 6.4.0 (d4b70c2)
C        -0.43560727611191    1.52907113031795    0.70510649042459
C        -0.01178247656975    2.70575912867269    0.14642585400193
C         1.09378186783551    2.69329538512717   -0.74976910454881
C         0.37593933785332    0.30280769994710    0.51028941206120
C         1.39613768878813    0.31291045458379   -0.55697359926810
C         1.73139406746910    1.50319262662463   -1.12054355368418
O        -0.66068406379088    3.88787623592820    0.46859477605939
H        -0.11054103489420    4.66055239622780    0.23459644891269
H         2.48564486418435    1.52782949738325   -1.88929278200002
H         0.39130320873587   -0.47305122283488    1.44931645312143
H        -1.28725261133657    1.53062201413147    1.35861495236918
H         1.38215514411319    3.61659473158456   -1.21765070465078
C         1.89751665270974   -1.01501170236833   -1.00483126449547
C         0.79649749718345   -1.89506197748598   -1.62672011988886
H         2.34219681370005   -1.53733442767710   -0.15187709334984
H         2.70053161455664   -0.87024419743946   -1.73428560181587
C        -0.39510015648283   -2.25250877418440   -0.74145724426777
O        -1.04037686854387   -3.20181604486128   -1.12730753770544
O        -0.72776156128802   -1.51928616102381    0.35629768784708
H         0.04356440185056   -0.84657048863150    0.74805046601742
N         0.28861944530441   -1.30108189383633   -2.85036649105405
H         1.25739286074828   -2.85299051905993   -1.91911306010703
H        -0.48770626750380   -1.87876787909586   -3.18780530370317
H        -0.09959407157897   -0.38030405409947   -2.63009433174641
24
 energy: -4.298028387519 gnorm: 0.019355081685 xtb: 6.4.0 (d4b70c2)
C        -0.43474909869043    1.52351610418228    0.70049923799280
C        -0.00979706878935    2.70095179761978    0.14517856492276
C         1.09091112746821    2.69177048888297   -0.74715844729002
C         0.38577958176148    0.29853352903592    0.51498490636355
C         1.40108045794222    0.31175109807933   -0.55582746278839
C         1.73242312157365    1.50608421468468   -1.12328367719776
O        -0.66596187429692    3.87910393322532    0.46054601711435
H        -0.12315925987068    4.65872719164290    0.19388539071707
H         2.48778595301801    1.53177134643227   -1.89283661637187
H         0.40095933623053   -0.48991566345914    1.45382054539249
H        -1.28808218527511    1.52313775150773    1.35141448075434
H         1.38694130176063    3.62119670103135   -1.20146376686566
C         1.89526884290434   -1.01869179349806   -0.99921246818282
C         0.79405275522534   -1.88837849715358   -1.62607605832466
H         2.34071872405660   -1.54400890338676   -0.14703581893194
H         2.70003331634272   -0.87817378877585   -1.73067912537294
C        -0.39425661076449   -2.24857587609143   -0.74172616291290
O        -1.04023189170605   -3.19161566536812   -1.13267664126541
O        -0.72452963016523   -1.53088857386241    0.36565603683901
H         0.04871742142450   -0.85311024460525    0.75391041515252
N         0.28076786223572   -1.28741245145613   -2.84348513832139
H         1.24938335604607   -2.84841907422063   -1.92277447890092
H        -0.49249487552792   -1.84826685902838   -3.17524602855960
H        -0.09529158597202   -0.37260480748850   -2.63120895543352
24
 energy: -4.298373050141 gnorm: 0.014869862906 xtb: 6.4.0 (d4b70c2)
C        -0.43001795092994    1.51428613683400    0.69955386197803
C        -0.01209913483715    2.69237584641628    0.14037266592295
C         1.09401396858740    2.68553756587930   -0.74432021695037
C         0.40160816840639    0.29711699813310    0.52809453022031
C         1.40821786915506    0.30821161673849   -0.54896958939752
C         1.73855995473475    1.50099484399702   -1.11797650959468
O        -0.67885125019829    3.86618342560084    0.44434027394460
H        -0.15096997829642    4.64913680466890    0.15228794153693
H         2.49192192424719    1.52577542236211   -1.88797566631830
H         0.42294783446225   -0.49660512226594    1.46997743050491
H        -1.29198050490300    1.50981210273389    1.34165363144511
H         1.39160548097366    3.61540333437192   -1.19574143524368
C         1.89915965646852   -1.02157580124249   -0.99707363667740
C         0.79203192923775   -1.87918640253037   -1.62806457744238
H         2.34479130974257   -1.55147614917394   -0.14812066803797
H         2.70224070424749   -0.88083431908857   -1.72916279474343
C        -0.39755332278537   -2.23485593605644   -0.74204325999321
O        -1.06292645077412   -3.16620889090277   -1.14839938815706
O        -0.71266925411223   -1.53025596898265    0.37988411510730
H         0.06143717544504   -0.85165518559152    0.76900564228581
N         0.27605628477395   -1.26745822231335   -2.83959591932255
H         1.23892982372406   -2.84247741340230   -1.93040803693112
H        -0.48678308442063   -1.83434522695230   -3.18196358002976
H        -0.11340207601713   -0.36141750130291   -2.61615006557739
24
 energy: -4.298852366613 gnorm: 0.014243233567 xtb: 6.4.0 (d4b70c2)
C        -0.41908267228618    1.50141394953148    0.69916706852693
C        -0.01571382067487    2.68040427849239    0.13076135899403
C         1.09844762577346    2.67671942778690   -0.74327837914191
C         0.42358125415857    0.29685754989412    0.54493630195211
C         1.41748583685285    0.30579387217965   -0.53955186078571
C         1.74732127586951    1.49356783819557   -1.11292336107753
O        -0.69919099011107    3.84789030914081    0.41481093224455
H        -0.19398217442051    4.62883675488642    0.09181034170204
H         2.49875962643167    1.51501229007006   -1.88192679022547
H         0.44331842671850   -0.51790744776518    1.48114291469032
H        -1.28902355128780    1.49026956549927    1.33143420808585
H         1.40201266494898    3.60814339104040   -1.18543765329222
C         1.90326420315640   -1.02510575148644   -0.99199736310389
C         0.78721822810646   -1.86498713142520   -1.62969878167481
H         2.34326160187134   -1.56042885612591   -0.14492403631562
H         2.70808520106493   -0.88701534841050   -1.71975266498758
C        -0.39967508312990   -2.21982908392069   -0.73654723910040
O        -1.08843562641276   -3.13363676363495   -1.15747870460844
O        -0.69370344887802   -1.53672272886460    0.40250751402432
H         0.08292877493958   -0.85148111556850    0.77318514136570
N         0.26646699100536   -1.23105533944271   -2.83040818790894
H         1.22362684378116   -2.82944751903273   -1.94533480229762
H        -0.48408357568933   -1.80163758499839   -3.19274975425119
H        -0.13661853485652   -0.33917259811099   -2.58854145428536
24
 energy: -4.299148701807 gnorm: 0.013388577529 xtb: 6.4.0 (d4b70c2)
C        -0.40914624386687    1.48786509005562    0.69861771891114
C        -0.01871350234649    2.66833738758857    0.12313534630190
C         1.10729129088373    2.67004009426328   -0.73845972417913
C         0.45070191150796    0.29651248372913    0.56508281520195
C         1.43236098835751    0.30292048773462   -0.52894386301721
C         1.76163988747581    1.48840497899213   -1.10492931939283
O        -0.72348903816876    3.82816775200923    0.38536208220387
H        -0.24619498273638    4.61036475229630    0.02015416546835
H         2.51238612198164    1.50819754596679   -1.87414336927371
H         0.46608916499900   -0.53800425627654    1.49229040237621
H        -1.28698025155807    1.46862669826393    1.31969147156689
H         1.41613501522236    3.60370450306992   -1.17149901685977
C         1.90751692055641   -1.02956083986370   -0.99024676525595
C         0.77964173988380   -1.85147715349513   -1.63131989096566
H         2.34166064447979   -1.57413185882279   -0.14608646036412
H         2.71414764824499   -0.89532906112951   -1.71612960141463
C        -0.40452545284127   -2.20354831776284   -0.73220693364728
O        -1.11178351709380   -3.09697997005776   -1.16340289025041
O        -0.67866378462691   -1.54243182381256    0.42263750469070
H         0.10239685503395   -0.85341066621224    0.77984267714614
N         0.25690190519667   -1.19412427838918   -2.81975251079432
H         1.20572461595940   -2.81530246333866   -1.96175185520696
H        -0.47604603133794   -1.77464427285534   -3.20833275872547
H        -0.17278282827470   -0.31771485402302   -2.55040447599050
24
 energy: -4.299358719726 gnorm: 0.009794046361 xtb: 6.4.0 (d4b70c2)
C        -0.39871039599763    1.48150105268169    0.70366005541219
C        -0.02118552283628    2.66141690228752    0.11706403918398
C         1.11077507341518    2.66530455558424   -0.74101934457643
C         0.46722079883864    0.29800206935208    0.57996578504431
C         1.44258702043736    0.30094226173836   -0.51896761071386
C         1.76996162277733    1.48354138925346   -1.10084075584012
O        -0.74020968031198    3.81629483048439    0.36292153386967
H        -0.28039587582054    4.59336329579908   -0.01808963703599
H         2.51882510101472    1.50067429856594   -1.87254194661257
H         0.46712630340607   -0.55522073619991    1.49356052656872
H        -1.27729525182035    1.45833085467002    1.32121905023924
H         1.41890318745137    3.59871587325894   -1.17351161299080
C         1.91107616324600   -1.03233141163019   -0.98773690441356
C         0.77487503125592   -1.84347002652792   -1.63086790615738
H         2.33836482123599   -1.58378969560260   -0.14436575187498
H         2.72083791767044   -0.90066661938775   -1.71082240980622
C        -0.40857520056083   -2.19503487560292   -0.72932684879522
O        -1.12365349717356   -3.07561398426338   -1.16496855811168
O        -0.67122442865780   -1.54749498727288    0.43199998885774
H         0.11695581983802   -0.85732302903139    0.77479026253353