    13
 Energy =       0.1091873076
c    -3.7133889    1.6950595    0.3173519  0.00   -0.0452952   -0.0133010    0.0041158
c    -2.4962693    2.6345192    0.2419999  0.00    0.0709513    0.3761230    0.0925201
c    -4.9565486    2.3924193   -0.2155699  0.00    0.0138936    0.0027935    0.0138975
h    -4.7854386    2.7464192   -1.2386596  0.00   -0.0044489   -0.0039248    0.0165930
h    -5.2149185    3.2645991    0.3947669  0.00    0.0018502   -0.0133479   -0.0131787
h    -5.8205083    1.7195795   -0.2420919  0.00    0.0118552    0.0111299   -0.0055772
n    -3.4097890    0.4519539   -0.4549189  0.00    0.0527197   -0.0520799   -0.0083856
h    -3.8575589    1.4177196    1.3669296  0.00    0.0043396   -0.0128298   -0.0261975
h    -3.2072391   -0.2948399    0.2179739  0.00   -0.0190099    0.0284338   -0.0186253
h    -4.2689788    0.1396900   -0.9176007  0.00    0.0223468    0.0215192    0.0241279
o    -2.4571893    3.7760389    0.6681628  0.00   -0.0096092   -0.2805581   -0.0974850
o    -1.4389296    2.0221094   -0.3549299  0.00   -0.0702442   -0.0461422    0.0006884
h    -1.1721897    2.6250993   -1.0934297  0.00   -0.0293489   -0.0178157    0.0175064
    13
 Energy =       0.0957478381
c    -3.7186807    1.6935640    0.3333253  0.00   -0.0351320   -0.0099902    0.0045045
c    -2.4771224    2.5942134    0.2652936  0.00    0.0551060    0.2935338    0.0718331
c    -4.9303856    2.4197674   -0.2512010  0.00    0.0135583    0.0017805    0.0143039
h    -4.6768351    2.8610885   -1.2343524  0.00   -0.0010404   -0.0002703    0.0062620
h    -5.2462161    3.2404083    0.4148617  0.00    0.0010456   -0.0077688   -0.0066423
h    -5.7924241    1.7429738   -0.4008450  0.00    0.0036434    0.0040175   -0.0057358
n    -3.4374539    0.4298773   -0.4055266  0.00    0.0430725   -0.0403257   -0.0072683
h    -3.9009443    1.4518944    1.3911159  0.00    0.0028711   -0.0103435   -0.0193531
h    -3.2603563   -0.3122179    0.2879063  0.00   -0.0148041    0.0214729   -0.0137922
h    -4.2883920    0.1230231   -0.8971672  0.00    0.0167104    0.0167991    0.0183197
o    -2.4272067    3.7708345    0.7028209  0.00   -0.0071849   -0.2184943   -0.0763266
o    -1.4162116    2.0023986   -0.3581884  0.00   -0.0561658   -0.0420500    0.0077193
h    -1.2267178    2.5725414   -1.1580585  0.00   -0.0216799   -0.0083610    0.0061757
    13
 Energy =       0.0895781237
c    -3.7118983    1.6933463    0.3333158  0.00   -0.0305760   -0.0084373    0.0041558
c    -2.4707715    2.5899722    0.2648732  0.00    0.0476167    0.2558127    0.0620803
c    -4.9271218    2.4232230   -0.2382034  0.00    0.0184653   -0.0024148    0.0157845
h    -4.7196454    2.7382918   -1.2900986  0.00    0.0023333    0.0018338   -0.0046283
h    -5.1477227    3.3375200    0.3602339  0.00    0.0001400    0.0018085    0.0005032
h    -5.8320664    1.7687361   -0.2420919  0.00   -0.0052855   -0.0038142   -0.0043603
n    -3.4469508    0.4355245   -0.4165930  0.00    0.0379279   -0.0346472   -0.0064473
h    -3.8859792    1.4511370    1.3944338  0.00    0.0024201   -0.0090206   -0.0167979
h    -3.2771825   -0.3197375    0.2678122  0.00   -0.0128741    0.0184377   -0.0118808
h    -4.2999690    0.1447793   -0.9205236  0.00    0.0141023    0.0148663    0.0155979
o    -2.4331367    3.7807792    0.7145698  0.00   -0.0065460   -0.1900641   -0.0664499
o    -1.3921698    2.0117143   -0.3451750  0.00   -0.0491739   -0.0408031    0.0118452
h    -1.2543325    2.5350807   -1.1925689  0.00   -0.0185500   -0.0035578    0.0005976
    13
 Energy =       0.0805624150
c    -3.7023084    1.7097165    0.3479399  0.00   -0.0179380   -0.0033787    0.0030760
c    -2.4438242    2.5728029    0.2731754  0.00    0.0268654    0.1456469    0.0319544
c    -4.8997259    2.4417904   -0.2729922  0.00    0.0107934   -0.0017943    0.0094574
h    -4.6878326    2.6880919   -1.3419622  0.00    0.0019808    0.0017193   -0.0048182
h    -5.0966829    3.3963906    0.2718017  0.00   -0.0005123    0.0031317    0.0013839
h    -5.8193988    1.8121081   -0.2271046  0.00   -0.0039465   -0.0033500   -0.0022172
n    -3.4665404    0.4163430   -0.3416549  0.00    0.0274396   -0.0178427   -0.0062484
h    -3.9005214    1.5319064    1.4253728  0.00    0.0007777   -0.0051669   -0.0073617
h    -3.3634318   -0.3304143    0.3786321  0.00   -0.0071939    0.0067689   -0.0031444
h    -4.2963900    0.1414837   -0.9070597  0.00    0.0047447    0.0084659    0.0066269
o    -2.4120698    3.8104589    0.7407576  0.00   -0.0038952   -0.1068857   -0.0384181
o    -1.3405982    2.0233613   -0.3369721  0.00   -0.0237013   -0.0502345    0.0667367
h    -1.3696222    2.3763276   -1.3199495  0.00   -0.0154144    0.0229203   -0.0570272
    13
 Energy =       0.0802324150
c    -3.7241655    1.7267740    0.3581389  0.00   -0.0157279   -0.0016460    0.0037596
c    -2.4475897    2.5650295    0.3100155  0.00    0.0265916    0.1386689    0.0299708
c    -4.8720078    2.4479577   -0.3715681  0.00    0.0069134   -0.0005405    0.0092174
h    -4.5961238    2.6348906   -1.4412865  0.00    0.0026861    0.0022988   -0.0081500
h    -5.0830857    3.4338828    0.1130486  0.00   -0.0015750    0.0050121    0.0022024
h    -5.8058009    1.8378323   -0.3441611  0.00   -0.0044027   -0.0031481   -0.0018571
n    -3.4724231    0.3934795   -0.2505173  0.00    0.0298247   -0.0178919   -0.0109353
h    -3.9896576    1.6110715    1.4335083  0.00   -0.0002932   -0.0051166   -0.0030342
h    -3.4278300   -0.3170991    0.5163283  0.00   -0.0063152    0.0027642    0.0012731
h    -4.2727582    0.1034769   -0.8521169  0.00    0.0030378    0.0075962    0.0049427
o    -2.4049685    3.8065171    0.7748748  0.00   -0.0036864   -0.1018781   -0.0365752
o    -1.3422501    2.0016524   -0.2857565  0.00   -0.0223357   -0.0480573    0.0637518
h    -1.3602858    2.3449019   -1.2705236  0.00   -0.0147176    0.0219383   -0.0545659
    13
 Energy =       0.0747823991
c    -3.7104067    1.7022748    0.3417966  0.00   -0.0058397    0.0019137    0.0038320
c    -2.4250000    2.5228680    0.2828693  0.00    0.0142309    0.0738112    0.0153418
c    -4.8920677    2.4755193   -0.2849970  0.00    0.0004321    0.0014549    0.0045741
h    -4.6821267    2.6957038   -1.3618525  0.00    0.0019662    0.0013514   -0.0070797
h    -5.0519111    3.4454392    0.2488457  0.00   -0.0016555    0.0047800    0.0025470
h    -5.8327524    1.8820760   -0.2161835  0.00   -0.0036438   -0.0016526   -0.0011446
n    -3.5227222    0.3970573   -0.3431476  0.00    0.0243360   -0.0068210   -0.0076059
h    -3.9176032    1.5424160    1.4279727  0.00   -0.0003608   -0.0021211    0.0014244
h    -3.5332159   -0.3734540    0.3718414  0.00   -0.0034702   -0.0047948    0.0051854
h    -4.3054011    0.1867651   -1.0108700  0.00   -0.0044937    0.0009809   -0.0035661
o    -2.3775825    3.7828574    0.7807936  0.00   -0.0017350   -0.0548116   -0.0185686
o    -1.2983677    1.9725091   -0.2968190  0.00   -0.0105593   -0.0265210    0.0400635
h    -1.2497895    2.3583349   -1.2502654  0.00   -0.0092072    0.0124301   -0.0350033
    13
 Energy =       0.0750026855
c    -3.7199843    1.6936336    0.3287571  0.00   -0.0059467    0.0022525    0.0044564
c    -2.4161304    2.4890728    0.3262418  0.00    0.0101329    0.0684112    0.0151372
c    -4.8817670    2.5146729   -0.2759744  0.00    0.0000311    0.0018885    0.0039740
h    -4.6590435    2.7774228   -1.3408543  0.00    0.0017182    0.0015721   -0.0073981
h    -5.0293765    3.4646159    0.2967376  0.00   -0.0014691    0.0052002    0.0027627
h    -5.8321973    1.9334184   -0.2398515  0.00   -0.0037696   -0.0019735   -0.0010513
n    -3.5508984    0.4132536   -0.4072347  0.00    0.0336744    0.0041700   -0.0061706
h    -3.9409697    1.4925724    1.4061851  0.00   -0.0002884   -0.0019906    0.0023908
h    -3.6818607   -0.3950110    0.2650036  0.00   -0.0046955   -0.0151771    0.0138340
h    -4.2763449    0.2887947   -1.1688674  0.00   -0.0145433   -0.0014048   -0.0145527
o    -2.3674402    3.7519430    0.8259182  0.00   -0.0013195   -0.0493410   -0.0167482
o    -1.2646799    1.9105294   -0.1802910  0.00   -0.0053334   -0.0258583    0.0373169
h    -1.1782539    2.2554483   -1.1457856  0.00   -0.0081910    0.0122509   -0.0339512
    13
 Energy =       0.0724594228
c    -3.7455985    1.6774066    0.3068095  0.00   -0.0022494   -0.0006323    0.0031569
c    -2.4092374    2.4165054    0.3409896  0.00    0.0016452    0.0198584   -0.0049402
c    -4.8580036    2.5587240   -0.3025845  0.00   -0.0002701    0.0023712    0.0005883
h    -4.6220604    2.8009419   -1.3652191  0.00    0.0008679    0.0008741   -0.0031807
h    -4.9535045    3.5163111    0.2643258  0.00   -0.0010709    0.0033314    0.0015856
h    -5.8387505    2.0318368   -0.2601249  0.00   -0.0031550   -0.0017446   -0.0002555
n    -3.6317276    0.4064436   -0.4462831  0.00    0.0218315    0.0063609   -0.0027948
h    -3.9973974    1.4718762    1.3757412  0.00   -0.0001147   -0.0012836    0.0014338
h    -3.6585295   -0.4027802    0.2332470  0.00   -0.0030773   -0.0116120    0.0121603
h    -4.4289954    0.2604927   -1.1258710  0.00   -0.0121258   -0.0017891   -0.0135961
o    -2.3020346    3.6409333    0.9814877  0.00    0.0018344   -0.0077276    0.0033481
o    -1.2735332    1.8467401   -0.2164097  0.00   -0.0037513   -0.0305277    0.0513238
h    -1.0795742    2.3649354   -1.0961241  0.00   -0.0003645    0.0225210   -0.0488295
    13
 Energy =       0.0704458125
c    -3.7789649    1.6824657    0.2900517  0.00   -0.0027775   -0.0010234    0.0031578
c    -2.4275212    2.3920327    0.3805053  0.00    0.0006096    0.0154531   -0.0038691
c    -4.8415225    2.5910420   -0.3694071  0.00   -0.0009458    0.0036433    0.0005263
h    -4.5621486    2.8071328   -1.4278694  0.00    0.0010921    0.0010693   -0.0038025
h    -4.9248623    3.5602646    0.1786416  0.00   -0.0011184    0.0031061    0.0013677
h    -5.8413693    2.0992090   -0.3509931  0.00   -0.0036702   -0.0017380    0.0000450
n    -3.6628552    0.4171062   -0.4691030  0.00    0.0323656    0.0206867   -0.0053578
h    -4.0866131    1.4767216    1.3452788  0.00   -0.0007458   -0.0011834    0.0027892
h    -3.5367548   -0.3869861    0.2197427  0.00    0.0000864   -0.0230404    0.0227007
h    -4.5426683    0.2040273   -1.0341918  0.00   -0.0261055   -0.0045207   -0.0217633
o    -2.3369256    3.6518574    0.9573012  0.00   -0.0001047   -0.0032644    0.0043394
o    -1.2705371    1.7817323   -0.0926016  0.00   -0.0000070   -0.0314587    0.0466229
h    -0.9862040    2.3137614   -0.9373710  0.00    0.0013215    0.0222705   -0.0467563
    13
 Energy =       0.0695690052
c    -3.8158521    1.6818008    0.2690906  0.00   -0.0031089   -0.0039991    0.0016419
c    -2.4485769    2.3447809    0.4782137  0.00    0.0032427    0.0123557   -0.0031732
c    -4.7977847    2.6389068   -0.4495514  0.00   -0.0019908    0.0052706   -0.0001716
h    -4.4445041    2.8500666   -1.4887482  0.00    0.0015835    0.0017072   -0.0057380
h    -4.8760954    3.6065990    0.1007520  0.00   -0.0010956    0.0026654    0.0010558
h    -5.8183429    2.1884396   -0.4972203  0.00   -0.0059559   -0.0024062    0.0000219
n    -3.6881902    0.4345055   -0.5146333  0.00    0.0271105    0.0180769   -0.0058380
h    -4.2105743    1.4589205    1.2950436  0.00   -0.0020057   -0.0021872    0.0060769
h    -3.5081769   -0.3713437    0.1567728  0.00    0.0005299   -0.0205163    0.0199757
h    -4.5878534    0.2030481   -1.0343954  0.00   -0.0229745   -0.0039807   -0.0186950
o    -2.3569670    3.5767126    1.1160544  0.00    0.0018463   -0.0000318    0.0048244
o    -1.2806635    1.7258122    0.0446016  0.00    0.0016872   -0.0253869    0.0385467
h    -0.9653651    2.2521182   -0.7859955  0.00    0.0011313    0.0184325   -0.0385275
    13
 Energy =       0.0694230840
c    -3.8001569    1.6820500    0.2814029  0.00   -0.0037220   -0.0056525    0.0014733
c    -2.4343208    2.3724168    0.4200822  0.00    0.0044110    0.0121032   -0.0043110
c    -4.8272003    2.6105817   -0.4167692  0.00   -0.0024958    0.0063147   -0.0004938
h    -4.5105693    2.8188114   -1.4696764  0.00    0.0018606    0.0021121   -0.0070257
h    -4.9081157    3.5830874    0.1251751  0.00   -0.0012148    0.0030103    0.0011726
h    -5.8405234    2.1382610   -0.4270830  0.00   -0.0073984   -0.0030144    0.0000322
n    -3.6816429    0.4198167   -0.4820466  0.00    0.0297564    0.0199249   -0.0070558
h    -4.1500550    1.4736966    1.3283592  0.00   -0.0025282   -0.0027696    0.0078851
h    -3.5251668   -0.3818089    0.2032485  0.00    0.0006977   -0.0230215    0.0223674
h    -4.5743734    0.1945878   -1.0201807  0.00   -0.0255912   -0.0043735   -0.0206998
o    -2.3385451    3.6377838    0.9932530  0.00    0.0030573    0.0030545    0.0065393
o    -1.2712388    1.7460344   -0.0169172  0.00    0.0015435   -0.0288052    0.0430482
h    -0.9370382    2.2950484   -0.8288634  0.00    0.0016237    0.0211169   -0.0429320
    13
 Energy =       0.0680116957
c    -3.7859328    1.6834037    0.2911890  0.00   -0.0039579   -0.0073430    0.0011442
c    -2.4243690    2.3987149    0.3509146  0.00    0.0053284    0.0089834   -0.0055739
c    -4.8580059    2.5814499   -0.3824897  0.00   -0.0029177    0.0067763   -0.0008706
h    -4.5801727    2.7851372   -1.4480116  0.00    0.0019799    0.0023558   -0.0077844
h    -4.9406727    3.5587499    0.1504600  0.00   -0.0012253    0.0030820    0.0011867
h    -5.8619089    2.0881578   -0.3539408  0.00   -0.0082655   -0.0034068    0.0000475
n    -3.6807540    0.4051768   -0.4488102  0.00    0.0292436    0.0195633   -0.0077048
h    -4.0865231    1.4936969    1.3581656  0.00   -0.0028490   -0.0031300    0.0093164
h    -3.5342953   -0.3879449    0.2484591  0.00    0.0007751   -0.0231815    0.0224320
h    -4.5707077    0.1799414   -0.9913648  0.00   -0.0255656   -0.0043640   -0.0205972
o    -2.3284064    3.7048689    0.8344999  0.00    0.0043982    0.0087720    0.0082909
o    -1.2648730    1.7580119   -0.0752571  0.00   -0.0002148   -0.0321595    0.0457243
h    -0.8823250    2.3410025   -0.8438295  0.00    0.0032706    0.0240522   -0.0456110
    13
 Energy =       0.0650529686
c    -3.7772564    1.6861923    0.2929855  0.00   -0.0033220   -0.0075158    0.0009013
c    -2.4226426    2.4166576    0.2840447  0.00    0.0049846    0.0044482   -0.0054843
c    -4.8834624    2.5590092   -0.3563947  0.00   -0.0027277    0.0059101   -0.0009386
h    -4.6406122    2.7544954   -1.4313334  0.00    0.0017775    0.0021490   -0.0071120
h    -4.9635717    3.5410684    0.1670313  0.00   -0.0010130    0.0026285    0.0010325
h    -5.8781264    2.0522113   -0.2924157  0.00   -0.0075455   -0.0031329    0.0000168
n    -3.6875903    0.3949916   -0.4253979  0.00    0.0243283    0.0162516   -0.0067966
h    -4.0349110    1.5151490    1.3735660  0.00   -0.0026264   -0.0028541    0.0088345
h    -3.5260880   -0.3855104    0.2780518  0.00    0.0006054   -0.0195783    0.0188843
h    -4.5832228    0.1600235   -0.9480424  0.00   -0.0215551   -0.0037237   -0.0174450
o    -2.3326400    3.7565155    0.6757468  0.00    0.0045817    0.0130244    0.0082777
o    -1.2626401    1.7600105   -0.1156065  0.00   -0.0041103   -0.0337054    0.0440597
h    -0.8061829    2.3795531   -0.8122512  0.00    0.0066222    0.0260983   -0.0442302
    13
 Energy =       0.0609363368
c    -3.7751468    1.6917819    0.2837824  0.00   -0.0020086   -0.0061406    0.0009136
c    -2.4279664    2.4273733    0.2188055  0.00    0.0028288    0.0004149   -0.0039135
c    -4.9054235    2.5456325   -0.3419463  0.00   -0.0019117    0.0040681   -0.0006134
h    -4.6963891    2.7263391   -1.4248074  0.00    0.0013356    0.0015844   -0.0053451
h    -4.9761308    3.5340959    0.1688808  0.00   -0.0006334    0.0018450    0.0007967
h    -5.8923564    2.0340830   -0.2415410  0.00   -0.0055984   -0.0023527   -0.0000413
n    -3.7032888    0.3913282   -0.4164529  0.00    0.0186897    0.0130144   -0.0049347
h    -3.9966278    1.5373930    1.3723646  0.00   -0.0019508   -0.0020448    0.0065723
h    -3.4852494   -0.3713069    0.2855269  0.00    0.0005252   -0.0148048    0.0145448
h    -4.6203310    0.1308957   -0.8793245  0.00   -0.0171560   -0.0031310   -0.0136980
o    -2.3476666    3.7927824    0.5169937  0.00    0.0032890    0.0143326    0.0067313
o    -1.2620698    1.7511645   -0.1295444  0.00   -0.0096594   -0.0340065    0.0381446
h    -0.7103005    2.3988045   -0.7227530  0.00    0.0122500    0.0272210   -0.0391571
    13
 Energy =       0.0571614869
c    -3.7891119    1.6989553    0.2619726  0.00   -0.0015246   -0.0040061    0.0012810
c    -2.4393834    2.4226875    0.1947450  0.00   -0.0013699   -0.0001248   -0.0018411
c    -4.9132703    2.5547131   -0.3640411  0.00   -0.0010311    0.0026522   -0.0003472
h    -4.7113093    2.7173052   -1.4491574  0.00    0.0008813    0.0009755   -0.0033755
h    -4.9708422    3.5500213    0.1335818  0.00   -0.0003790    0.0012715    0.0005762
h    -5.9024094    2.0552230   -0.2499703  0.00   -0.0035297   -0.0014568    0.0000032
n    -3.7292705    0.4000352   -0.4371786  0.00    0.0209977    0.0186144   -0.0065740
h    -4.0104394    1.5470382    1.3481283  0.00   -0.0012936   -0.0012018    0.0039675
h    -3.3914281   -0.3417587    0.2428952  0.00    0.0038722   -0.0166248    0.0172073
h    -4.6865278    0.0914172   -0.7807041  0.00   -0.0231823   -0.0050065   -0.0136916
o    -2.3625345    3.8000407    0.4248002  0.00    0.0011021    0.0116394    0.0049114
o    -1.2636451    1.7224545   -0.0710876  0.00   -0.0095924   -0.0306467    0.0290816
h    -0.6287748    2.3722345   -0.5639998  0.00    0.0150493    0.0239146   -0.0311988
    13
 Energy =       0.0541503404
c    -3.8015583    1.7055316    0.2421148  0.00   -0.0011194   -0.0024923    0.0012813
c    -2.4459869    2.4145023    0.1789812  0.00   -0.0037620   -0.0000843   -0.0007286
c    -4.9168223    2.5666355   -0.3868790  0.00   -0.0005785    0.0016726   -0.0002474
h    -4.7157114    2.7177321   -1.4725125  0.00    0.0005547    0.0005850   -0.0020615
h    -4.9642521    3.5659169    0.1026157  0.00   -0.0002419    0.0008357    0.0003779
h    -5.9090471    2.0777361   -0.2678769  0.00   -0.0021732   -0.0008690    0.0000215
n    -3.7543406    0.4077061   -0.4562448  0.00    0.0172903    0.0162559   -0.0058115
h    -4.0260665    1.5553005    1.3261264  0.00   -0.0008262   -0.0007447    0.0023571
h    -3.3376934   -0.3157642    0.1957531  0.00    0.0041998   -0.0134249    0.0142817
h    -4.7264495    0.0688202   -0.7103034  0.00   -0.0202744   -0.0045894   -0.0106215
o    -2.3645402    3.7989953    0.3496868  0.00   -0.0001668    0.0092989    0.0035222
o    -1.2670865    1.6918867   -0.0062303  0.00   -0.0084992   -0.0261893    0.0212091
h    -0.5693918    2.3353680   -0.4052467  0.00    0.0155967    0.0197458   -0.0235802
    13
 Energy =       0.0518377860
c    -3.8152764    1.7113174    0.2225399  0.00   -0.0010144   -0.0015580    0.0012659
c    -2.4507548    2.4021991    0.1750457  0.00   -0.0049705    0.0002552   -0.0002078
c    -4.9152618    2.5832629   -0.4143494  0.00   -0.0003538    0.0011414   -0.0002512
h    -4.7054253    2.7290936   -1.4982910  0.00    0.0003424    0.0003597   -0.0012928
h    -4.9549215    3.5837325    0.0725075  0.00   -0.0001652    0.0005421    0.0002282
h    -5.9127191    2.1054412   -0.3020940  0.00   -0.0014109   -0.0005227    0.0000381
n    -3.7804606    0.4166409   -0.4792273  0.00    0.0145152    0.0147322   -0.0058337
h    -4.0505197    1.5594496    1.3030640  0.00   -0.0005591   -0.0005335    0.0014610
h    -3.2906459   -0.2899744    0.1373406  0.00    0.0048962   -0.0112633    0.0122359
h    -4.7597748    0.0502316   -0.6454507  0.00   -0.0184588   -0.0043953   -0.0079879
o    -2.3576583    3.7900250    0.2973287  0.00   -0.0008440    0.0073315    0.0024999
o    -1.2748440    1.6581782    0.0680639  0.00   -0.0068282   -0.0218937    0.0151936
h    -0.5306845    2.2907694   -0.2464936  0.00    0.0148510    0.0158045   -0.0173493
    13
 Energy =       0.0499864127
c    -3.8270605    1.7161362    0.2026330  0.00   -0.0009303   -0.0008416    0.0012343
c    -2.4530993    2.3878850    0.1703820  0.00   -0.0055658    0.0004380   -0.0000594
c    -4.9127384    2.6020670   -0.4359209  0.00   -0.0002031    0.0006872   -0.0002610
h    -4.6945581    2.7501879   -1.5173706  0.00    0.0001806    0.0002059   -0.0007525
h    -4.9450097    3.6004128    0.0551291  0.00   -0.0000967    0.0003391    0.0001293
h    -5.9149297    2.1333804   -0.3335118  0.00   -0.0008688   -0.0003078    0.0000274
n    -3.8077816    0.4266104   -0.5068392  0.00    0.0113409    0.0124932   -0.0057395
h    -4.0702616    1.5595217    1.2800212  0.00   -0.0003423   -0.0003905    0.0008214
h    -3.2527892   -0.2658663    0.0666015  0.00    0.0052186   -0.0089799    0.0099255
h    -4.7864638    0.0365401   -0.5890698  0.00   -0.0158198   -0.0038574   -0.0053484
o    -2.3438839    3.7773862    0.2418740  0.00   -0.0012523    0.0060319    0.0016841
o    -1.2855207    1.6234633    0.1437964  0.00   -0.0051281   -0.0178395    0.0101603
h    -0.5048502    2.2426423   -0.0877405  0.00    0.0134672    0.0120214   -0.0118215
    13
 Energy =       0.0485992324
c    -3.8359549    1.7182894    0.1814498  0.00   -0.0008392   -0.0001697    0.0012751
c    -2.4524357    2.3702684    0.1634462  0.00   -0.0056225    0.0004178   -0.0001927
c    -4.9107019    2.6246749   -0.4437345  0.00   -0.0001938    0.0002395   -0.0002941
h    -4.6885439    2.7880879   -1.5218928  0.00    0.0000631    0.0001210   -0.0004673
h    -4.9341828    3.6150553    0.0634347  0.00   -0.0000462    0.0003313    0.0001328
h    -5.9167257    2.1629013   -0.3525998  0.00   -0.0004580   -0.0001988   -0.0000006
n    -3.8369154    0.4401651   -0.5474778  0.00    0.0076338    0.0097037   -0.0057745
h    -4.0809872    1.5476093    1.2558838  0.00   -0.0001543   -0.0002667    0.0004466
h    -3.2222086   -0.2440424   -0.0300604  0.00    0.0054017   -0.0070330    0.0076440
h    -4.8078069    0.0288073   -0.5491746  0.00   -0.0124326   -0.0028946   -0.0028388
o    -2.3229017    3.7594386    0.1772624  0.00   -0.0014469    0.0053367    0.0010017
o    -1.2984902    1.5874473    0.2224347  0.00   -0.0029448   -0.0136985    0.0059518
h    -0.4910918    2.1916645    0.0710126  0.00    0.0110397    0.0081114   -0.0068840
    13
 Energy =       0.0476929524
c    -3.8409969    1.7144138    0.1576389  0.00   -0.0005202    0.0008743    0.0016680
c    -2.4482824    2.3467689    0.1560078  0.00   -0.0050690    0.0001629   -0.0005462
c    -4.9106009    2.6538695   -0.4250369  0.00   -0.0006919   -0.0001731   -0.0003738
h    -4.6928633    2.8567144   -1.4978379  0.00    0.0000385    0.0002181   -0.0008939
h    -4.9217334    3.6246982    0.1200916  0.00   -0.0000689    0.0009382    0.0004732
h    -5.9193920    2.1963571   -0.3470712  0.00   -0.0001790   -0.0001871   -0.0000216
n    -3.8673802    0.4631146   -0.6169685  0.00    0.0028311    0.0061202   -0.0064771
h    -4.0788926    1.5075209    1.2276464  0.00   -0.0000351   -0.0002054    0.0007897
h    -3.1985399   -0.2233110   -0.1766306  0.00    0.0057941   -0.0062548    0.0056520
h    -4.8230811    0.0298559   -0.5475832  0.00   -0.0080109   -0.0014036   -0.0006914
o    -2.2940253    3.7323836    0.1007945  0.00   -0.0014338    0.0052304    0.0004147
o    -1.3136978    1.5493852    0.3091677  0.00    0.0000938   -0.0094150    0.0028498
h    -0.4894609    2.1385959    0.2297658  0.00    0.0072512    0.0040950   -0.0028433
    13
 Energy =       0.0472313907
c    -3.8433097    1.7066900    0.1356579  0.00   -0.0000648    0.0015395    0.0015385
c    -2.4437984    2.3231614    0.1526413  0.00   -0.0036094   -0.0007016   -0.0006828
c    -4.9108333    2.6801671   -0.3912327  0.00   -0.0010233   -0.0002190   -0.0003180
h    -4.7016504    2.9306357   -1.4560266  0.00    0.0000677    0.0003138   -0.0011843
h    -4.9079914    3.6252779    0.1978345  0.00   -0.0000926    0.0012353    0.0006773
h    -5.9218448    2.2260093   -0.3251228  0.00   -0.0000532   -0.0001404   -0.0000152
n    -3.8914155    0.4922320   -0.6952185  0.00   -0.0006763    0.0023334   -0.0052047
h    -4.0722807    1.4525548    1.1979011  0.00   -0.0000263   -0.0002159    0.0011945
h    -3.1821683   -0.1979162   -0.3353837  0.00    0.0043053   -0.0046990    0.0030792
h    -4.8273186    0.0335550   -0.5788498  0.00   -0.0031501   -0.0002515    0.0003060
o    -2.2635070    3.7000802    0.0144750  0.00   -0.0011976    0.0055032   -0.0001530
o    -1.3321009    1.5202016    0.4033425  0.00    0.0030920   -0.0054282    0.0012534
h    -0.5007277    2.0977180    0.3699662  0.00    0.0024284    0.0007303   -0.0004909
    13
 Energy =       0.0470208825
c    -3.8407015    1.6935589    0.1183410  0.00    0.0006525    0.0020000    0.0013356
c    -2.4401898    2.3055004    0.1487485  0.00   -0.0020025   -0.0022805   -0.0004225
c    -4.9167988    2.6954372   -0.3327573  0.00   -0.0015373    0.0000558   -0.0000632
h    -4.7280928    3.0025806   -1.3870965  0.00    0.0001713    0.0004794   -0.0016159
h    -4.8989528    3.6079231    0.3055927  0.00   -0.0001769    0.0014184    0.0008725
h    -5.9270107    2.2390938   -0.2709940  0.00   -0.0000337   -0.0000037    0.0000408
n    -3.9031874    0.5282693   -0.7798309  0.00   -0.0014248   -0.0002763   -0.0039129
h    -4.0522624    1.3784336    1.1686314  0.00   -0.0001596   -0.0003684    0.0018822
h    -3.1679532   -0.1669452   -0.4941368  0.00    0.0026263   -0.0031924    0.0012842
h    -4.8227490    0.0442095   -0.6493287  0.00   -0.0006111   -0.0001164    0.0003215
o    -2.2398110    3.6667519   -0.0878063  0.00   -0.0007188    0.0062517   -0.0007682
o    -1.3477009    1.5121611    0.4902480  0.00    0.0032588   -0.0038489    0.0010473
h    -0.5135364    2.0833928    0.4603733  0.00   -0.0000443   -0.0001188   -0.0000015
    13
 Energy =       0.0468667522
c    -3.8358862    1.6756462    0.0993714  0.00    0.0006189    0.0023998    0.0008167
c    -2.4393093    2.2929744    0.1515467  0.00   -0.0019011   -0.0026099    0.0000941
c    -4.9241048    2.6986485   -0.2647878  0.00   -0.0012338    0.0001946    0.0002271
h    -4.7590765    3.0704778   -1.3023044  0.00    0.0001981    0.0005515   -0.0015198
h    -4.8933071    3.5705951    0.4268738  0.00   -0.0001004    0.0012184    0.0008043
h    -5.9313408    2.2348909   -0.2094200  0.00   -0.0000705   -0.0000209    0.0000819
n    -3.9030079    0.5740978   -0.8751818  0.00   -0.0002266   -0.0016882   -0.0027102
h    -4.0303896    1.2871094    1.1285315  0.00   -0.0002535   -0.0005902    0.0019689
h    -3.1546458   -0.1276743   -0.6528900  0.00    0.0007954   -0.0012765    0.0002454
h    -4.8133999    0.0691599   -0.7613129  0.00   -0.0001840   -0.0005889    0.0000562
o    -2.2207405    3.6259100   -0.2027888  0.00   -0.0008721    0.0067057   -0.0017348
o    -1.3655926    1.5261431    0.5969753  0.00    0.0030392   -0.0045351    0.0017377
h    -0.5281455    2.0923882    0.5553715  0.00    0.0001902    0.0002398   -0.0000675
    13
 Energy =       0.0467482341
c    -3.8277289    1.6594296    0.0849713  0.00    0.0010968    0.0007825    0.0008297
c    -2.4352944    2.2833301    0.1407979  0.00   -0.0002382   -0.0012143    0.0003384
c    -4.9302321    2.6949622   -0.1900100  0.00   -0.0014485    0.0002534    0.0002516
h    -4.7967856    3.1244702   -1.2096542  0.00    0.0000898    0.0005300   -0.0013539
h    -4.8828016    3.5270871    0.5476090  0.00   -0.0001441    0.0009389    0.0007464
h    -5.9336732    2.2234168   -0.1321748  0.00   -0.0000853    0.0000876    0.0000575
n    -3.9098771    0.6188583   -0.9519855  0.00   -0.0006730   -0.0006355   -0.0021128
h    -3.9954702    1.2080587    1.0925882  0.00   -0.0000967   -0.0004353    0.0014257
h    -3.1571702   -0.0932861   -0.7833805  0.00    0.0011766   -0.0013153    0.0002815
h    -4.8182728    0.1073088   -0.8542756  0.00   -0.0000384   -0.0002024    0.0000271
o    -2.2029266    3.5854021   -0.2986065  0.00    0.0001537    0.0019756   -0.0005055
o    -1.3740172    1.5446116    0.6502228  0.00    0.0001658   -0.0008662    0.0000331
h    -0.5346968    2.1067175    0.5938824  0.00    0.0000415    0.0001012   -0.0000188
    13
 Energy =       0.0467136875
c    -3.8265492    1.6529887    0.0753996  0.00    0.0002968    0.0008285    0.0002480
c    -2.4377590    2.2825049    0.1488730  0.00   -0.0017489   -0.0010760    0.0000964
c    -4.9308416    2.6886576   -0.1851212  0.00   -0.0006095    0.0000754    0.0001542
h    -4.7962410    3.1348146   -1.1968309  0.00    0.0000639    0.0002733   -0.0006915
h    -4.8875407    3.5084540    0.5655575  0.00   -0.0000365    0.0005085    0.0003863
h    -5.9328714    2.2128383   -0.1377397  0.00   -0.0000815   -0.0000083    0.0000366
n    -3.8994564    0.6316847   -0.9802246  0.00   -0.0001202   -0.0004285   -0.0012051
h    -3.9975413    1.1825960    1.0731784  0.00   -0.0000773   -0.0002556    0.0007806
h    -3.1471866   -0.0816336   -0.8189529  0.00    0.0004961   -0.0005762    0.0001457
h    -4.8078744    0.1170938   -0.8988267  0.00   -0.0001917   -0.0002372    0.0000182
o    -2.1915163    3.5595671   -0.3549012  0.00   -0.0005088    0.0038218   -0.0016724
o    -1.3921124    1.5704239    0.7287183  0.00    0.0024373   -0.0029623    0.0016961
h    -0.5514563    2.1303770    0.6708547  0.00    0.0000803    0.0000367    0.0000070
    13
 Energy =       0.0466818171
c    -3.8209643    1.6415465    0.0647661  0.00    0.0007122    0.0006539    0.0007480
c    -2.4341039    2.2739167    0.1396086  0.00    0.0002386   -0.0000641    0.0001738
c    -4.9323244    2.6847024   -0.1291155  0.00   -0.0008970    0.0000521    0.0001708
h    -4.8181759    3.1753292   -1.1230590  0.00    0.0000285    0.0005014   -0.0009840
h    -4.8771876    3.4708686    0.6563440  0.00   -0.0000798    0.0007451    0.0006789
h    -5.9320352    2.2039274   -0.0841199  0.00   -0.0000199    0.0000058    0.0000390
n    -3.9099210    0.6675062   -1.0338202  0.00   -0.0006673   -0.0003758   -0.0016881
h    -3.9723247    1.1266914    1.0439872  0.00   -0.0000470   -0.0004268    0.0010106
h    -3.1546017   -0.0515488   -0.9165179  0.00    0.0008935   -0.0010908    0.0000820