    13
 Energy =       0.1124589465
c    -3.7133889    1.6950595    0.3173519  0.00   -0.0420258   -0.0164348    0.0125914
c    -2.4962693    2.6345192    0.2419999  0.00    0.0803994    0.3624111    0.1237133
c    -4.9565486    2.3924193   -0.2155699  0.00    0.0142126    0.0026176    0.0120163
h    -4.7854386    2.7464192   -1.2386596  0.00   -0.0055100   -0.0041657    0.0170643
h    -5.2149185    3.2645991    0.3947669  0.00    0.0016114   -0.0132694   -0.0127539
h    -5.8205083    1.7195795   -0.2420919  0.00    0.0116495    0.0110308   -0.0054679
n    -3.4097890    0.4519539   -0.4549189  0.00    0.0507031   -0.0504812   -0.0131234
h    -3.8575589    1.4177196    1.3669296  0.00    0.0061794   -0.0119739   -0.0251524
h    -3.2072391   -0.2948399    0.2179739  0.00   -0.0174360    0.0284758   -0.0178656
h    -4.2689788    0.1396900   -0.9176007  0.00    0.0222186    0.0212393    0.0248715
o    -2.4571893    3.7760389    0.6681628  0.00   -0.0151513   -0.2735942   -0.1133640
o    -1.4389296    2.0221094   -0.3549299  0.00   -0.0703532   -0.0516018    0.0058926
h    -0.7518168    1.9408394    0.3531709  0.00   -0.0364977   -0.0042537   -0.0084223
    13
 Energy =       0.0944170615
c    -3.7154400    1.6968540    0.3255556  0.00   -0.0304076   -0.0106539    0.0102116
c    -2.4784171    2.5986864    0.2337777  0.00    0.0561539    0.2543060    0.0892245
c    -4.9439248    2.4193577   -0.2289216  0.00    0.0154700   -0.0022065    0.0127433
h    -4.7013154    2.9051723   -1.2002441  0.00   -0.0001234    0.0021242    0.0018968
h    -5.2716709    3.2113997    0.4748132  0.00   -0.0003916   -0.0033877   -0.0016177
h    -5.7948635    1.7272906   -0.3984000  0.00    0.0012955    0.0003132   -0.0058149
n    -3.4485943    0.4335997   -0.4159828  0.00    0.0375858   -0.0354322   -0.0099055
h    -3.8743957    1.4573869    1.3885480  0.00    0.0039113   -0.0085359   -0.0171221
h    -3.2555493   -0.3107644    0.2722098  0.00   -0.0123705    0.0198116   -0.0122870
h    -4.3053237    0.1247976   -0.8992857  0.00    0.0150198    0.0153341    0.0173059
o    -2.4351760    3.7924347    0.6628121  0.00   -0.0103105   -0.1920024   -0.0810200
o    -1.4131940    2.0179148   -0.3981597  0.00   -0.0555756   -0.0353480   -0.0054609
h    -0.7407089    1.8319772    0.3198623  0.00   -0.0202572   -0.0043226    0.0018462
    13
 Energy =       0.0858997988
c    -3.7037199    1.6990140    0.3198970  0.00   -0.0234524   -0.0076256    0.0079745
c    -2.4680458    2.5946337    0.2014034  0.00    0.0440414    0.1968043    0.0696901
c    -4.9469481    2.4229902   -0.2028512  0.00    0.0169988   -0.0036381    0.0120157
h    -4.7562982    2.8117015   -1.2352823  0.00    0.0020640    0.0035417   -0.0054657
h    -5.1898262    3.2907756    0.4565789  0.00   -0.0008816    0.0026046    0.0035000
h    -5.8334621    1.7427514   -0.2396469  0.00   -0.0058943   -0.0053853   -0.0044995
n    -3.4698907    0.4357081   -0.4259532  0.00    0.0299667   -0.0272036   -0.0079646
h    -3.8362592    1.4687537    1.3920367  0.00    0.0030061   -0.0065651   -0.0128183
h    -3.2773406   -0.3200761    0.2549699  0.00   -0.0095935    0.0151483   -0.0094830
h    -4.3335954    0.1425212   -0.9154331  0.00    0.0113318    0.0119558    0.0131192
o    -2.4351151    3.8155109    0.6359214  0.00   -0.0083150   -0.1485853   -0.0627714
o    -1.3836876    2.0282827   -0.4195194  0.00   -0.0465196   -0.0267083   -0.0089902
h    -0.7443849    1.7735406    0.3144639  0.00   -0.0127523   -0.0043436    0.0056931
    13
 Energy =       0.0776543525
c    -3.6806894    1.6989920    0.3106304  0.00   -0.0118972   -0.0028837    0.0045011
c    -2.4458301    2.5838610    0.1432332  0.00    0.0261037    0.1054939    0.0398265
c    -4.9534913    2.4347315   -0.1384802  0.00    0.0096305   -0.0015000    0.0074556
h    -4.8349436    2.7881470   -1.1940289  0.00    0.0018831    0.0025803   -0.0061192
h    -5.1311731    3.3254065    0.5120016  0.00   -0.0007158    0.0028898    0.0037874
h    -5.8504444    1.7691783   -0.0808938  0.00   -0.0069504   -0.0049861   -0.0025427
n    -3.5095136    0.4392650   -0.4510105  0.00    0.0186547   -0.0146260   -0.0054129
h    -3.7584614    1.4735405    1.3955273  0.00    0.0017806   -0.0032861   -0.0052240
h    -3.3220036   -0.3408844    0.2121962  0.00   -0.0051956    0.0072999   -0.0049163
h    -4.3828822    0.1781258   -0.9548305  0.00    0.0052003    0.0061767    0.0063268
o    -2.4250815    3.8497679    0.5796911  0.00   -0.0049665   -0.0798056   -0.0343590
o    -1.3353603    2.0409510   -0.4684335  0.00   -0.0342588   -0.0105197   -0.0185162
h    -0.7486993    1.6650250    0.2709826  0.00    0.0007315   -0.0068333    0.0151927
    13
 Energy =       0.0741030371
c    -3.6691010    1.7066967    0.2992380  0.00   -0.0039558    0.0004492    0.0012378
c    -2.4189627    2.5633337    0.1079242  0.00    0.0070562    0.0317922    0.0143065
c    -4.9395136    2.4652353   -0.1267544  0.00    0.0045231   -0.0008529    0.0026651
h    -4.8623338    2.7655408   -1.1995013  0.00    0.0012284    0.0013176   -0.0037825
h    -5.0611448    3.3897579    0.4877706  0.00   -0.0004716    0.0027613    0.0029989
h    -5.8470592    1.8304791    0.0110344  0.00   -0.0047237   -0.0035692   -0.0005357
n    -3.5562957    0.4352428   -0.4483233  0.00    0.0091261   -0.0029998   -0.0025140
h    -3.7324840    1.5027110    1.3927051  0.00    0.0005558   -0.0007613   -0.0010956
h    -3.4212184   -0.3576085    0.2213006  0.00   -0.0015153   -0.0001841   -0.0002706
h    -4.4235149    0.2156192   -0.9931511  0.00   -0.0010445    0.0017726    0.0003042
o    -2.3962197    3.8675021    0.5424919  0.00   -0.0015335   -0.0229346   -0.0102960
o    -1.2720840    2.0153254   -0.4480517  0.00   -0.0201195    0.0041084   -0.0249355
h    -0.7786420    1.5062719    0.2899019  0.00    0.0108742   -0.0108992    0.0219173
    13
 Energy =       0.0741252158
c    -3.6695090    1.6973861    0.2858909  0.00   -0.0034327    0.0012218    0.0016284
c    -2.4086030    2.5443866    0.1201776  0.00    0.0051087    0.0293880    0.0134007
c    -4.9334543    2.4837887   -0.1107570  0.00    0.0037806   -0.0005975    0.0023075
h    -4.8600993    2.8120646   -1.1755073  0.00    0.0010339    0.0013301   -0.0038069
h    -5.0401345    3.3932662    0.5286817  0.00   -0.0004526    0.0029282    0.0029734
h    -5.8468927    1.8561022    0.0164765  0.00   -0.0043257   -0.0032999   -0.0004862
n    -3.5744957    0.4494297   -0.5037753  0.00    0.0088370   -0.0026250   -0.0032044
h    -3.7319320    1.4581620    1.3728832  0.00    0.0005883   -0.0007810   -0.0003383
h    -3.4608265   -0.3692462    0.1396342  0.00   -0.0011978   -0.0013789    0.0005950
h    -4.4389415    0.2650317   -1.0672773  0.00   -0.0018933    0.0010840   -0.0005396
o    -2.3916376    3.8564625    0.5363984  0.00   -0.0016074   -0.0204138   -0.0091243
o    -1.2438742    1.9800685   -0.3831272  0.00   -0.0168005    0.0035027   -0.0239002
h    -0.7781736    1.4792046    0.3768864  0.00    0.0103614   -0.0103585    0.0204948
    13
 Energy =       0.0739080093
c    -3.6689432    1.6998618    0.2815668  0.00   -0.0025046    0.0019414    0.0033045
c    -2.3673025    2.4826276    0.0992692  0.00    0.0029975    0.0206494    0.0094398
c    -4.9021926    2.5554150   -0.0759086  0.00    0.0016532    0.0004411    0.0004749
h    -4.8399562    2.8902083   -1.1382057  0.00    0.0006439    0.0009873   -0.0028520
h    -4.9473254    3.4634129    0.5740012  0.00   -0.0005750    0.0036469    0.0032246
h    -5.8424108    1.9727955    0.0689886  0.00   -0.0044620   -0.0030414   -0.0003387
n    -3.6575269    0.4570256   -0.5244955  0.00    0.0090646   -0.0031558   -0.0036548
h    -3.7191424    1.4511949    1.3672528  0.00    0.0005725   -0.0003468    0.0000458
h    -3.5938705   -0.3780440    0.1065840  0.00   -0.0007634   -0.0033484    0.0012508
h    -4.5322619    0.3355770   -1.0925382  0.00   -0.0040908    0.0000566   -0.0023664
o    -2.2790075    3.7974658    0.5157816  0.00   -0.0004979   -0.0116202   -0.0055851
o    -1.2290606    1.8581152   -0.3990054  0.00   -0.0109834    0.0022335   -0.0192300
h    -0.7995732    1.3204515    0.3532943  0.00    0.0089456   -0.0084436    0.0162867
    13
 Energy =       0.0735045460
c    -3.6729055    1.7067764    0.2984590  0.00   -0.0013766    0.0021151    0.0040977
c    -2.3860790    2.5174244    0.1358922  0.00   -0.0013833    0.0134900    0.0066460
c    -4.9118933    2.5280160   -0.1179159  0.00    0.0001445    0.0003761    0.0000832
h    -4.8318771    2.8271750   -1.1898880  0.00    0.0003887    0.0010490   -0.0031690
h    -4.9875034    3.4564614    0.5002592  0.00   -0.0006425    0.0039708    0.0033441
h    -5.8446520    1.9347165    0.0262330  0.00   -0.0038454   -0.0025402   -0.0003289
n    -3.6122948    0.4429373   -0.4735659  0.00    0.0085475   -0.0039737   -0.0040936
h    -3.7504214    1.4864172    1.3895688  0.00    0.0006524   -0.0001149    0.0008778
h    -3.5457878   -0.3727944    0.1823037  0.00   -0.0005126   -0.0034559    0.0014989
h    -4.4709847    0.2857515   -1.0578883  0.00   -0.0045224   -0.0002935   -0.0029097
o    -2.3000915    3.7946419    0.6745347  0.00   -0.0014843   -0.0006413    0.0002054
o    -1.2567964    1.9542056   -0.4589431  0.00   -0.0067050    0.0016125   -0.0257293
h    -0.8072869    1.3443785    0.2275355  0.00    0.0107389   -0.0115941    0.0194773
    13
 Energy =       0.0730957637
c    -3.6888951    1.7128777    0.3164077  0.00    0.0004783    0.0005682    0.0025194
c    -2.3905155    2.5094375    0.1949899  0.00   -0.0023226    0.0037585    0.0008808
c    -4.8971476    2.5266811   -0.1973377  0.00   -0.0025079    0.0006275    0.0004108
h    -4.7677196    2.7708255   -1.2792985  0.00    0.0003288    0.0011893   -0.0041527
h    -4.9884918    3.4847754    0.3700879  0.00   -0.0009347    0.0034429    0.0026192
h    -5.8406405    1.9519705   -0.0623354  0.00   -0.0021806   -0.0013077    0.0000868
n    -3.5980155    0.4176586   -0.3971772  0.00    0.0117094    0.0014484   -0.0060894
h    -3.8271881    1.5384452    1.4123856  0.00    0.0001078   -0.0003065    0.0032474
h    -3.6274841   -0.3727719    0.2983246  0.00    0.0001797   -0.0079579    0.0075942
h    -4.4011378    0.2684359   -1.0625331  0.00   -0.0085365    0.0000731   -0.0063472
o    -2.2763597    3.7426760    0.8332878  0.00   -0.0007695    0.0065747    0.0040561
o    -1.2823272    1.9842041   -0.4681089  0.00   -0.0015226   -0.0008675   -0.0164323
h    -0.7926514    1.3708914    0.1778922  0.00    0.0059705   -0.0072430    0.0116070
    13
 Energy =       0.0723681345
c    -3.6989107    1.7245956    0.3462726  0.00    0.0016582    0.0019311    0.0020635
c    -2.4006939    2.5173580    0.2250969  0.00   -0.0077975    0.0033880    0.0035943
c    -4.8867693    2.5076006   -0.2537818  0.00   -0.0030112    0.0004974    0.0005086
h    -4.7243399    2.6851654   -1.3444951  0.00    0.0002578    0.0011326   -0.0043867
h    -4.9915146    3.4985003    0.2515646  0.00   -0.0008667    0.0035916    0.0022998
h    -5.8344655    1.9439752   -0.1118732  0.00   -0.0010071   -0.0006450    0.0001972
n    -3.5833699    0.3900786   -0.2876613  0.00    0.0076132   -0.0014964   -0.0060202
h    -3.8751177    1.6125378    1.4459493  0.00   -0.0000563   -0.0002062    0.0040218
h    -3.6547527   -0.3598850    0.4465468  0.00    0.0003509   -0.0062569    0.0060176
h    -4.3500300    0.2092758   -0.9843445  0.00   -0.0056518   -0.0000795   -0.0045249
o    -2.2554773    3.7069667    0.9361652  0.00   -0.0015533    0.0070618    0.0046351
o    -1.3357219    2.0534745   -0.5519935  0.00    0.0037635   -0.0010932   -0.0181992
h    -0.7874104    1.4164637    0.0191390  0.00    0.0063002   -0.0078253    0.0097931
    13
 Energy =       0.0714875438
c    -3.7158692    1.7417005    0.3731764  0.00    0.0032024    0.0023160    0.0013195
c    -2.4095111    2.5214914    0.2767212  0.00   -0.0067337    0.0016081    0.0038852
c    -4.8630099    2.4914660   -0.3418799  0.00   -0.0049404    0.0013595    0.0006847
h    -4.6396853    2.5968217   -1.4328241  0.00    0.0006154    0.0010563   -0.0060149
h    -4.9870276    3.5136418    0.0928115  0.00   -0.0012773    0.0041963    0.0022424
h    -5.8219874    1.9441826   -0.2153482  0.00   -0.0008780   -0.0001606    0.0003561
n    -3.5690008    0.3702243   -0.1706299  0.00    0.0071805   -0.0034813   -0.0060016
h    -3.9561743    1.6973293    1.4675779  0.00   -0.0006460    0.0000519    0.0058918
h    -3.6791766   -0.3326755    0.6037263  0.00    0.0001907   -0.0054992    0.0056881
h    -4.2990364    0.1453020   -0.8925028  0.00   -0.0043702   -0.0007252   -0.0042972
o    -2.2332613    3.6636390    1.0549053  0.00   -0.0012927    0.0068781    0.0046279
o    -1.3868045    2.1184606   -0.5848363  0.00    0.0024197    0.0002239   -0.0165653
h    -0.8180293    1.4345234   -0.0943125  0.00    0.0065297   -0.0078240    0.0081832
    13
 Energy =       0.0704381771
c    -3.7327053    1.7592586    0.4004975  0.00    0.0031049    0.0022111    0.0003414
c    -2.4197041    2.5267836    0.3271334  0.00   -0.0071676   -0.0015557    0.0044852
c    -4.8321997    2.4646948   -0.4239188  0.00   -0.0045846    0.0014860    0.0004531
h    -4.5470569    2.4989408   -1.5044942  0.00    0.0007405    0.0006161   -0.0053843
h    -4.9731585    3.5121342   -0.0631637  0.00   -0.0011788    0.0035612    0.0016662
h    -5.8003635    1.9301387   -0.3170840  0.00   -0.0006651    0.0001126    0.0002968
n    -3.5594732    0.3578215   -0.0482432  0.00    0.0055019   -0.0037328   -0.0044415
h    -4.0354197    1.7822155    1.4798041  0.00   -0.0008659    0.0002701    0.0053250
h    -3.7066423   -0.2938816    0.7624794  0.00   -0.0000727   -0.0038730    0.0043698
h    -4.2550247    0.0845604   -0.7858731  0.00   -0.0026928   -0.0009814   -0.0032470
o    -2.1963497    3.5948702    1.1962373  0.00   -0.0010980    0.0090329    0.0072621
o    -1.4555258    2.2117832   -0.6340554  0.00    0.0008894    0.0026638   -0.0183452
h    -0.8649502    1.4767872   -0.2527344  0.00    0.0080887   -0.0098110    0.0072184
    13
 Energy =       0.0694956233
c    -3.7467888    1.7800077    0.4215722  0.00    0.0021911    0.0033385    0.0010122
c    -2.4316401    2.5418669    0.3565097  0.00   -0.0029827   -0.0026913    0.0010502
c    -4.8033793    2.4222746   -0.5021466  0.00   -0.0036092    0.0007907   -0.0001022
h    -4.4635146    2.3844602   -1.5656066  0.00    0.0007359    0.0001459   -0.0041638
h    -4.9631998    3.4907940   -0.2217538  0.00   -0.0009996    0.0032994    0.0011818
h    -5.7745063    1.8911509   -0.4091967  0.00   -0.0003189    0.0001781    0.0000822
n    -3.5499196    0.3525893    0.0784559  0.00    0.0053804   -0.0036756   -0.0038399
h    -4.1018580    1.8749072    1.4799806  0.00   -0.0008401    0.0004607    0.0041909
h    -3.7493190   -0.2423672    0.9212325  0.00   -0.0004455   -0.0032718    0.0048315
h    -4.2002955    0.0297429   -0.6801230  0.00   -0.0024629   -0.0010092   -0.0033592
o    -2.1632363    3.5396183    1.2901373  0.00   -0.0005836    0.0056396    0.0046330
o    -1.5158155    2.3003271   -0.6642896  0.00    0.0001040    0.0015118   -0.0087100
h    -0.9151009    1.5407353   -0.3681870  0.00    0.0038310   -0.0047169    0.0031932
    13
 Energy =       0.0689551385
c    -3.7534927    1.7960825    0.4408395  0.00    0.0007352    0.0022891    0.0009743
c    -2.4408993    2.5608695    0.3733090  0.00   -0.0043637   -0.0048772   -0.0006662
c    -4.7843568    2.3770550   -0.5462239  0.00   -0.0015334    0.0001585   -0.0003597
h    -4.4104219    2.2870566   -1.5927121  0.00    0.0003332   -0.0000353   -0.0017546
h    -4.9605717    3.4559503   -0.3295404  0.00   -0.0004498    0.0017755    0.0005617
h    -5.7530559    1.8411419   -0.4564384  0.00   -0.0000882    0.0000461   -0.0000440
n    -3.5366756    0.3564028    0.1805568  0.00    0.0031001   -0.0019904   -0.0014752
h    -4.1414449    1.9435164    1.4793748  0.00   -0.0003726    0.0002174    0.0018383
h    -3.7802879   -0.1952830    1.0391023  0.00   -0.0002786   -0.0014887    0.0025991
h    -4.1450533   -0.0076892   -0.5930007  0.00   -0.0016238   -0.0006524   -0.0022381
o    -2.1092994    3.4626050    1.3848663  0.00    0.0000542    0.0075257    0.0089947
o    -1.5852468    2.4093358   -0.7166081  0.00   -0.0012647    0.0044271   -0.0108674
h    -0.9777676    1.6190636   -0.5269402  0.00    0.0057520   -0.0073954    0.0024370
    13
 Energy =       0.0686645862
c    -3.7652573    1.8202872    0.4491135  0.00    0.0014935    0.0034407    0.0014196
c    -2.4585550    2.5952175    0.3817449  0.00    0.0011707   -0.0003368   -0.0005901
c    -4.7640560    2.3171237   -0.6167173  0.00   -0.0027474   -0.0000057   -0.0008868
h    -4.3484352    2.1592770   -1.6401975  0.00    0.0006889   -0.0003864   -0.0027524
h    -4.9615292    3.4069669   -0.4843613  0.00   -0.0008345    0.0030001    0.0003848
h    -5.7291697    1.7747537   -0.5267550  0.00   -0.0001377    0.0000443   -0.0000878
n    -3.5201425    0.3684150    0.2973617  0.00    0.0043523   -0.0037662   -0.0007928
h    -4.1969011    2.0339432    1.4596689  0.00   -0.0007951    0.0009678    0.0027438
h    -3.8026571   -0.1274123    1.1781073  0.00   -0.0005953   -0.0014749    0.0029743
h    -4.0835977   -0.0557946   -0.4803770  0.00   -0.0017774   -0.0016568   -0.0030229
o    -2.0960617    3.4418493    1.4204669  0.00   -0.0001465    0.0000310   -0.0007224
o    -1.6251070    2.4854232   -0.7221163  0.00   -0.0001162   -0.0007073    0.0011784
h    -1.0271041    1.6860575   -0.5793538  0.00   -0.0005553    0.0008503    0.0001542
    13
 Energy =       0.0686054544
c    -3.7587271    1.8168423    0.4573084  0.00    0.0008710    0.0021192    0.0010121
c    -2.4528912    2.5923952    0.3808386  0.00   -0.0012825   -0.0019014   -0.0011448
c    -4.7682784    2.3156112   -0.5954954  0.00   -0.0017038    0.0000583   -0.0005590
h    -4.3628869    2.1626633   -1.6227263  0.00    0.0004603   -0.0002449   -0.0017097
h    -4.9652684    3.4036475   -0.4577298  0.00   -0.0005135    0.0018114    0.0002242
h    -5.7316935    1.7715162   -0.4977324  0.00   -0.0001159    0.0000202   -0.0000506
n    -3.5141700    0.3672448    0.2979631  0.00    0.0026757   -0.0022841   -0.0004821
h    -4.1807301    2.0258894    1.4718044  0.00   -0.0005310    0.0005837    0.0016991
h    -3.7975875   -0.1330329    1.1750280  0.00   -0.0003641   -0.0008926    0.0018121
h    -4.0765181   -0.0529621   -0.4815685  0.00   -0.0010746   -0.0010181   -0.0018215
o    -2.0426654    3.3748772    1.4553500  0.00    0.0004316    0.0024058    0.0038010
o    -1.6615936    2.5373553   -0.7607534  0.00   -0.0008712    0.0020127   -0.0030952
h    -1.0655638    1.7240598   -0.6857018  0.00    0.0020178   -0.0026702    0.0003142
    13
 Energy =       0.0685697015
c    -3.7597812    1.8191628    0.4577082  0.00   -0.0000666   -0.0001606   -0.0000564
c    -2.4549493    2.5964934    0.3820424  0.00    0.0000705    0.0000479    0.0000127
c    -4.7647874    2.3065435   -0.6010060  0.00    0.0001310   -0.0000062    0.0000490
h    -4.3555281    2.1465025   -1.6236779  0.00   -0.0000428    0.0000314    0.0001278
h    -4.9629512    3.3936637   -0.4733868  0.00    0.0000424   -0.0001358    0.0000012
h    -5.7276987    1.7618154   -0.5022910  0.00    0.0000106   -0.0000023    0.0000048
n    -3.5129327    0.3710835    0.3108889  0.00   -0.0001984    0.0001749    0.0000066
h    -4.1865505    2.0343386    1.4669517  0.00    0.0000483   -0.0000597   -0.0001247
h    -3.8015626   -0.1230044    1.1882694  0.00    0.0000376    0.0000582   -0.0001363
h    -4.0689660   -0.0558149   -0.4676109  0.00    0.0000590    0.0000957    0.0001257
o    -2.0350780    3.3612957    1.4621078  0.00   -0.0000392   -0.0000470   -0.0001796
o    -1.6701244    2.5542407   -0.7623818  0.00    0.0000471   -0.0001413    0.0001376
h    -1.0776637    1.7397866   -0.7010290  0.00   -0.0000994    0.0001449    0.0000316
    13
 Energy =       0.0685685970
c    -3.7602859    1.8200996    0.4586880  0.00   -0.0000052   -0.0000104   -0.0000062
c    -2.4548435    2.5965302    0.3840923  0.00   -0.0000272   -0.0000376   -0.0000409
c    -4.7628480    2.3048718   -0.6038449  0.00    0.0000075    0.0000007    0.0000041
h    -4.3514438    2.1415886   -1.6252638  0.00   -0.0000008    0.0000017    0.0000054
h    -4.9608691    3.3925681   -0.4799741  0.00    0.0000018   -0.0000071   -0.0000001
h    -5.7262040    1.7608289   -0.5056274  0.00    0.0000004   -0.0000002    0.0000009
n    -3.5135410    0.3713957    0.3165327  0.00   -0.0000022    0.0000136   -0.0000043
h    -4.1893435    2.0383820    1.4664316  0.00   -0.0000000   -0.0000044   -0.0000052
h    -3.8060981   -0.1202805    1.1940789  0.00   -0.0000009   -0.0000003    0.0000021
h    -4.0664768   -0.0572571   -0.4633274  0.00    0.0000003    0.0000061    0.0000023
o    -2.0289211    3.3508666    1.4693342  0.00    0.0000179    0.0000485    0.0000746
o    -1.6740752    2.5616132   -0.7635013  0.00   -0.0000232    0.0000346   -0.0000396
h    -1.0836237    1.7449000   -0.7110339  0.00    0.0000317   -0.0000451    0.0000067
    13
 Energy =       0.0685685896
c    -3.7603026    1.8201299    0.4587486  0.00    0.0000000    0.0000000   -0.0000000
c    -2.4548227    2.5965073    0.3842341  0.00   -0.0000001   -0.0000002   -0.0000002
c    -4.7627435    2.3047999   -0.6039633  0.00   -0.0000000    0.0000000    0.0000000
h    -4.3512435    2.1413660   -1.6253241  0.00    0.0000000    0.0000000   -0.0000000
h    -4.9607418    3.3925260   -0.4802617  0.00   -0.0000000    0.0000000    0.0000000
h    -5.7261273    1.7608007   -0.5057760  0.00   -0.0000000    0.0000000    0.0000000
n    -3.5135787    0.3713942    0.3167972  0.00    0.0000001    0.0000000   -0.0000000
h    -4.1894680    2.0385529    1.4664216  0.00   -0.0000000   -0.0000000    0.0000000
h    -3.8063743   -0.1201824    1.1943182  0.00   -0.0000000   -0.0000000    0.0000000
h    -4.0663229   -0.0573244   -0.4631655  0.00   -0.0000000   -0.0000000   -0.0000000
o    -2.0285186    3.3501179    1.4697643  0.00    0.0000001    0.0000003    0.0000004
o    -1.6743165    2.5621192   -0.7635318  0.00   -0.0000001    0.0000002   -0.0000003
h    -1.0840133    1.7452999   -0.7116765  0.00    0.0000002   -0.0000003    0.0000001
