13
UFF-Energy = 0.0710532
C    -5.2647005    2.3269777    0.0445638 
C    -3.9712549    1.5001243   -0.1354323 
H    -6.0252356    1.7697994    0.6336356 
H    -5.7060559    2.5764672   -0.9434218 
H    -5.0784940    3.2809588    0.5883259 
C    -2.7311225    2.2379147    0.3608043 
N    -4.1375623    0.2068696    0.5472494 
H    -3.7972249    1.3288240   -1.2259376 
H    -4.8945975   -0.3371448    0.0682734 
H    -3.2643896   -0.3616360    0.4235478 
O    -1.5470418    2.1622545   -0.3594123 
O    -2.7439675    2.9230470    1.5682207 
H    -2.5519828    2.2577366    2.3027534 
