13
UFF-Energy = 0.0787514
C    -5.1778880    2.2080473   -0.2319090 
C    -3.9619226    1.2807504   -0.0533708 
H    -6.1025449    1.6126961   -0.3913186 
H    -5.0401074    2.8737210   -1.1117386 
H    -5.3168234    2.8452759    0.6705229 
C    -2.6642357    2.0650049    0.1050767 
N    -4.1964996    0.3854519    1.0894221 
H    -3.8267320    0.6619812   -0.9719480 
H    -4.3037221    0.9486573    1.9684090 
H    -5.0842102   -0.1521246    0.9497653 
O    -2.4219583    2.8021865    1.2581273 
O    -1.7578227    2.1354900   -0.9455801 
H    -2.0917531    2.8029271   -1.6243489 
