13
UFF-Energy = -0.0110573
C    -5.1711616    1.7024626   -0.5775016 
C    -3.7878959    1.4091196    0.0825255 
H    -6.0154961    1.1576669   -0.1089328 
H    -5.1530446    1.4100299   -1.6494608 
H    -5.4433499    2.7801289   -0.5392521 
C    -3.0549887    2.6588759    0.6001254 
N    -3.8914355    0.3301136    1.0920257 
H    -3.1136190    1.0377190   -0.7220847 
H    -3.4247141    0.5901896    1.9863834 
H    -4.8812871    0.1038157    1.3592477 
O    -3.5144607    3.9297449    0.2864131 
O    -1.8380950    2.5604955    1.2643841 
H    -1.7109817    1.6040498    1.5562954 
