13
UFF-Energy = 0.0754337
C    -5.2681128    2.2046916   -0.1086851 
C    -3.9583281    1.3838587   -0.0315317 
H    -5.1092871    3.2814456    0.1229961 
H    -6.0258272    1.8354277    0.6165427 
H    -5.7063111    2.1389347   -1.1267825 
C    -2.7303716    2.2442241    0.2924626 
N    -4.1532466    0.3000423    0.9459554 
H    -3.7505902    0.9437336   -1.0344381 
H    -4.8542244   -0.3805323    0.5685516 
H    -3.2623579   -0.2381489    1.0688488 
O    -2.6670471    3.5664431   -0.1315987 
O    -1.5911509    1.6753436    0.8502464 
H    -1.0931352    1.1684092    0.1346860 
