13
UFF-Energy = 0.0555535
C    -5.2393430    2.2360713    0.3470090 
C    -4.0405507    1.4369132   -0.1745967 
H    -6.1658403    1.6291605    0.2578959 
H    -5.3681314    3.1749820   -0.2335779 
H    -5.0951620    2.5008222    1.4177830 
C    -2.7347568    2.2371129   -0.1081481 
N    -3.9660648    0.1804590    0.5841978 
H    -4.2352631    1.2034159   -1.2467075 
H    -3.2226638   -0.4317802    0.1707778 
H    -3.6689961    0.3802798    1.5710572 
O    -2.5258052    3.1335207    0.9334866 
O    -1.7168896    2.0444429   -1.0416895 
H    -1.9498431    1.3333068   -1.7187343 
