13
UFF-Energy = 0.0303963
C    -5.1776588    2.0717656    0.6521349 
C    -4.0575790    1.4332596   -0.1715479 
H    -4.8559367    2.1948026    1.7095660 
H    -6.0794603    1.4233174    0.6292283 
H    -5.4419376    3.0698594    0.2405193 
C    -2.7955490    2.2859033   -0.1515499 
N    -3.8320792    0.0727646    0.3411238 
H    -4.3840708    1.3785119   -1.2375183 
H    -3.1397352   -0.4100088   -0.2794793 
H    -3.3701827    0.1361049    1.2826757 
O    -2.4657696    3.0700603   -1.2490525 
O    -1.9826868    2.3165128    0.9746588 
H    -1.2129142    2.9497935    0.7971304 
