13
UFF-Energy = 0.0431287
C    -5.1676120    2.3503063   -0.4023419 
C    -3.9263780    1.4653338   -0.2247393 
H    -4.8959126    3.3122172   -0.8901030 
H    -5.6114989    2.5780314    0.5913448 
H    -5.9296516    1.8348326   -1.0226728 
C    -2.8104875    2.1811932    0.5368981 
N    -4.3502600    0.2282367    0.4497722 
H    -3.5005737    1.2269469   -1.2267997 
H    -4.9487936   -0.3318384   -0.2013500 
H    -3.5087549   -0.3653614    0.6509406 
O    -1.7068026    1.4665617    0.9913470 
O    -2.8238909    3.5637962    0.6931745 
H    -1.9969435    3.8389067    1.2075149 
