13
UFF-Energy = 0.0717806
C    -5.3566574    2.2331895    0.5287852 
C    -4.0944805    1.6555253   -0.1360861 
H    -6.2681952    1.7143714    0.1616310 
H    -5.4578967    3.3178245    0.3025072 
H    -5.3020531    2.1149457    1.6343478 
C    -2.8312576    2.4049352    0.3021962 
N    -4.0031045    0.2189016    0.1647441 
H    -4.1752509    1.7766338   -1.2402218 
H    -3.9113118    0.0771028    1.2008056 
H    -4.8778153   -0.2705627   -0.1387576 
O    -2.3232443    2.2051749    1.5808640 
O    -2.2111940    3.3471279   -0.5221441 
H    -2.6635986    3.4441752   -1.4174375 
