13
UFF-Energy = 0.068927
C    -5.1125083    2.2337786   -0.3592646 
C    -3.9699617    1.3074372    0.0776245 
H    -6.0173806    1.6436071   -0.6151313 
H    -4.8160839    2.8397514   -1.2428428 
H    -5.3664547    2.9308068    0.4710994 
C    -2.6650718    2.0676873    0.3187122 
N    -4.4062840    0.5881888    1.2824023 
H    -3.7639345    0.5801383   -0.7415247 
H    -5.1796537   -0.0715049    1.0307406 
H    -3.6181204   -0.0069498    1.6362235 
O    -2.6533001    3.4508586    0.4583543 
O    -1.4614558    1.3763084    0.3795028 
H    -1.1530204    1.1674752   -0.5578500 
