13
UFF-Energy = 0.0625553
C    -4.9598834    2.3318542    0.8109022 
C    -4.1766862    1.3987920   -0.1383485 
H    -5.2812771    1.8004295    1.7336992 
H    -5.8702998    2.7190799    0.3052472 
H    -4.3535329    3.2075625    1.1349337 
C    -2.8007525    1.9706745   -0.4928783 
N    -4.0823940    0.0674409    0.4832459 
H    -4.7236946    1.3183023   -1.1101349 
H    -5.0424753   -0.3500806    0.5503642 
H    -3.5460744   -0.5712752   -0.1531374 
O    -2.6368844    2.6463415   -1.6950341 
O    -1.7258452    1.8965817    0.3905823 
H    -1.9769103    1.3544627    1.2050539 
