13
UFF-Energy = 0.0502562
C    -5.3666083    2.1222770    0.1865175 
C    -4.0132479    1.4453276   -0.1182654 
H    -5.9350080    1.5648337    0.9626505 
H    -5.9881318    2.1705002   -0.7323162 
H    -5.2338391    3.1611699    0.5627059 
C    -2.8416560    2.4088098    0.0621355 
N    -3.8946060    0.2401334    0.7193792 
H    -3.9824703    1.1559602   -1.1955012 
H    -4.5441228   -0.4954490    0.3544071 
H    -2.9258754   -0.1534985    0.6383051 
O    -1.9580912    2.2883695    1.1296974 
O    -2.6609936    3.4424782   -0.8479404 
H    -1.8467095    3.9773011   -0.5729978 
