13
UFF-Energy = 0.0692223
C    -5.3039511    2.2232398    0.4330177 
C    -4.1085112    1.5567412   -0.2738573 
H    -6.2370831    1.6472728    0.2557249 
H    -5.4562174    3.2557561    0.0460715 
H    -5.1243388    2.2922380    1.5284695 
C    -2.7974527    2.3409040   -0.1155585 
N    -3.9766256    0.1729649    0.2073504 
H    -4.3112517    1.5398595   -1.3695494 
H    -3.8532854    0.1650793    1.2490890 
H    -4.8527078   -0.3611225   -0.0057101 
O    -2.8102835    3.6240729    0.4217865 
O    -1.5834595    1.8151176   -0.5558584 
H    -1.7002824    0.8734613   -0.9026665 
