13
UFF-Energy = 0.0720702
C    -5.2138812    2.2731384   -0.0661078 
C    -3.9078229    1.4443752    0.0142266 
H    -5.9429325    1.9842031    0.7209167 
H    -5.7020896    2.1285819   -1.0535292 
H    -5.0168519    3.3633076    0.0594794 
C    -2.6805721    2.3207405    0.2176633 
N    -4.0244407    0.4228238    1.0675896 
H    -3.7262214    0.9354456   -0.9641677 
H    -4.2266011    0.8830644    1.9884311 
H    -4.8273824   -0.2154515    0.8532798 
O    -1.8138706    2.5549089   -0.8410218 
O    -2.4558569    2.9571262    1.4310517 
H    -1.9989269    2.3041750    2.0510317 
