    13
 Energy =       0.1452892563
c    -3.7133889    1.6950595    0.3173519  0.00   -0.0407923    0.0582721    0.1526021
c    -2.4962693    2.6345192    0.2419999  0.00    0.1998748    0.1403231   -0.2923013
c    -4.9565486    2.3924193   -0.2155699  0.00    0.0113123    0.0010989    0.0085268
h    -4.7854386    2.7464192   -1.2386596  0.00   -0.0047290   -0.0040317    0.0185262
h    -5.2149185    3.2645991    0.3947669  0.00    0.0024707   -0.0127444   -0.0125142
h    -5.8205083    1.7195795   -0.2420919  0.00    0.0121327    0.0111874   -0.0052239
n    -3.4097890    0.4519539   -0.4549189  0.00    0.0249815   -0.0706930   -0.0150099
h    -3.8575589    1.4177196    1.3669296  0.00    0.1146515    0.0877481    0.0387820
h    -3.2072391   -0.2948399    0.2179739  0.00   -0.0167973    0.0302389   -0.0188861
h    -4.2689788    0.1396900   -0.9176007  0.00    0.0233457    0.0223581    0.0252558
o    -1.9513094    3.0041591   -0.7839488  0.00   -0.1318588   -0.0959369    0.2473676
o    -2.1005994    3.0267291    1.4825496  0.00   -0.0706681   -0.0559558    0.0049094
h    -2.6645092    2.5096893    2.1108994  0.00   -0.1239237   -0.1118648   -0.1520346
    13
 Energy =       0.0982744464
c    -3.7040638    1.6893475    0.3052968  0.00   -0.0060109    0.0251683    0.0625384
c    -2.5559319    2.6889400    0.2816028  0.00    0.0633797    0.0492469   -0.0945441
c    -5.0147524    2.3343239   -0.1679223  0.00    0.0048572    0.0011755    0.0025099
h    -4.8899633    2.7683379   -1.1840458  0.00   -0.0008927    0.0016414    0.0029223
h    -5.3268383    3.1486753    0.5220458  0.00   -0.0022600   -0.0006716   -0.0003590
h    -5.8311968    1.5838781   -0.1983699  0.00    0.0016255    0.0005642   -0.0009962
n    -3.3682401    0.5015641   -0.5173564  0.00    0.0139535   -0.0173955   -0.0037934
h    -3.8141874    1.3845978    1.3643336  0.00    0.0594936    0.0488651    0.0255261
h    -3.1032285   -0.2932106    0.1047469  0.00   -0.0045631    0.0042034   -0.0037001
h    -4.1851206    0.1681636   -1.0763539  0.00    0.0031728    0.0024200    0.0026314
o    -1.9468802    3.0540219   -0.8476381  0.00   -0.0420704   -0.0382010    0.0800366
o    -2.1523866    3.1698139    1.5067461  0.00   -0.0085024    0.0168841   -0.0219750
h    -2.5542664    2.5092435    2.1865958  0.00   -0.0821827   -0.0939008   -0.0507968
    13
 Energy =       0.0914659916
c    -3.6993493    1.6652374    0.2907143  0.00   -0.0014849    0.0226167    0.0501094
c    -2.5008631    2.6074702    0.2701104  0.00    0.0451498    0.0359756   -0.0655350
c    -5.0023767    2.4054960   -0.0760865  0.00    0.0007398    0.0027197   -0.0019267
h    -4.9216344    2.8470166   -1.0949741  0.00   -0.0007217    0.0010822    0.0008446
h    -5.2089423    3.2290711    0.6505520  0.00   -0.0028222    0.0038047    0.0037472
h    -5.8693498    1.7074369   -0.0587971  0.00   -0.0023640   -0.0011736   -0.0010116
n    -3.4735275    0.5076975   -0.6154394  0.00    0.0166934   -0.0135687   -0.0078843
h    -3.7662609    1.3076784    1.3419143  0.00    0.0455526    0.0366768    0.0223630
h    -3.2469075   -0.3489301   -0.0540062  0.00   -0.0014398   -0.0036422    0.0004920
h    -4.3278154    0.2712788   -1.1794557  0.00   -0.0043572   -0.0011503   -0.0036054
o    -1.8688670    2.9416471   -0.8764111  0.00   -0.0286022   -0.0270416    0.0558802
o    -2.0629273    3.0863288    1.4890674  0.00   -0.0039558    0.0152075   -0.0171873
h    -2.4982350    2.4802683    2.1924929  0.00   -0.0623877   -0.0715070   -0.0362863
    13
 Energy =       0.0868650552
c    -3.7080248    1.6627633    0.3043516  0.00   -0.0014537    0.0159719    0.0353259
c    -2.4833759    2.5724735    0.2959948  0.00    0.0304776    0.0254006   -0.0448639
c    -4.9784734    2.4236770   -0.1305355  0.00   -0.0006878    0.0020779   -0.0008788
h    -4.8551776    2.8226122   -1.1645755  0.00   -0.0002406    0.0014329   -0.0010980
h    -5.1820163    3.2800690    0.5572558  0.00   -0.0025267    0.0035698    0.0033011
h    -5.8633343    1.7488674   -0.1095075  0.00   -0.0019522   -0.0011388   -0.0004678
n    -3.4839809    0.4715135   -0.5537399  0.00    0.0241610    0.0042553   -0.0093214
h    -3.8288663    1.3454489    1.3665683  0.00    0.0326688    0.0265893    0.0187524
h    -3.4056606   -0.3968841    0.0487906  0.00    0.0012293   -0.0176024    0.0120175
h    -4.2872847    0.3067224   -1.2234368  0.00   -0.0155620   -0.0007846   -0.0114726
o    -1.8115130    2.8616703   -0.8562577  0.00   -0.0180911   -0.0188763    0.0368218
o    -2.0494533    3.0799880    1.5089314  0.00   -0.0017118    0.0125516   -0.0134280
h    -2.5098952    2.5287757    2.2358418  0.00   -0.0463108   -0.0534471   -0.0246883
    13
 Energy =       0.0821074440
c    -3.7321601    1.6617128    0.3144934  0.00   -0.0005012    0.0084621    0.0226613
c    -2.4574481    2.5065092    0.2915955  0.00    0.0157934    0.0155339   -0.0245599
c    -4.9450565    2.4730400   -0.1920149  0.00   -0.0010966    0.0028521    0.0008098
h    -4.7792946    2.7906362   -1.2517510  0.00    0.0010993    0.0024250   -0.0045232
h    -5.1025076    3.3882827    0.4325801  0.00   -0.0029795    0.0058612    0.0040451
h    -5.8733418    1.8577196   -0.1371262  0.00   -0.0036468   -0.0025304    0.0007502
n    -3.5572227    0.4263526   -0.4872502  0.00    0.0206780    0.0052386   -0.0062726
h    -3.9071101    1.3990918    1.3876821  0.00    0.0198069    0.0162231    0.0151585
h    -3.4166739   -0.4015868    0.1558413  0.00    0.0008391   -0.0144113    0.0104586
h    -4.4031293    0.2054136   -1.0842069  0.00   -0.0140765   -0.0040288   -0.0124161
o    -1.7487482    2.7029172   -0.8761500  0.00   -0.0062082   -0.0106920    0.0154134
o    -2.0106351    3.0727650    1.4789075  0.00    0.0039630    0.0133526   -0.0130955
h    -2.5137282    2.6248430    2.2470806  0.00   -0.0336710   -0.0382862   -0.0084296
    13
 Energy =       0.0800956236
c    -3.7210652    1.6555582    0.3148181  0.00   -0.0010676    0.0066919    0.0193838
c    -2.4818622    2.5541226    0.2893532  0.00    0.0090778    0.0098225   -0.0116765
c    -4.9679622    2.4218168   -0.1787677  0.00   -0.0012617    0.0032191    0.0005799
h    -4.8247626    2.7430441   -1.2400246  0.00    0.0009307    0.0020935   -0.0038297
h    -5.1484423    3.3323511    0.4444375  0.00   -0.0024383    0.0049572    0.0032776
h    -5.8737652    1.7750594   -0.1131165  0.00   -0.0035721   -0.0024116    0.0006681
n    -3.5033530    0.4351802   -0.4980065  0.00    0.0172956    0.0034435   -0.0054351
h    -3.8816796    1.3738917    1.3848542  0.00    0.0158369    0.0127719    0.0123777
h    -3.3341360   -0.3917266    0.1366576  0.00    0.0006524   -0.0121489    0.0086198
h    -4.3419608    0.1899525   -1.0923608  0.00   -0.0116242   -0.0033829   -0.0101773
o    -1.8442955    2.8616703   -0.9048682  0.00    0.0002879   -0.0053081    0.0029504
o    -2.0168351    3.1006667    1.4809535  0.00    0.0030820    0.0107814   -0.0099534
h    -2.5069364    2.6561100    2.2557515  0.00   -0.0271993   -0.0305293   -0.0067853
    13
 Energy =       0.0775746199
c    -3.7168642    1.6553539    0.3293139  0.00   -0.0024667    0.0012855    0.0099078
c    -2.4916980    2.5733785    0.2043685  0.00    0.0008292    0.0009247   -0.0032515
c    -4.9918635    2.3788122   -0.1486762  0.00   -0.0000459    0.0014500    0.0008378
h    -4.8980397    2.6469442   -1.2303219  0.00    0.0005093    0.0017273   -0.0042119
h    -5.1537370    3.3161165    0.4346767  0.00   -0.0008725    0.0030919    0.0023058
h    -5.8862415    1.7270048   -0.0138192  0.00   -0.0033789   -0.0025572    0.0003439
n    -3.5205723    0.4085459   -0.4415568  0.00    0.0131434    0.0085560   -0.0037904
h    -3.8372593    1.4123446    1.4150249  0.00    0.0077516    0.0057158    0.0083458
h    -3.2610665   -0.3776823    0.2136193  0.00    0.0016110   -0.0110783    0.0091659
h    -4.3954230    0.1007941   -0.9494907  0.00   -0.0127932   -0.0041778   -0.0101730
o    -1.9616326    2.8767696   -1.0497815  0.00    0.0036751    0.0000541   -0.0071090
o    -1.9402381    3.1744520    1.3396063  0.00    0.0091128    0.0128433   -0.0051632
h    -2.3924205    2.8148631    2.1767182  0.00   -0.0170752   -0.0178352    0.0027921
    13
 Energy =       0.0769624576
c    -3.7284045    1.6471477    0.3157293  0.00   -0.0041917    0.0006287    0.0094115
c    -2.4932097    2.5637116    0.2881336  0.00   -0.0001672   -0.0006341   -0.0029282
c    -4.9714049    2.3932311   -0.2119536  0.00   -0.0006138    0.0017673    0.0008417
h    -4.8248116    2.6700719   -1.2868005  0.00    0.0006173    0.0020213   -0.0055126
h    -5.1474061    3.3266806    0.3736056  0.00   -0.0008849    0.0031046    0.0024275
h    -5.8810200    1.7527956   -0.1244500  0.00   -0.0044609   -0.0030625    0.0004624
n    -3.5000685    0.4261580   -0.4872070  0.00    0.0156523    0.0138159   -0.0073737
h    -3.9086470    1.3678509    1.3859561  0.00    0.0067736    0.0050245    0.0105388
h    -3.1466681   -0.3502936    0.1421802  0.00    0.0045262   -0.0166556    0.0132441
h    -4.3945528    0.0683470   -0.9302328  0.00   -0.0178219   -0.0053422   -0.0119367
o    -1.8681474    2.8734828   -0.9241674  0.00    0.0064442    0.0014290   -0.0129649
o    -2.0315420    3.1626321    1.4681666  0.00    0.0127508    0.0163634   -0.0032909
h    -2.5511736    2.8058813    2.2707212  0.00   -0.0186240   -0.0184603    0.0070809
    13
 Energy =       0.0763247893
c    -3.7107884    1.6308421    0.3114167  0.00   -0.0045159    0.0003022    0.0063354
c    -2.5129879    2.5959299    0.3067432  0.00   -0.0008329   -0.0029063   -0.0069982
c    -4.9779283    2.3393107   -0.2089281  0.00   -0.0005537    0.0018992    0.0005279
h    -4.8415305    2.6257234   -1.2813755  0.00    0.0005416    0.0016176   -0.0043139
h    -5.1831463    3.2636209    0.3808231  0.00   -0.0008032    0.0028116    0.0020366
h    -5.8660555    1.6700276   -0.1243706  0.00   -0.0039579   -0.0026669    0.0004346
n    -3.4357069    0.4337004   -0.5121255  0.00    0.0137760    0.0115952   -0.0070919
h    -3.8833355    1.3230284    1.3741072  0.00    0.0046063    0.0029202    0.0081549
h    -3.0266806   -0.3284893    0.0985008  0.00    0.0043426   -0.0152065    0.0115698
h    -4.3219096    0.0336888   -0.9303123  0.00   -0.0154443   -0.0045625   -0.0098756
o    -1.8445898    2.8826079   -0.8868237  0.00    0.0049606    0.0008846   -0.0119319
o    -2.1390531    3.2730715    1.4801665  0.00    0.0131122    0.0170169    0.0017199
h    -2.7033438    2.9646344    2.2718596  0.00   -0.0152314   -0.0137053    0.0094324
    13
 Energy =       0.0752116056
c    -3.7492130    1.6421238    0.3057287  0.00   -0.0034652   -0.0027412    0.0039498
c    -2.4965245    2.5382169    0.3582264  0.00    0.0000768   -0.0038629   -0.0091588
c    -4.9494429    2.4186322   -0.2806277  0.00   -0.0021981    0.0046889    0.0003758
h    -4.7465379    2.6867046   -1.3487722  0.00    0.0008623    0.0022833   -0.0057319
h    -5.1298501    3.3591321    0.2912439  0.00   -0.0012069    0.0030089    0.0017095
h    -5.8790409    1.8011524   -0.2327617  0.00   -0.0057794   -0.0034569    0.0008339
n    -3.5033110    0.4329038   -0.5060791  0.00    0.0144759    0.0115217   -0.0060576
h    -3.9975410    1.3408994    1.3563576  0.00    0.0025306    0.0002436    0.0086822
h    -3.0519680   -0.3083371    0.0989185  0.00    0.0044378   -0.0135296    0.0109069
h    -4.4097126    0.0143654   -0.8586967  0.00   -0.0159586   -0.0059949   -0.0096708
o    -1.8075933    2.8449670   -0.8175255  0.00    0.0045261    0.0010470   -0.0104058
o    -2.0812901    3.1310554    1.5653402  0.00    0.0137571    0.0176051    0.0058521
h    -2.6450311    2.8058813    2.3483290  0.00   -0.0120583   -0.0108132    0.0087146
    13
 Energy =       0.0732889893
c    -3.7942722    1.6575571    0.2935299  0.00   -0.0000888   -0.0048291   -0.0002543
c    -2.5006013    2.4821584    0.4342342  0.00    0.0003058   -0.0037664   -0.0046638
c    -4.9080279    2.4905688   -0.3741033  0.00   -0.0029498    0.0046238    0.0000092
h    -4.6244933    2.7313748   -1.4291200  0.00    0.0007611    0.0016932   -0.0046369
h    -5.0727638    3.4448856    0.1747474  0.00   -0.0009386    0.0011928    0.0004277
h    -5.8693560    1.9256812   -0.3819345  0.00   -0.0043591   -0.0019920    0.0007759
n    -3.5668262    0.4463811   -0.5098884  0.00    0.0146692    0.0216301   -0.0073476
h    -4.1380863    1.3597549    1.3163321  0.00   -0.0011897   -0.0024602    0.0053324
h    -2.9853669   -0.2357053    0.0561304  0.00    0.0098263   -0.0129314    0.0131256
h    -4.4897344   -0.0411963   -0.7105691  0.00   -0.0228663   -0.0102834   -0.0075595
o    -1.7681386    2.8176535   -0.7024356  0.00    0.0024062    0.0009424   -0.0043101
o    -2.0703792    2.9723022    1.6769124  0.00    0.0070003    0.0092627    0.0059978
h    -2.6590101    2.6562808    2.4358458  0.00   -0.0025768   -0.0030824    0.0031036
    13
 Energy =       0.0720602854
c    -3.8281141    1.6755271    0.2836644  0.00    0.0007935   -0.0011942   -0.0006828
c    -2.5163916    2.4451654    0.5051595  0.00   -0.0015191   -0.0022610   -0.0020201
c    -4.8577651    2.5395197   -0.4590977  0.00   -0.0009325    0.0011763    0.0009207
h    -4.4919903    2.7636326   -1.4894889  0.00    0.0003406    0.0004408   -0.0020315
h    -5.0275976    3.4992227    0.0754576  0.00   -0.0000228   -0.0002903    0.0000381
h    -5.8305402    2.0067664   -0.5406876  0.00   -0.0015461   -0.0004535   -0.0000171
n    -3.6078299    0.4524367   -0.4992286  0.00    0.0015110    0.0003297    0.0008038
h    -4.2502731    1.4010115    1.2788089  0.00   -0.0007145   -0.0011854    0.0010263
h    -2.9597246   -0.1820350    0.0254396  0.00   -0.0008625    0.0001573    0.0005153
h    -4.5102117   -0.0700814   -0.6008759  0.00   -0.0003480    0.0004344   -0.0011257
o    -1.7416886    2.8167293   -0.5889301  0.00    0.0007676    0.0004124   -0.0010919
o    -2.0918142    2.8259429    1.7832196  0.00    0.0039934    0.0029489    0.0020379
h    -2.7331151    2.5338590    2.5062407  0.00   -0.0014604   -0.0005154    0.0016270
    13
 Energy =       0.0720132741
c    -3.8240935    1.6610649    0.2762196  0.00    0.0006173    0.0004062    0.0013554
c    -2.5027890    2.4116416    0.5047376  0.00   -0.0010826   -0.0014788   -0.0008830
c    -4.8605820    2.5640670   -0.4087675  0.00   -0.0015370    0.0006711   -0.0000038
h    -4.5111854    2.8309511   -1.4348310  0.00    0.0003554    0.0005152   -0.0022440
h    -5.0160912    3.5009528    0.1714701  0.00   -0.0002586    0.0009751    0.0007091
h    -5.8365480    2.0395235   -0.4982907  0.00   -0.0009826   -0.0003486   -0.0000747
n    -3.6326814    0.4696896   -0.5646300  0.00   -0.0002338    0.0010663   -0.0036726
h    -4.2256605    1.3471113    1.2686845  0.00   -0.0006313   -0.0009110    0.0015710
h    -2.9396739   -0.1735970   -0.1058903  0.00    0.0030011   -0.0030177    0.0025021
h    -4.5334194   -0.0633052   -0.6259391  0.00   -0.0017461    0.0000477   -0.0005241
o    -1.7020128    2.7481080   -0.5822591  0.00    0.0010577    0.0005441   -0.0016773
o    -2.0993435    2.8155465    1.7817493  0.00    0.0030500    0.0021068    0.0008970
h    -2.7629756    2.5559428    2.4974278  0.00   -0.0016095   -0.0005764    0.0020450
    13
 Energy =       0.0719289008
c    -3.8423338    1.6847032    0.2781532  0.00    0.0006076    0.0007093    0.0002033
c    -2.5167029    2.4260781    0.5087837  0.00   -0.0019060   -0.0017569   -0.0033042
c    -4.8521764    2.5745653   -0.4578743  0.00   -0.0006630    0.0003616    0.0000375
h    -4.4729972    2.8116318   -1.4792644  0.00    0.0002300    0.0002323   -0.0008120
h    -5.0165269    3.5273005    0.0921516  0.00   -0.0001997    0.0004762    0.0003370
h    -5.8280865    2.0541783   -0.5606195  0.00   -0.0001649    0.0000724    0.0000049
n    -3.6501505    0.4636118   -0.5176625  0.00    0.0009546    0.0001184   -0.0012742
h    -4.2713304    1.4120105    1.2704358  0.00   -0.0006626   -0.0006401    0.0007988
h    -2.9428960   -0.1523433   -0.0486391  0.00    0.0004598   -0.0005736    0.0004537
h    -4.5439970   -0.0837205   -0.5408859  0.00   -0.0010246   -0.0009927   -0.0001661
o    -1.7549944    2.8321436   -0.5840239  0.00    0.0011596    0.0005340   -0.0039633
o    -2.0621318    2.7358207    1.7974958  0.00    0.0025610    0.0017587    0.0043812
h    -2.6927324    2.4217169    2.5216307  0.00   -0.0013519   -0.0002996    0.0033033
    13
 Energy =       0.0718359421
c    -3.8544234    1.6999822    0.2774710  0.00   -0.0006734   -0.0001803   -0.0006530
c    -2.5068589    2.4029170    0.5062046  0.00   -0.0006143   -0.0004348   -0.0027433
c    -4.8414814    2.6167692   -0.4543207  0.00    0.0003159    0.0000788   -0.0001287
h    -4.4594446    2.8442195   -1.4755959  0.00   -0.0000685    0.0000243    0.0003392
h    -4.9770991    3.5732266    0.0963857  0.00   -0.0000216    0.0001850    0.0001530
h    -5.8318110    2.1230784   -0.5539208  0.00   -0.0003662   -0.0001863    0.0000388
n    -3.6996090    0.4745831   -0.5183841  0.00    0.0001160   -0.0001476   -0.0000677
h    -4.2891910    1.4414725    1.2695014  0.00   -0.0001641   -0.0001581   -0.0005022
h    -3.0047535   -0.1592947   -0.0557864  0.00    0.0001273   -0.0000714   -0.0001548
h    -4.6074529   -0.0481037   -0.5347585  0.00   -0.0001910   -0.0000212   -0.0000545
o    -1.7723592    2.8557265   -0.5843041  0.00   -0.0000746   -0.0003406   -0.0006157
o    -1.9984893    2.6201565    1.7919403  0.00    0.0017138    0.0011174    0.0033894
h    -2.6040830    2.2629638    2.5152488  0.00   -0.0000992    0.0001346    0.0009994
    13
 Energy =       0.0718564759
c    -3.8513586    1.6946050    0.2750523  0.00   -0.0004832    0.0000372   -0.0004034
c    -2.5034759    2.3969035    0.5033243  0.00   -0.0005293   -0.0003881   -0.0024607
c    -4.8477008    2.6225586   -0.4301233  0.00    0.0000784    0.0000901   -0.0001541
h    -4.4761207    2.8697516   -1.4509517  0.00   -0.0000039    0.0000808    0.0000740
h    -4.9803785    3.5684698    0.1395825  0.00   -0.0000742    0.0003655    0.0002491
h    -5.8377375    2.1282710   -0.5292985  0.00   -0.0003395   -0.0001607    0.0000360
n    -3.7014422    0.4843813   -0.5451178  0.00    0.0000117   -0.0002991   -0.0004804
h    -4.2753554    1.4161871    1.2666503  0.00   -0.0002196   -0.0001823   -0.0002111
h    -2.9997535   -0.1559676   -0.1016498  0.00    0.0003481   -0.0003244   -0.0000028
h    -4.6078843   -0.0407107   -0.5614331  0.00   -0.0001790   -0.0000418   -0.0000379
o    -1.7706123    2.8523338   -0.5871402  0.00   -0.0000666   -0.0003058   -0.0005610
o    -1.9946472    2.6136075    1.7886956  0.00    0.0015433    0.0010065    0.0030494
h    -2.6005893    2.2573062    2.5120909  0.00   -0.0000863    0.0001222    0.0009029
    13
 Energy =       0.0718797720
c    -3.8492075    1.6894972    0.2728787  0.00   -0.0003488    0.0001698   -0.0001666
c    -2.4978660    2.3849623    0.5012107  0.00   -0.0004702   -0.0003468   -0.0021852
c    -4.8482603    2.6309320   -0.4105137  0.00   -0.0000635    0.0000931   -0.0002116
h    -4.4837457    2.8924511   -1.4304549  0.00    0.0000137    0.0001034   -0.0000585
h    -4.9740575    3.5685259    0.1745258  0.00   -0.0000965    0.0004719    0.0003121
h    -5.8403598    2.1408457   -0.5097113  0.00   -0.0003208   -0.0001433    0.0000198
n    -3.7090904    0.4914307   -0.5669775  0.00   -0.0000989   -0.0003997   -0.0007492
h    -4.2657912    1.3965883    1.2635878  0.00   -0.0002234   -0.0001806   -0.0000579
h    -3.0046837   -0.1569895   -0.1395137  0.00    0.0004871   -0.0004731    0.0000981
h    -4.6166971   -0.0316235   -0.5831190  0.00   -0.0001652   -0.0000552   -0.0000350
o    -1.7593385    2.8306763   -0.5894443  0.00   -0.0000228   -0.0002506   -0.0005709
o    -1.9930700    2.6081569    1.7868364  0.00    0.0014468    0.0009367    0.0026988
h    -2.6048885    2.2622433    2.5103761  0.00   -0.0001374    0.0000744    0.0009062
    13
 Energy =       0.0718990805
c    -3.8472910    1.6847937    0.2710081  0.00   -0.0002584    0.0002436   -0.0000046
c    -2.4928406    2.3740129    0.4994298  0.00   -0.0004413   -0.0003233   -0.0019479
c    -4.8478650    2.6374923   -0.3943827  0.00   -0.0001462    0.0000943   -0.0002435
h    -4.4889255    2.9105140   -1.4133618  0.00    0.0000223    0.0001135   -0.0001335
h    -4.9674943    3.5681312    0.2030304  0.00   -0.0001059    0.0005214    0.0003421
h    -5.8418846    2.1513489   -0.4935598  0.00   -0.0003009   -0.0001287    0.0000082
n    -3.7158742    0.4969267   -0.5847767  0.00   -0.0001679   -0.0004468   -0.0008928
h    -4.2579252    1.3801251    1.2607440  0.00   -0.0002194   -0.0001760    0.0000328
h    -3.0094679   -0.1581030   -0.1707177  0.00    0.0005592   -0.0005513    0.0001561
h    -4.6245868   -0.0241889   -0.6005402  0.00   -0.0001527   -0.0000616   -0.0000326
o    -1.7474168    2.8075232   -0.5914810  0.00    0.0000338   -0.0001905   -0.0006185
o    -1.9935201    2.6065591    1.7853520  0.00    0.0013779    0.0008816    0.0023940
h    -2.6119641    2.2725617    2.5089370  0.00   -0.0002006    0.0000239    0.0009403
    13
 Energy =       0.0719133355
c    -3.8455484    1.6806246    0.2694060  0.00   -0.0001952    0.0002817    0.0000948
c    -2.4887306    2.3649927    0.4979146  0.00   -0.0004208   -0.0003061   -0.0017483
c    -4.8474865    2.6422299   -0.3809074  0.00   -0.0001924    0.0000928   -0.0002535
h    -4.4932269    2.9248486   -1.3989493  0.00    0.0000275    0.0001168   -0.0001763
h    -4.9621518    3.5669316    0.2266411  0.00   -0.0001082    0.0005345    0.0003501
h    -5.8429750    2.1591259   -0.4799838  0.00   -0.0002784   -0.0001153    0.0000013
n    -3.7211230    0.5014698   -0.5994566  0.00   -0.0002057   -0.0004598   -0.0009536
h    -4.2511430    1.3660582    1.2581841  0.00   -0.0002123   -0.0001701    0.0000881
h    -3.0128621   -0.1586465   -0.1967142  0.00    0.0005869   -0.0005838    0.0001860
h    -4.6305605   -0.0183669   -0.6147594  0.00   -0.0001396   -0.0000626   -0.0000296
o    -1.7368623    2.7868639   -0.5931548  0.00    0.0000770   -0.0001419   -0.0006529
o    -1.9949393    2.6072633    1.7840090  0.00    0.0013064    0.0008263    0.0021392
h    -2.6194469    2.2843019    2.5074523  0.00   -0.0002451   -0.0000126    0.0009547
    13
 Energy =       0.0719232210
c    -3.8440142    1.6770508    0.2680513  0.00   -0.0001505    0.0002964    0.0001511
c    -2.4854318    2.3577333    0.4966442  0.00   -0.0003997   -0.0002893   -0.0015754
c    -4.8472342    2.6456373   -0.3696958  0.00   -0.0002147    0.0000892   -0.0002500
h    -4.4969183    2.9362522   -1.3868703  0.00    0.0000303    0.0001156   -0.0001976
h    -4.9579615    3.5653107    0.2461410  0.00   -0.0001061    0.0005248    0.0003438
h    -5.8438170    2.1648104   -0.4686213  0.00   -0.0002552   -0.0001031   -0.0000026
n    -3.7251311    0.5052763   -0.6115239  0.00   -0.0002223   -0.0004516   -0.0009603
h    -4.2453427    1.3541912    1.2559366  0.00   -0.0002024   -0.0001625    0.0001196
h    -3.0151588   -0.1587194   -0.2182670  0.00    0.0005855   -0.0005859    0.0001977
h    -4.6349983   -0.0137967   -0.6263523  0.00   -0.0001270   -0.0000606   -0.0000264
o    -1.7279653    2.7693706   -0.5944618  0.00    0.0001041   -0.0001059   -0.0006624
o    -1.9966810    2.6089988    1.7827768  0.00    0.0012262    0.0007683    0.0019213
h    -2.6264021    2.2955814    2.5059238  0.00   -0.0002682   -0.0000353    0.0009411
    13
 Energy =       0.0719298011
c    -3.8427054    1.6740642    0.2669235  0.00   -0.0001187    0.0002957    0.0001789
c    -2.4828009    2.3519358    0.4955955  0.00   -0.0003758   -0.0002713   -0.0014218
c    -4.8470772    2.6481136   -0.3604620  0.00   -0.0002209    0.0000842   -0.0002387
h    -4.5000462    2.9453168   -1.3768628  0.00    0.0000313    0.0001112   -0.0002043
h    -4.9546811    3.5635883    0.2621012  0.00   -0.0001014    0.0005012    0.0003287
h    -5.8444787    2.1689978   -0.4592174  0.00   -0.0002326   -0.0000922   -0.0000046
n    -3.7282149    0.5084521   -0.6213561  0.00   -0.0002249   -0.0004308   -0.0009325
h    -4.2404714    1.3443487    1.2540089  0.00   -0.0001903   -0.0001534    0.0001350
h    -3.0167240   -0.1585017   -0.2359577  0.00    0.0005656   -0.0005683    0.0001980
h    -4.6383222   -0.0101900   -0.6357318  0.00   -0.0001151   -0.0000571   -0.0000234
o    -1.7206285    2.7549094   -0.5954519  0.00    0.0001180   -0.0000803   -0.0006501
o    -1.9984156    2.6110461    1.7816659  0.00    0.0011396    0.0007088    0.0017299
h    -2.6324899    2.3056157    2.5044258  0.00   -0.0002746   -0.0000478    0.0009048
    13
 Energy =       0.0719340642
c    -3.8416138    1.6716099    0.2659961  0.00   -0.0000960    0.0002853    0.0001888
c    -2.4807076    2.3473173    0.4947394  0.00   -0.0003498   -0.0002522   -0.0012833
c    -4.8469778    2.6499385   -0.3529240  0.00   -0.0002171    0.0000784   -0.0002235
h    -4.5026511    2.9525165   -1.3686529  0.00    0.0000309    0.0001050   -0.0002015
h    -4.9520989    3.5619488    0.2750629  0.00   -0.0000951    0.0004700    0.0003085
h    -5.8449985    2.1721225   -0.4515111  0.00   -0.0002111   -0.0000825   -0.0000056
n    -3.7306132    0.5110821   -0.6293076  0.00   -0.0002188   -0.0004034   -0.0008842
h    -4.2364420    1.3362912    1.2523855  0.00   -0.0001768   -0.0001431    0.0001397
h    -3.0178168   -0.1581343   -0.2503568  0.00    0.0005347   -0.0005388    0.0001913
h    -4.6408459   -0.0073311   -0.6432699  0.00   -0.0001041   -0.0000529   -0.0000207
o    -1.7146502    2.7431095   -0.5961900  0.00    0.0001227   -0.0000622   -0.0006222
o    -1.9999943    2.6130455    1.7806857  0.00    0.0010502    0.0006497    0.0015590
h    -2.6376461    2.3141803    2.5030240  0.00   -0.0002696   -0.0000534    0.0008536
    13
 Energy =       0.0719367811
c    -3.8407150    1.6696108    0.2652391  0.00   -0.0000793    0.0002694    0.0001879
c    -2.4790401    2.3436331    0.4940440  0.00   -0.0003227   -0.0002325   -0.0011578
c    -4.8469108    2.6513047   -0.3467988  0.00   -0.0002074    0.0000724   -0.0002067
h    -4.5047944    2.9582443   -1.3619544  0.00    0.0000297    0.0000978   -0.0001929
h    -4.9500500    3.5604757    0.2855503  0.00   -0.0000881    0.0004353    0.0002859
h    -5.8454059    2.1744895   -0.4452304  0.00   -0.0001911   -0.0000739   -0.0000059
n    -3.7324991    0.5132490   -0.6357165  0.00   -0.0002077   -0.0003730   -0.0008253
h    -4.2331388    1.3297410    1.2510344  0.00   -0.0001629   -0.0001323    0.0001377
h    -3.0186028   -0.1577088   -0.2620285  0.00    0.0004982   -0.0005030    0.0001807
h    -4.6427904   -0.0050536   -0.6493111  0.00   -0.0000941   -0.0000486   -0.0000183
o    -1.7098043    2.7335367   -0.5967376  0.00    0.0001214   -0.0000493   -0.0005850
o    -2.0013675    2.6148444    1.7798351  0.00    0.0009617    0.0005926    0.0014052
h    -2.6419372    2.3213301    2.5017557  0.00   -0.0002576   -0.0000548    0.0007945
    13
 Energy =       0.0719384977
c    -3.8399786    1.6679862    0.2646224  0.00   -0.0000668    0.0002509    0.0001808
c    -2.4777059    2.3406804    0.4934792  0.00   -0.0002959   -0.0002131   -0.0010441
c    -4.8468615    2.6523445   -0.3418217  0.00   -0.0001945    0.0000663   -0.0001895
h    -4.5065481    2.9628221   -1.3564928  0.00    0.0000280    0.0000902   -0.0001813
h    -4.9484092    3.5591924    0.2940414  0.00   -0.0000810    0.0003998    0.0002627
h    -5.8457253    2.1763109   -0.4401154  0.00   -0.0001727   -0.0000663   -0.0000058
n    -3.7339992    0.5150322   -0.6408875  0.00   -0.0001940   -0.0003422   -0.0007621
h    -4.2304386    1.3244235    1.2499161  0.00   -0.0001491   -0.0001214    0.0001319
h    -3.0191855   -0.1572780   -0.2714930  0.00    0.0004596   -0.0004647    0.0001682
h    -4.6443109   -0.0032277   -0.6541596  0.00   -0.0000850   -0.0000443   -0.0000163
o    -1.7058759    2.7257726   -0.5971450  0.00    0.0001166   -0.0000399   -0.0005432
o    -2.0025351    2.6163991    1.7791046  0.00    0.0008765    0.0005385    0.0012664
h    -2.6454822    2.3272389    2.5006327  0.00   -0.0002417   -0.0000538    0.0007325
    13
 Energy =       0.0719395778
c    -3.8393752    1.6666627    0.2641190  0.00   -0.0000571    0.0002313    0.0001703
c    -2.4766312    2.3382971    0.4930187  0.00   -0.0002700   -0.0001944   -0.0009411
c    -4.8468225    2.6531489   -0.3377630  0.00   -0.0001803    0.0000604   -0.0001729
h    -4.5079829    2.9665064   -1.3520262  0.00    0.0000260    0.0000826   -0.0001682
h    -4.9470820    3.5580915    0.3009450  0.00   -0.0000740    0.0003651    0.0002401
h    -5.8459765    2.1777347   -0.4359370  0.00   -0.0001559   -0.0000595   -0.0000056
n    -3.7352061    0.5165027   -0.6450785  0.00   -0.0001793   -0.0003121   -0.0006987
h    -4.2282276    1.3200939    1.2489909  0.00   -0.0001359   -0.0001109    0.0001239
h    -3.0196295   -0.1568688   -0.2791979  0.00    0.0004211   -0.0004262    0.0001551
h    -4.6455170   -0.0017524   -0.6580698  0.00   -0.0000767   -0.0000402   -0.0000145
o    -1.7026793    2.7194526   -0.5974506  0.00    0.0001098   -0.0000330   -0.0005001
o    -2.0035182    2.6177172    1.7784800  0.00    0.0007963    0.0004881    0.0011410
h    -2.6484083    2.3321102    2.4996507  0.00   -0.0002242   -0.0000513    0.0006708
    13
 Energy =       0.0719402559
c    -3.8388785    1.6655787    0.2637060  0.00   -0.0000494    0.0002120    0.0001584
c    -2.4757581    2.3363570    0.4926408  0.00   -0.0002455   -0.0001767   -0.0008480
c    -4.8467896    2.6537813   -0.3344335  0.00   -0.0001657    0.0000549   -0.0001571
h    -4.5091609    2.9694967   -1.3483534  0.00    0.0000240    0.0000753   -0.0001548
h    -4.9459975    3.5571533    0.3065937  0.00   -0.0000673    0.0003321    0.0002184
h    -5.8461753    2.1788647   -0.4325045  0.00   -0.0001406   -0.0000535   -0.0000053
n    -3.7361880    0.5177211   -0.6484978  0.00   -0.0001645   -0.0002837   -0.0006375
h    -4.2264085    1.3165489    1.2482236  0.00   -0.0001234   -0.0001008    0.0001150
h    -3.0199760   -0.1564931   -0.2855093  0.00    0.0003840   -0.0003889    0.0001420