    24
 Energy =       0.1399383485
c     0.0448833    2.3534058   -1.3813971  0.00   -0.0371458    0.0566763   -0.0571586
c     0.1418476    2.9248573   -0.1206726  0.00   -0.0432941    0.0990449   -0.0104576
c     0.7555652    2.2402731    0.9181560  0.00   -0.0059587    0.0578547    0.0791670
c     0.5800579    1.0803682   -1.5985351  0.00   -0.0072661   -0.0250999   -0.0652914
c     1.2047783    0.3610782   -0.5608861  0.00    0.0892495   -0.0847028    0.0468602
c     1.2772621    0.9610456    0.7017654  0.00    0.0250147   -0.0328901    0.0380796
o    -0.3596449    4.1638607    0.1435223  0.00    0.0654411   -0.0037970    0.0482104
h     0.3725708    4.7444238    0.4083143  0.00   -0.0444580   -0.0527795   -0.0304232
h     1.7275121    0.4624698    1.5506282  0.00   -0.0073597    0.0129518    0.0059890
h     0.4997167    0.6426498   -2.5929302  0.00   -0.0016044   -0.0095060   -0.0020961
h    -0.4370006    2.8749235   -2.2021886  0.00    0.0015578   -0.0086530   -0.0083061
h     0.8245662    2.6993933    1.9006814  0.00    0.0025324    0.0009590    0.0014877
c     1.7669373   -1.0073413   -0.8964724  0.00   -0.0214771   -0.0168283   -0.0552046
c     0.8861134   -2.0194266   -1.6556448  0.00    0.0383082    0.1180354   -0.0580668
h     2.1212937   -1.4658931    0.0371405  0.00   -0.0059526    0.0129768   -0.0091791
h     2.6645729   -0.8285312   -1.5058794  0.00   -0.0152230   -0.0034123    0.0057634
c     1.7481012   -3.2276699   -2.0845864  0.00    0.1063130   -0.3529669    0.1792862
o     2.0121944   -4.2017215   -1.3977638  0.00   -0.0629404    0.2366656   -0.1626173
o     2.2274762   -3.0566202   -3.3466422  0.00   -0.0313384    0.0302066    0.0235289
h     1.9686788   -3.8778597   -3.8368213  0.00   -0.0132896    0.0324036    0.0239093
n    -0.2697763   -2.5678537   -0.8742070  0.00   -0.0635102   -0.0453461    0.0120267
h     0.4960411   -1.5757973   -2.5789902  0.00   -0.0031828   -0.0065634    0.0195880
h    -0.1377783   -2.3090138    0.1103184  0.00    0.0003671    0.0029952   -0.0368332
h    -1.1177682   -2.0693246   -1.1533357  0.00    0.0352170   -0.0182246    0.0117376
    24
 Energy =       0.1154861934
c     0.0203567    2.3295899   -1.3629051  0.00   -0.0250953    0.0380015   -0.0386173
c     0.1313905    2.9047431   -0.1182525  0.00   -0.0295937    0.0631990   -0.0074372
c     0.7158738    2.2122692    0.9176114  0.00   -0.0041933    0.0385174    0.0538864
c     0.5318422    1.0608731   -1.5784925  0.00   -0.0048885   -0.0171927   -0.0443108
c     1.1381952    0.3455867   -0.5461963  0.00    0.0605961   -0.0569409    0.0320726
c     1.2154230    0.9379926    0.7063032  0.00    0.0174777   -0.0224641    0.0257343
o    -0.2995419    4.1902254    0.1083874  0.00    0.0409142    0.0011247    0.0332345
h     0.4812734    4.7487944    0.3401517  0.00   -0.0268744   -0.0344429   -0.0209589
h     1.6733131    0.4296800    1.5470033  0.00   -0.0049558    0.0086855    0.0039582
h     0.4638926    0.6364627   -2.5774740  0.00   -0.0011392   -0.0065242   -0.0015727
h    -0.4371497    2.8734315   -2.1834240  0.00    0.0008885   -0.0054573   -0.0059842
h     0.7976452    2.6776241    1.8957095  0.00    0.0016760    0.0008080    0.0010783
c     1.7471897   -1.0093853   -0.8520632  0.00   -0.0152531   -0.0114384   -0.0370402
c     0.9025007   -2.0253756   -1.6538540  0.00    0.0256135    0.0801576   -0.0397186
h     2.0667598   -1.4787719    0.0951201  0.00   -0.0039270    0.0090166   -0.0054196
h     2.6765265   -0.8114004   -1.4177235  0.00   -0.0090324   -0.0020968    0.0032902
c     1.7957811   -3.1906825   -2.1027129  0.00    0.0668217   -0.2438643    0.1250098
o     2.0851297   -4.2032070   -1.3875749  0.00   -0.0417912    0.1613996   -0.1127495
o     2.3625172   -3.0000385   -3.3361545  0.00    0.0025952    0.0536383    0.0332009
h     1.9373598   -3.7191066   -3.9251342  0.00   -0.0282498   -0.0079573   -0.0023728
n    -0.2557725   -2.5834041   -0.8955439  0.00   -0.0419087   -0.0320579    0.0078984
h     0.5313947   -1.5702387   -2.5846855  0.00   -0.0020158   -0.0046471    0.0130194
h    -0.1640625   -2.3384493    0.1047976  0.00    0.0000063    0.0024850   -0.0235871
h    -1.1196374   -2.1155166   -1.2093196  0.00    0.0223289   -0.0119496    0.0073860
    24
 Energy =       0.1136343555
c     0.0766058    2.3521358   -1.3338568  0.00   -0.0243695    0.0369150   -0.0371440
c     0.1950895    2.9210223   -0.0881070  0.00   -0.0282918    0.0594430   -0.0076106
c     0.7435691    2.2061249    0.9516988  0.00   -0.0038673    0.0367252    0.0523020
c     0.5546917    1.0708629   -1.5491658  0.00   -0.0047347   -0.0165918   -0.0430457
c     1.1280795    0.3335701   -0.5133651  0.00    0.0582693   -0.0550552    0.0309132
c     1.2077763    0.9190910    0.7414203  0.00    0.0171091   -0.0221129    0.0248751
o    -0.1727722    4.2298907    0.1310092  0.00    0.0366514    0.0027474    0.0315060
h     0.6400266    4.7464793    0.3622910  0.00   -0.0239811   -0.0319560   -0.0196663
h     1.6400494    0.3931310    1.5855577  0.00   -0.0045623    0.0080397    0.0041657
h     0.4887744    0.6588367   -2.5524628  0.00   -0.0011062   -0.0064591   -0.0016782
h    -0.3495615    2.9159166   -2.1585694  0.00    0.0005504   -0.0047474   -0.0062227
h     0.8322650    2.6673187    1.9311838  0.00    0.0016072    0.0008269    0.0010856
c     1.6998019   -1.0432011   -0.8068907  0.00   -0.0158283   -0.0091011   -0.0357320
c     0.8697103   -2.0106612   -1.6879478  0.00    0.0253986    0.0770328   -0.0398443
h     1.9322783   -1.5477697    0.1525049  0.00   -0.0027325    0.0065604   -0.0016097
h     2.6785119   -0.8706786   -1.3004469  0.00   -0.0051254   -0.0006577    0.0017584
c     1.7589150   -3.1709906   -2.1535716  0.00    0.0639087   -0.2359462    0.1204383
o     2.0626335   -4.1887959   -1.4440426  0.00   -0.0402417    0.1555754   -0.1087067
o     2.3100041   -2.9782546   -3.3947381  0.00    0.0042460    0.0549883    0.0338308
h     1.9334812   -3.7407179   -3.9643479  0.00   -0.0287812   -0.0106530   -0.0040926
n    -0.3259391   -2.5813956   -0.9956677  0.00   -0.0424917   -0.0338352    0.0067303
h     0.5433012   -1.5123673   -2.6149286  0.00   -0.0022482   -0.0034691    0.0107854
h    -0.2788180   -2.3761655    0.0186726  0.00    0.0000431    0.0027389   -0.0196622
h    -1.1702729   -2.0916857   -1.3326556  0.00    0.0205782   -0.0110082    0.0066242
    24
 Energy =       0.1101364318
c     0.0120690    2.3305285   -1.3373796  0.00   -0.0233714    0.0355371   -0.0354683
c     0.1211042    2.9015444   -0.0929111  0.00   -0.0265874    0.0556724   -0.0075997
c     0.6987594    2.2034868    0.9416335  0.00   -0.0035271    0.0348994    0.0502174
c     0.5189244    1.0618923   -1.5553044  0.00   -0.0045299   -0.0159808   -0.0413497
c     1.1154689    0.3399229   -0.5233761  0.00    0.0555719   -0.0525439    0.0296405
c     1.1923160    0.9284434    0.7291422  0.00    0.0165051   -0.0215409    0.0238102
o    -0.3050735    4.1932734    0.1323112  0.00    0.0323103    0.0035260    0.0296885
h     0.4840736    4.7549028    0.3486775  0.00   -0.0211173   -0.0292415   -0.0182845
h     1.6471542    0.4142088    1.5691383  0.00   -0.0041965    0.0074560    0.0042038
h     0.4556516    0.6466461   -2.5575809  0.00   -0.0010791   -0.0061511   -0.0016355
h    -0.4393371    2.8818688   -2.1574778  0.00    0.0003255   -0.0042186   -0.0061933
h     0.7796810    2.6665484    1.9208369  0.00    0.0015247    0.0008468    0.0010679
c     1.7273595   -1.0180866   -0.8213038  0.00   -0.0150873   -0.0089033   -0.0341883
c     0.9085056   -2.0138272   -1.6813882  0.00    0.0242815    0.0737410   -0.0380580
h     1.9962510   -1.5121182    0.1350804  0.00   -0.0023792    0.0057887   -0.0010488
h     2.6900921   -0.8162141   -1.3369562  0.00   -0.0042015   -0.0003384    0.0014265
c     1.8178980   -3.1581917   -2.1440929  0.00    0.0604965   -0.2259066    0.1160298
o     2.1328932   -4.1765314   -1.4312555  0.00   -0.0383076    0.1488046   -0.1040863
o     2.3983766   -2.9453734   -3.3702150  0.00    0.0060921    0.0562332    0.0343177
h     2.0922343   -3.7385902   -3.9426254  0.00   -0.0289550   -0.0138911   -0.0066811
n    -0.2684483   -2.5979182   -0.9696023  0.00   -0.0406865   -0.0329892    0.0066487
h     0.5627084   -1.5327300   -2.6115986  0.00   -0.0023377   -0.0031445    0.0100634
h    -0.2125647   -2.3815379    0.0426434  0.00    0.0000633    0.0026314   -0.0186329
h    -1.1278968   -2.1304514   -1.3028217  0.00    0.0191926   -0.0102867    0.0061119
    24
 Energy =       0.1073936760
c    -0.0461350    2.3104000   -1.3307948  0.00   -0.0222362    0.0339078   -0.0336672
c     0.0554623    2.8820793   -0.0873394  0.00   -0.0249838    0.0523529   -0.0073771
c     0.6531714    2.1965668    0.9427811  0.00   -0.0032716    0.0330883    0.0477928
c     0.4820064    1.0523068   -1.5514811  0.00   -0.0043140   -0.0152254   -0.0393650
c     1.0947826    0.3416669   -0.5229244  0.00    0.0526602   -0.0497485    0.0282636
c     1.1685410    0.9316773    0.7279624  0.00    0.0157581   -0.0206866    0.0226133
o    -0.4111748    4.1601541    0.1422854  0.00    0.0292231    0.0036620    0.0279893
h     0.3600658    4.7537103    0.3450298  0.00   -0.0190984   -0.0270220   -0.0171102
h     1.6402676    0.4263138    1.5643741  0.00   -0.0038845    0.0069477    0.0041117
h     0.4219889    0.6370150   -2.5537218  0.00   -0.0010356   -0.0057763   -0.0015662
h    -0.5148652    2.8529632   -2.1471497  0.00    0.0002064   -0.0038491   -0.0059947
h     0.7281156    2.6603898    1.9220199  0.00    0.0014403    0.0008365    0.0010296
c     1.7408051   -1.0000635   -0.8224833  0.00   -0.0141340   -0.0086609   -0.0322923
c     0.9475766   -2.0132939   -1.6867755  0.00    0.0229337    0.0701667   -0.0361173
h     2.0206255   -1.4909420    0.1327193  0.00   -0.0022162    0.0054145   -0.0009712
h     2.6996352   -0.7729061   -1.3360834  0.00   -0.0036907   -0.0002194    0.0012563
c     1.8843930   -3.1350392   -2.1471865  0.00    0.0567637   -0.2148271    0.1110728
o     2.2136646   -4.1553737   -1.4337491  0.00   -0.0361201    0.1412890   -0.0989569
o     2.4945529   -2.8957543   -3.3560085  0.00    0.0074077    0.0560247    0.0336023
h     2.2509874   -3.7063760   -3.9350833  0.00   -0.0283361   -0.0158841   -0.0083863
n    -0.2207066   -2.6191960   -0.9799611  0.00   -0.0386793   -0.0316435    0.0064337
h     0.5970983   -1.5392679   -2.6193776  0.00   -0.0023069   -0.0030094    0.0095460
h    -0.1731447   -2.4049586    0.0337482  0.00    0.0000176    0.0025084   -0.0176362
h    -1.0895127   -2.1703758   -1.3172268  0.00    0.0178965   -0.0096462    0.0057291
    24
 Energy =       0.1056225979
c    -0.1041798    2.2894475   -1.3186130  0.00   -0.0212765    0.0325193   -0.0321468
c    -0.0091007    2.8616017   -0.0760240  0.00   -0.0236845    0.0496930   -0.0071569
c     0.6052049    2.1871614    0.9503264  0.00   -0.0030809    0.0315905    0.0457193
c     0.4426232    1.0409425   -1.5418393  0.00   -0.0041367   -0.0145543   -0.0376632
c     1.0694236    0.3403055   -0.5162135  0.00    0.0501685   -0.0473492    0.0271499
c     1.1397974    0.9316718    0.7333323  0.00    0.0151251   -0.0199349    0.0215904
o    -0.5084050    4.1275365    0.1571367  0.00    0.0269266    0.0036713    0.0266091
h     0.2471933    4.7465821    0.3484447  0.00   -0.0176114   -0.0252825   -0.0161838
h     1.6262019    0.4346372    1.5666173  0.00   -0.0036273    0.0065304    0.0040177
h     0.3857903    0.6266918   -2.5443200  0.00   -0.0009941   -0.0054112   -0.0015076
h    -0.5871417    2.8242803   -2.1318372  0.00    0.0001225   -0.0035665   -0.0058024
h     0.6750203    2.6515602    1.9296050  0.00    0.0013695    0.0008217    0.0009948
c     1.7475875   -0.9856573   -0.8160902  0.00   -0.0132995   -0.0082873   -0.0304514
c     0.9897723   -2.0103828   -1.6996856  0.00    0.0218193    0.0671931   -0.0347066
h     2.0245016   -1.4783059    0.1392777  0.00   -0.0020961    0.0051966   -0.0008977
h     2.7093361   -0.7335290   -1.3136446  0.00   -0.0031279   -0.0000905    0.0010454
c     1.9594246   -3.1047361   -2.1562307  0.00    0.0534873   -0.2055484    0.1069697
o     2.3043687   -4.1267389   -1.4441134  0.00   -0.0341914    0.1348648   -0.0945925
o     2.5992882   -2.8337742   -3.3450801  0.00    0.0085180    0.0553906    0.0323703
h     2.4097405   -3.6514083   -3.9346504  0.00   -0.0275361   -0.0171160   -0.0095326
n    -0.1754928   -2.6447657   -1.0132159  0.00   -0.0373284   -0.0306615    0.0060908
h     0.6433828   -1.5376532   -2.6346919  0.00   -0.0022497   -0.0029847    0.0090914
h    -0.1460685   -2.4415196    0.0040954  0.00   -0.0000773    0.0024464   -0.0164685
h    -1.0500679   -2.2122511   -1.3590121  0.00    0.0167812   -0.0091306    0.0054614
    24
 Energy =       0.1048849514
c    -0.1636609    2.2668003   -1.3024849  0.00   -0.0205948    0.0315315   -0.0310507
c    -0.0741153    2.8399342   -0.0608174  0.00   -0.0227610    0.0478002   -0.0070018
c     0.5550102    2.1760559    0.9624228  0.00   -0.0029494    0.0305167    0.0442269
c     0.4001350    1.0270136   -1.5276840  0.00   -0.0040192   -0.0140353   -0.0364356
c     1.0401684    0.3359700   -0.5045059  0.00    0.0483083   -0.0455858    0.0264305
c     1.1072479    0.9293041    0.7437149  0.00    0.0146883   -0.0194034    0.0208454
o    -0.6010943    4.0947632    0.1750654  0.00    0.0253140    0.0036757    0.0256226
h     0.1402599    4.7347231    0.3577170  0.00   -0.0165826   -0.0240406   -0.0155292
h     1.6070913    0.4408085    1.5743513  0.00   -0.0034286    0.0062167    0.0039612
h     0.3456427    0.6139128   -2.5302801  0.00   -0.0009649   -0.0050624   -0.0014674
h    -0.6592429    2.7940448   -2.1131381  0.00    0.0000555   -0.0033574   -0.0056690
h     0.6205497    2.6413517    1.9415228  0.00    0.0013184    0.0008090    0.0009704
c     1.7490256   -0.9745459   -0.8034050  0.00   -0.0126950   -0.0077349   -0.0287737
c     1.0357139   -2.0053234   -1.7185632  0.00    0.0211233    0.0651549   -0.0340731
h     2.0117183   -1.4734835    0.1530057  0.00   -0.0019801    0.0050823   -0.0006841
h     2.7188971   -0.6972945   -1.2728663  0.00   -0.0023724    0.0001266    0.0007451
c     2.0430418   -3.0677445   -2.1685990  0.00    0.0508832   -0.1990692    0.1042570
o     2.4046179   -4.0904585   -1.4595284  0.00   -0.0326853    0.1301617   -0.0914330
o     2.7130044   -2.7595863   -3.3339422  0.00    0.0097106    0.0549172    0.0309207
h     2.5684937   -3.5751181   -3.9389598  0.00   -0.0268593   -0.0179668   -0.0103776
n    -0.1304831   -2.6743333   -1.0660363  0.00   -0.0369672   -0.0303655    0.0055919
h     0.7007117   -1.5289361   -2.6558906  0.00   -0.0021895   -0.0030669    0.0086538
h    -0.1268574   -2.4905115   -0.0438257  0.00   -0.0002399    0.0024578   -0.0150374
h    -1.0076747   -2.2556502   -1.4236994  0.00    0.0158876   -0.0087620    0.0053072
    24
 Energy =       0.1054122577
c    -0.2259701    2.2415282   -1.2836094  0.00   -0.0203001    0.0311088   -0.0305414
c    -0.1403928    2.8172012   -0.0433198  0.00   -0.0223153    0.0468708   -0.0069617
c     0.5027130    2.1642121    0.9776871  0.00   -0.0028796    0.0300054    0.0435562
c     0.3531563    1.0092233   -1.5095195  0.00   -0.0039899   -0.0137277   -0.0358810
c     1.0065998    0.3282403   -0.4880958  0.00    0.0472974   -0.0447232    0.0262564
c     1.0711381    0.9252532    0.7583690  0.00    0.0145332   -0.0191988    0.0204906
o    -0.6910336    4.0619558    0.1940186  0.00    0.0244116    0.0037309    0.0251374
h     0.0372477    4.7187939    0.3717266  0.00   -0.0160253   -0.0233755   -0.0152043
h     1.5837172    0.4462216    1.5869922  0.00   -0.0032972    0.0060298    0.0039772
h     0.2989955    0.5961667   -2.5115655  0.00   -0.0009648   -0.0047121   -0.0014516
h    -0.7334319    2.7605014   -2.0923650  0.00   -0.0000053   -0.0032248   -0.0056400
h     0.5652428    2.6314941    1.9560142  0.00    0.0012952    0.0008023    0.0009638
c     1.7444956   -0.9675086   -0.7840014  0.00   -0.0124510   -0.0069065   -0.0273121
c     1.0863421   -1.9983074   -1.7426845  0.00    0.0210527    0.0644556   -0.0345128
h     1.9809986   -1.4774908    0.1739167  0.00   -0.0018436    0.0050465   -0.0001792
h     2.7273522   -0.6652627   -1.2121287  0.00   -0.0012497    0.0005253    0.0003169
c     2.1368177   -3.0236290   -2.1817820  0.00    0.0491159   -0.1965308    0.1035948
o     2.5154004   -4.0456494   -1.4775504  0.00   -0.0317627    0.1278608   -0.0899614
o     2.8387668   -2.6712211   -3.3180782  0.00    0.0113604    0.0552354    0.0293984
h     2.7272468   -3.4741370   -3.9466940  0.00   -0.0265604   -0.0188160   -0.0111638
n    -0.0838602   -2.7084483   -1.1390459  0.00   -0.0380336   -0.0311343    0.0048186
h     0.7703322   -1.5131205   -2.6819880  0.00   -0.0021334   -0.0032879    0.0081872
h    -0.1133147   -2.5539457   -0.1113683  0.00   -0.0005284    0.0025412   -0.0131669
h    -0.9603585   -2.3003750   -1.5113542  0.00    0.0152737   -0.0085751    0.0052787
    24
 Energy =       0.1029255185
c    -0.1587430    2.2708776   -1.3035393  0.00   -0.0200511    0.0307105   -0.0301122
c    -0.0720761    2.8401590   -0.0605477  0.00   -0.0219688    0.0460930   -0.0069201
c     0.5573754    2.1747097    0.9609694  0.00   -0.0028090    0.0295348    0.0429807
c     0.4076879    1.0335819   -1.5317884  0.00   -0.0039870   -0.0133606   -0.0354045
c     1.0465945    0.3406435   -0.5100748  0.00    0.0462681   -0.0440470    0.0262346
c     1.1117942    0.9299028    0.7395068  0.00    0.0144269   -0.0189823    0.0201932
o    -0.6036396    4.0932704    0.1781113  0.00    0.0237540    0.0037861    0.0247116
h     0.1361743    4.7381383    0.3547122  0.00   -0.0156154   -0.0228750   -0.0149412
h     1.6121789    0.4392601    1.5688936  0.00   -0.0031704    0.0058604    0.0040185
h     0.3573800    0.6240363   -2.5361626  0.00   -0.0009361   -0.0042484   -0.0014727
h    -0.6544989    2.8001479   -2.1129482  0.00   -0.0000679   -0.0031031   -0.0056410
h     0.6206732    2.6372593    1.9414951  0.00    0.0012807    0.0007896    0.0009696
c     1.7583731   -0.9678440   -0.8132076  0.00   -0.0122882   -0.0052306   -0.0253658
c     1.0287180   -2.0067449   -1.7132372  0.00    0.0213593    0.0640499   -0.0358367
h     2.0384496   -1.4608900    0.1430288  0.00   -0.0014790    0.0049260    0.0009931
h     2.7219603   -0.6892718   -1.3020012  0.00    0.0007047    0.0012089   -0.0005979
c     2.0276619   -3.0762786   -2.1722063  0.00    0.0471459   -0.1947213    0.1037151
o     2.3905981   -4.1009597   -1.4608289  0.00   -0.0308848    0.1257574   -0.0887046
o     2.6916209   -2.7793308   -3.3482130  0.00    0.0138757    0.0563124    0.0269639
h     2.5684937   -3.6120943   -3.9368575  0.00   -0.0264179   -0.0203756   -0.0121710
n    -0.1342051   -2.6672744   -1.0392496  0.00   -0.0407714   -0.0329500    0.0036450
h     0.6828954   -1.5369721   -2.6512263  0.00   -0.0021427   -0.0036311    0.0073408
h    -0.1214323   -2.4686309   -0.0168049  0.00   -0.0008672    0.0028797   -0.0098885
h    -1.0158334   -2.2539991   -1.3942501  0.00    0.0146417   -0.0083835    0.0052900
    24
 Energy =       0.0975753763
c    -0.0991017    2.2930578   -1.3161069  0.00   -0.0183444    0.0280057   -0.0274998
c    -0.0134929    2.8521204   -0.0701795  0.00   -0.0200512    0.0420309   -0.0063312
c     0.6058056    2.1752068    0.9479327  0.00   -0.0025409    0.0269523    0.0392331
c     0.4588950    1.0557090   -1.5510953  0.00   -0.0036984   -0.0120588   -0.0323249
c     1.0856317    0.3517827   -0.5326684  0.00    0.0418558   -0.0401746    0.0242460
c     1.1504825    0.9291324    0.7204309  0.00    0.0132402   -0.0173054    0.0184475
o    -0.5353042    4.1093107    0.1733401  0.00    0.0213590    0.0033716    0.0224974
h     0.2117652    4.7529688    0.3330876  0.00   -0.0139793   -0.0207051   -0.0136077
h     1.6419814    0.4257309    1.5476647  0.00   -0.0028319    0.0052897    0.0037602
h     0.4127146    0.6529871   -2.5588919  0.00   -0.0008181   -0.0035888   -0.0014115
h    -0.5870381    2.8331180   -2.1229469  0.00   -0.0001055   -0.0027883   -0.0052149
h     0.6677658    2.6302726    1.9319667  0.00    0.0011743    0.0007303    0.0009208
c     1.7760581   -0.9660784   -0.8435212  0.00   -0.0109924   -0.0032352   -0.0216637
c     0.9783036   -2.0063789   -1.6851902  0.00    0.0200174    0.0590737   -0.0341169
h     2.0990617   -1.4469835    0.1065913  0.00   -0.0009440    0.0044516    0.0019500
h     2.7168588   -0.7091232   -1.3889809  0.00    0.0023711    0.0016430   -0.0014793
c     1.9218245   -3.1135625   -2.1718572  0.00    0.0414759   -0.1788736    0.0970895
o     2.2801596   -4.1431349   -1.4501945  0.00   -0.0279515    0.1145164   -0.0810327
o     2.5328678   -2.8751963   -3.3922133  0.00    0.0162147    0.0563374    0.0225741
h     2.4397669   -3.7525165   -3.9213963  0.00   -0.0247446   -0.0233353   -0.0133262
n    -0.1692060   -2.6179754   -0.9418157  0.00   -0.0406937   -0.0322330    0.0025623
h     0.5996267   -1.5459935   -2.6171228  0.00   -0.0022024   -0.0036583    0.0059833
h    -0.1184458   -2.3735587    0.0718540  0.00   -0.0009504    0.0031119   -0.0060491
h    -1.0587798   -2.2091989   -1.2851130  0.00    0.0131403   -0.0075583    0.0047937
    24
 Energy =       0.0905697168
c    -0.0464536    2.3086853   -1.3246051  0.00   -0.0152657    0.0231343   -0.0228456
c     0.0334369    2.8534788   -0.0751509  0.00   -0.0165587    0.0348519   -0.0052263
c     0.6438932    2.1655925    0.9368809  0.00   -0.0020548    0.0224250    0.0325006
c     0.5074211    1.0757510   -1.5696723  0.00   -0.0031434   -0.0099267   -0.0268110
c     1.1220933    0.3614085   -0.5568030  0.00    0.0343335   -0.0333443    0.0203521
c     1.1832758    0.9225938    0.7003684  0.00    0.0110300   -0.0142819    0.0153454
o    -0.4886698    4.1105567    0.1760659  0.00    0.0167212    0.0021852    0.0185674
h     0.2603491    4.7645083    0.3024328  0.00   -0.0106834   -0.0165726   -0.0112277
h     1.6673663    0.4050275    1.5235187  0.00   -0.0022873    0.0043357    0.0032245
h     0.4675227    0.6828212   -2.5819127  0.00   -0.0006289   -0.0027885   -0.0012793
h    -0.5287872    2.8603086   -2.1265786  0.00   -0.0001298   -0.0022808   -0.0043959
h     0.7004670    2.6101711    1.9259015  0.00    0.0009816    0.0006445    0.0008367
c     1.7962274   -0.9627505   -0.8741326  0.00   -0.0087380   -0.0012628   -0.0166194
c     0.9366655   -2.0000872   -1.6578546  0.00    0.0172451    0.0496994   -0.0294451
h     2.1601346   -1.4349897    0.0666377  0.00   -0.0003585    0.0036331    0.0025187
h     2.7117100   -0.7249282   -1.4709551  0.00    0.0034354    0.0017958   -0.0020983
c     1.8240833   -3.1372839   -2.1752953  0.00    0.0329152   -0.1496504    0.0830836
o     2.1864402   -4.1746453   -1.4404869  0.00   -0.0230508    0.0947072   -0.0671905
o     2.3741147   -2.9557209   -3.4373080  0.00    0.0168632    0.0549579    0.0170404
h     2.3439211   -3.8760708   -3.8993280  0.00   -0.0212171   -0.0271277   -0.0139102
n    -0.1872753   -2.5644913   -0.8471620  0.00   -0.0370422   -0.0289364    0.0017718
h     0.5239242   -1.5442094   -2.5799911  0.00   -0.0022132   -0.0033105    0.0042679
h    -0.1048853   -2.2713256    0.1538431  0.00   -0.0007587    0.0031806   -0.0021177
h    -1.0887746   -2.1727040   -1.1848394  0.00    0.0106054   -0.0060680    0.0036578
    24
 Energy =       0.0838577886
c     0.0079599    2.3230626   -1.3316793  0.00   -0.0114994    0.0170999   -0.0171998
c     0.0755724    2.8482776   -0.0768149  0.00   -0.0122045    0.0260353   -0.0038478
c     0.6731154    2.1463626    0.9282548  0.00   -0.0014045    0.0168936    0.0242528
c     0.5591548    1.0966102   -1.5893799  0.00   -0.0024791   -0.0073681   -0.0200912
c     1.1576426    0.3693788   -0.5828759  0.00    0.0252501   -0.0249555    0.0153640
c     1.2092737    0.9089336    0.6800746  0.00    0.0082987   -0.0105680    0.0115845
o    -0.4515896    4.1030022    0.1849728  0.00    0.0105844    0.0004199    0.0137989
h     0.2948812    4.7736099    0.2654006  0.00   -0.0062472   -0.0111871   -0.0083362
h     1.6827827    0.3737946    1.4985900  0.00   -0.0016150    0.0031627    0.0025906
h     0.5288146    0.7163906   -2.6071095  0.00   -0.0004080   -0.0019798   -0.0011385
h    -0.4666207    2.8889838   -2.1278380  0.00   -0.0001646   -0.0016585   -0.0034020
h     0.7187883    2.5762009    1.9242609  0.00    0.0007522    0.0005651    0.0008013
c     1.8159530   -0.9604537   -0.9057507  0.00   -0.0060236    0.0003573   -0.0111225
c     0.8993373   -1.9904760   -1.6315675  0.00    0.0136195    0.0378356   -0.0231249
h     2.2177363   -1.4268529    0.0233076  0.00    0.0001415    0.0026594    0.0026453
h     2.7046387   -0.7417590   -1.5491612  0.00    0.0038554    0.0017044   -0.0023792
c     1.7302209   -3.1529569   -2.1783720  0.00    0.0233459   -0.1131173    0.0644770
o     2.1009242   -4.1995527   -1.4287985  0.00   -0.0170981    0.0704420   -0.0500168
o     2.2153615   -3.0254932   -3.4761717  0.00    0.0151457    0.0502550    0.0106863
h     2.2644875   -3.9748817   -3.8732808  0.00   -0.0161255   -0.0288653   -0.0128654
n    -0.1947579   -2.5083318   -0.7563331  0.00   -0.0305202   -0.0240170    0.0013049
h     0.4534593   -1.5347237   -2.5409136  0.00   -0.0021251   -0.0026967    0.0025485
h    -0.0874487   -2.1622574    0.2274515  0.00   -0.0003580    0.0031528    0.0014278
h    -1.1114868   -2.1451721   -1.0926923  0.00    0.0072792   -0.0041696    0.0020424
    24
 Energy =       0.0786981624
c     0.0745593    2.3423671   -1.3389279  0.00   -0.0079404    0.0112366   -0.0120042
c     0.1207651    2.8412340   -0.0755189  0.00   -0.0080655    0.0175702   -0.0025335
c     0.6943875    2.1179692    0.9237492  0.00   -0.0006654    0.0114543    0.0164869
c     0.6208220    1.1214818   -1.6107490  0.00   -0.0019228   -0.0048190   -0.0138071
c     1.1935685    0.3751219   -0.6098137  0.00    0.0165952   -0.0168098    0.0103184
c     1.2263266    0.8862414    0.6617828  0.00    0.0056986   -0.0069970    0.0081328
o    -0.4099333    4.0935517    0.1995375  0.00    0.0050325   -0.0009812    0.0092725
h     0.3308496    4.7801064    0.2323209  0.00   -0.0023251   -0.0062468   -0.0056002
h     1.6802009    0.3278223    1.4765947  0.00   -0.0009004    0.0019561    0.0021540
h     0.6047336    0.7571967   -2.6350422  0.00   -0.0002174   -0.0013182   -0.0010817
h    -0.3844636    2.9276560   -2.1299176  0.00   -0.0002521   -0.0010053   -0.0025614
h     0.7216353    2.5273500    1.9291204  0.00    0.0005578    0.0005070    0.0009554
c     1.8314361   -0.9621381   -0.9382425  0.00   -0.0034193    0.0013351   -0.0062105
c     0.8614351   -1.9787441   -1.6087577  0.00    0.0097575    0.0260364   -0.0166611
h     2.2655838   -1.4262702   -0.0222756  0.00    0.0004451    0.0017599    0.0023474
h     2.6938500   -0.7647239   -1.6224870  0.00    0.0036925    0.0014223   -0.0023164
c     1.6356688   -3.1650647   -2.1789771  0.00    0.0148134   -0.0771704    0.0454040
o     2.0142755   -4.2199055   -1.4141618  0.00   -0.0113815    0.0469731   -0.0333051
o     2.0566084   -3.0888169   -3.5048282  0.00    0.0116727    0.0421083    0.0047754
h     2.1890420   -4.0504173   -3.8446872  0.00   -0.0106021   -0.0271950   -0.0103943
n    -0.2008930   -2.4501910   -0.6753520  0.00   -0.0226884   -0.0185745    0.0009735
h     0.3873242   -1.5183405   -2.5037464  0.00   -0.0019143   -0.0019758    0.0012250
h    -0.0761206   -2.0488414    0.2866933  0.00    0.0001043    0.0030798    0.0040064
h    -1.1334609   -2.1229486   -1.0127402  0.00    0.0039251   -0.0023462    0.0004237
    24
 Energy =       0.0747479506
c     0.1710278    2.3725889   -1.3582865  0.00   -0.0046286    0.0055899   -0.0075662
c     0.1785129    2.8377435   -0.0836611  0.00   -0.0043082    0.0094731   -0.0013741
c     0.7061760    2.0832241    0.9141343  0.00    0.0003062    0.0057292    0.0094717
c     0.7068857    1.1541249   -1.6420065  0.00   -0.0015885   -0.0019961   -0.0081770
c     1.2339432    0.3803797   -0.6426964  0.00    0.0083379   -0.0088007    0.0051249
c     1.2304117    0.8557459    0.6398313  0.00    0.0032167   -0.0036469    0.0051943
o    -0.3520026    4.0893461    0.2035386  0.00    0.0010941   -0.0013668    0.0047949
h     0.3811380    4.7886976    0.1964474  0.00    0.0001657   -0.0023598   -0.0029190
h     1.6466728    0.2662763    1.4542927  0.00   -0.0000526    0.0005358    0.0021843
h     0.7149006    0.8085082   -2.6733922  0.00   -0.0001192   -0.0008031   -0.0011799
h    -0.2563339    2.9842153   -2.1473196  0.00   -0.0004776   -0.0001861   -0.0020838
h     0.7007868    2.4657521    1.9308337  0.00    0.0004253    0.0004192    0.0015013
c     1.8416236   -0.9693431   -0.9719117  0.00   -0.0008223    0.0017868   -0.0018652
c     0.8179579   -1.9645600   -1.5872348  0.00    0.0053642    0.0148036   -0.0103566
h     2.2991343   -1.4336407   -0.0675222  0.00    0.0004822    0.0009217    0.0015474
h     2.6800838   -0.8016895   -1.6914806  0.00    0.0029894    0.0010040   -0.0018881
c     1.5302981   -3.1879455   -2.1521208  0.00    0.0068960   -0.0413088    0.0255501
o     1.9012717   -4.2405967   -1.3507635  0.00   -0.0058439    0.0236609   -0.0162526
o     1.8978553   -3.1853738   -3.4969709  0.00    0.0064636    0.0323475   -0.0001705
h     2.1248796   -4.1488715   -3.7681796  0.00   -0.0042300   -0.0242448   -0.0075745
n    -0.2236371   -2.3693554   -0.6058654  0.00   -0.0133225   -0.0137919   -0.0002283
h     0.3339572   -1.5002544   -2.4766793  0.00   -0.0012706   -0.0010615    0.0005449
h    -0.0999169   -1.8930950    0.3235711  0.00    0.0005973    0.0037364    0.0072261
h    -1.1674257   -2.0901806   -0.9629844  0.00    0.0003253   -0.0004417   -0.0015045
    24
 Energy =       0.0729506566
c     0.2868826    2.4101340   -1.3556463  0.00   -0.0029837    0.0032465   -0.0053696
c     0.2594830    2.8382151   -0.0695724  0.00   -0.0026124    0.0053643   -0.0011804