    27
 Energy =       0.3042848085
c    -1.4235396    2.6054793   -0.0667700  0.00   -0.0462920    0.0383276    0.0026570
c    -1.3072796    1.2134697   -0.1072300  0.00   -0.0853248   -0.0325590    0.0019227
c    -0.0178900    0.6711998   -0.1697000  0.00   -0.0891057   -0.1877060   -0.0007796
c    -0.2940599    3.4190890   -0.0891300  0.00   -0.0231801    0.0691101    0.0028234
c     0.9872197    2.8590292   -0.1560400  0.00    0.0105924    0.0641058    0.0008148
c     1.1340797    1.4562096   -0.1970299  0.00    0.0528546    0.0520547    0.0023950
n     0.3879399   -0.6395298   -0.2140799  0.00    0.1433751    0.1102569   -0.0046624
c     2.2666594    0.5727398   -0.2659299  0.00    0.1553982   -0.0689789   -0.0118942
c     1.7555995   -0.7123598   -0.2706899  0.00   -0.0738730   -0.1015087   -0.0024589
h    -0.2400399   -1.4313496   -0.2047299  0.00    0.0364244    0.0478692   -0.0001869
c     3.7030089    1.0223397   -0.3320099  0.00    0.0103290   -0.0486749   -0.0430225
c     4.7465686   -0.0024900    0.1378100  0.00   -0.0250455    0.1491174   -0.0440195
h     3.7978489    1.9290294    0.2803699  0.00   -0.0055298   -0.0076885   -0.0111140
h     3.9233889    1.3348996   -1.3618196  0.00   -0.0012076   -0.0143285    0.0137649
c     4.8964886   -1.0916697   -0.9404947  0.00    0.1844257   -0.3451326    0.0005021
n     4.3764788   -0.6892298    1.4261196  0.00   -0.0230154   -0.0838952    0.0474910
h     5.7313184    0.4619039    0.2668599  0.00   -0.0152642   -0.0109604    0.0068753
h     3.5102190   -0.2546209    1.7604995  0.00    0.0182959   -0.0066940   -0.0432702
h     4.0970388   -1.6495395    1.1968197  0.00    0.0115846    0.0427280   -0.0280068
h    -2.4108593    3.0588691   -0.0157800  0.00   -0.0008286    0.0002588    0.0000953
h    -2.1896094    0.5822398   -0.0890100  0.00   -0.0036157    0.0037657    0.0001468
h    -0.4052699    4.5000487   -0.0535400  0.00    0.0008792    0.0002443    0.0003571
h     1.8590495    3.5066790   -0.1715100  0.00   -0.0005999    0.0026604    0.0008111
h     2.2327294   -1.6813195   -0.3062999  0.00   -0.0187279   -0.0107767   -0.0171346
o     5.6946284   -2.0136594   -0.9120977  0.00   -0.1850874    0.2252745   -0.0078857
o     4.0108389   -0.9035257   -1.9557794  0.00   -0.0219280    0.0818397    0.0831785
h     3.4430990   -1.7173295   -1.9546094  0.00   -0.0055333    0.0312902    0.0506002
    27
 Energy =       0.2750484679
c    -1.4747293    2.4764863   -0.0165361  0.00   -0.0399622    0.0332270    0.0022739
c    -1.3229109    1.0914512   -0.0636624  0.00   -0.0736704   -0.0281234    0.0016822
c    -0.0262490    0.5834919   -0.1278724  0.00   -0.0777037   -0.1605604   -0.0003386
c    -0.3690570    3.3171455   -0.0374005  0.00   -0.0197276    0.0598292    0.0023930
c     0.9196187    2.7911640   -0.1090352  0.00    0.0099058    0.0551414    0.0006176
c     1.0942566    1.3999192   -0.1544029  0.00    0.0446291    0.0458447    0.0019151
n     0.4162154   -0.7271014   -0.2007528  0.00    0.1217935    0.0945273   -0.0038982
c     2.2465249    0.5706903   -0.2425782  0.00    0.1326492   -0.0586933   -0.0099958
c     1.7954410   -0.7300818   -0.2753161  0.00   -0.0627225   -0.0863954   -0.0020062
h    -0.1753045   -1.5540713   -0.1980789  0.00    0.0302696    0.0392339   -0.0002695
c     3.6596171    1.0919442   -0.3411732  0.00    0.0092695   -0.0403052   -0.0373910
c     4.7627936    0.1111208    0.0886430  0.00   -0.0202923    0.1271183   -0.0396755
h     3.7322004    1.9949171    0.2834764  0.00   -0.0049624   -0.0061216   -0.0095048
h     3.8338515    1.4289856   -1.3755050  0.00   -0.0008619   -0.0114095    0.0107640
c     4.9142885   -0.9702687   -0.9887210  0.00    0.1575923   -0.2961192    0.0003330
n     4.4641762   -0.5689617    1.3960420  0.00   -0.0172301   -0.0740417    0.0419050
h     5.7342476    0.6206570    0.1720442  0.00   -0.0112392   -0.0085925    0.0059065
h     3.6183476   -0.1355437    1.7932763  0.00    0.0126756   -0.0049615   -0.0352419
h     4.1884764   -1.5403014    1.1962297  0.00    0.0095756    0.0359994   -0.0239709
h    -2.4736380    2.9042904    0.0360109  0.00   -0.0010873    0.0004129    0.0001009
h    -2.1879302    0.4361792   -0.0524597  0.00   -0.0034916    0.0029677    0.0001245
h    -0.5077409    4.3951984    0.0008691  0.00    0.0007365    0.0006167    0.0003170
h     1.7759799    3.4594019   -0.1287812  0.00   -0.0001024    0.0023849    0.0006860
h     2.3344345   -1.6660793   -0.3730335  0.00   -0.0130067   -0.0126691   -0.0156828
o     5.7391489   -1.9004944   -0.9427978  0.00   -0.1583894    0.1933454   -0.0062394
o     4.0370102   -0.8050265   -2.0199372  0.00   -0.0141234    0.0784946    0.0718550
h     3.5365852   -1.6685106   -2.0843491  0.00   -0.0105233    0.0188494    0.0433409
    27
 Energy =       0.2467404541
c    -1.5206091    2.3448525    0.0338135  0.00   -0.0320412    0.0268404    0.0017750
c    -1.3313148    0.9694914   -0.0145480  0.00   -0.0591511   -0.0225008    0.0012526
c    -0.0298626    0.4981324   -0.0871313  0.00   -0.0628649   -0.1279702   -0.0007104
c    -0.4410385    3.2120976    0.0066250  0.00   -0.0154971    0.0481870    0.0018807
c     0.8534349    2.7214677   -0.0737190  0.00    0.0087785    0.0439943    0.0004412
c     1.0558467    1.3437228   -0.1212684  0.00    0.0347987    0.0376356    0.0014635
n     0.4452326   -0.8130113   -0.1611644  0.00    0.0937993    0.0755973   -0.0015061
c     2.2234634    0.5705739   -0.2298287  0.00    0.1055434   -0.0465373   -0.0074106
c     1.8321969   -0.7420998   -0.2887675  0.00   -0.0481768   -0.0678692   -0.0024148
h    -0.1111801   -1.6722538   -0.1399169  0.00    0.0232194    0.0293131   -0.0000244
c     3.6123379    1.1583557   -0.3432663  0.00    0.0073252   -0.0311519   -0.0300123
c     4.7677524    0.2173943    0.0443706  0.00   -0.0150334    0.1006094   -0.0330330
h     3.6617984    2.0488607    0.3059319  0.00   -0.0042892   -0.0042033   -0.0073291
h     3.7499235    1.5287006   -1.3753601  0.00   -0.0005239   -0.0081973    0.0077030
c     4.9348661   -0.8433003   -1.0420882  0.00    0.1249563   -0.2359172    0.0010716
n     4.5336216   -0.4621074    1.3608765  0.00   -0.0115294   -0.0607896    0.0337301
h     5.7208572    0.7721958    0.0950361  0.00   -0.0074964   -0.0061038    0.0045508
h     3.7087748   -0.0349243    1.8176607  0.00    0.0074887   -0.0031028   -0.0263446
h     4.2701558   -1.4456081    1.1845658  0.00    0.0074373    0.0280986   -0.0191621
h    -2.5306216    2.7455373    0.0927696  0.00   -0.0012978    0.0005369    0.0001006
h    -2.1767801    0.2889307    0.0025457  0.00   -0.0032286    0.0020742    0.0001025
h    -0.6079481    4.2864612    0.0451252  0.00    0.0005669    0.0009197    0.0002641
h     1.6928784    3.4107925   -0.1033435  0.00    0.0004050    0.0020324    0.0005388
h     2.4298414   -1.6375878   -0.4518632  0.00   -0.0064850   -0.0134315   -0.0143669
o     5.7906549   -1.7848166   -0.9808404  0.00   -0.1255827    0.1541208   -0.0045247
o     4.0845882   -0.6896130   -2.1034682  0.00   -0.0076481    0.0697078    0.0576698
h     3.6467842   -1.5856425   -2.2385483  0.00   -0.0134733    0.0081074    0.0342946
    27
 Energy =       0.2306744782
c    -1.4973869    2.3888105    0.0455910  0.00   -0.0271661    0.0226005    0.0015063
c    -1.3242838    1.0171097   -0.0335792  0.00   -0.0498077   -0.0197182    0.0010556
c    -0.0337812    0.5321239   -0.0929284  0.00   -0.0514809   -0.1029643    0.0010318
c    -0.4079163    3.2399268    0.0532825  0.00   -0.0127690    0.0408814    0.0014592
c     0.8778649    2.7342309   -0.0168749  0.00    0.0074944    0.0373949    0.0002198
c     1.0585928    1.3597080   -0.0880904  0.00    0.0294920    0.0322738    0.0011989
n     0.4071577   -0.7884229   -0.2478418  0.00    0.0762023    0.0597110   -0.0030984
c     2.2115731    0.5807713   -0.1987967  0.00    0.0893019   -0.0381904   -0.0060865
c     1.8075639   -0.7240275   -0.2953735  0.00   -0.0361502   -0.0554244   -0.0013960
h    -0.1701324   -1.6399215   -0.2986700  0.00    0.0168461    0.0209021   -0.0006364
c     3.6118393    1.1485173   -0.3205356  0.00    0.0061089   -0.0261725   -0.0254120
c     4.7590554    0.1840190    0.0398440  0.00   -0.0119867    0.0845628   -0.0281260
h     3.6870292    2.0344970    0.3346755  0.00   -0.0035547   -0.0032803   -0.0059480
h     3.7429227    1.5148513   -1.3564869  0.00   -0.0003506   -0.0071770    0.0063201
c     4.8913182   -0.8802219   -1.0463032  0.00    0.1055906   -0.1989300    0.0013432
n     4.5479637   -0.4733425    1.3682126  0.00   -0.0095900   -0.0502951    0.0287941
h     5.7226530    0.7260349    0.0617322  0.00   -0.0058120   -0.0049355    0.0038059
h     3.7271465   -0.0491143    1.8390092  0.00    0.0061375   -0.0026106   -0.0220669
h     4.2998933   -1.4684979    1.2202752  0.00    0.0058298    0.0226850   -0.0160688
h    -2.5032412    2.8010237    0.0941197  0.00   -0.0012641    0.0004073    0.0000914
h    -2.1780956    0.3459806   -0.0599169  0.00   -0.0034776    0.0009805    0.0000241
h    -0.5610136    4.3156664    0.1107013  0.00    0.0005231    0.0010768    0.0002227
h     1.7276190    3.4117734   -0.0205581  0.00    0.0006704    0.0020531    0.0004347
h     2.4066768   -1.6148173   -0.4719739  0.00   -0.0046048   -0.0110112   -0.0131332
o     5.7603020   -1.8360062   -0.9977012  0.00   -0.1057859    0.1289802   -0.0039121
o     4.0068010   -0.7556934   -2.0883422  0.00   -0.0046182    0.0771172    0.0519134
h     3.6875328   -1.6983772   -2.2992718  0.00   -0.0157786   -0.0109171    0.0264630
    27
 Energy =       0.2114098282
c    -1.5189056    2.3160157    0.0887382  0.00   -0.0186158    0.0157390    0.0009668
c    -1.3252199    0.9539874    0.0031261  0.00   -0.0344100   -0.0135243    0.0006660
c    -0.0371850    0.4902778   -0.0663759  0.00   -0.0355897   -0.0709706    0.0004387
c    -0.4448036    3.1787511    0.0945109  0.00   -0.0086774    0.0282383    0.0009260
c     0.8407091    2.6920284    0.0151194  0.00    0.0055006    0.0256861    0.0000869
c     1.0322629    1.3288901   -0.0638182  0.00    0.0198966    0.0226518    0.0008102
n     0.4114902   -0.8348465   -0.2196712  0.00    0.0507622    0.0410862   -0.0012647
c     2.1871046    0.5854715   -0.1888679  0.00    0.0617978   -0.0264028   -0.0038283
c     1.8179906   -0.7221122   -0.3029074  0.00   -0.0237815   -0.0377936   -0.0015997
h    -0.1518581   -1.7024744   -0.2571504  0.00    0.0114747    0.0138847   -0.0003444
c     3.5762254    1.1852200   -0.3131338  0.00    0.0038481   -0.0184719   -0.0178469
c     4.7505139    0.2343090    0.0050924  0.00   -0.0074924    0.0583147   -0.0203148
h     3.6471001    2.0541835    0.3689368  0.00   -0.0026158   -0.0018565   -0.0038054
h     3.6857518    1.5808996   -1.3437846  0.00   -0.0001931   -0.0047313    0.0038059
c     4.8947359   -0.8067863   -1.0966856  0.00    0.0717900   -0.1370982    0.0021469
n     4.5898826   -0.4209637    1.3368098  0.00   -0.0053681   -0.0350240    0.0198636
h     5.7014486    0.8040781    0.0045030  0.00   -0.0034073   -0.0030937    0.0024806
h     3.7841593   -0.0095179    1.8518684  0.00    0.0027613   -0.0013749   -0.0142445
h     4.3671891   -1.4294158    1.2098990  0.00    0.0038726    0.0146932   -0.0111150
h    -2.5302211    2.7131754    0.1450853  0.00   -0.0010158    0.0003706    0.0000649
h    -2.1671672    0.2685028   -0.0189495  0.00   -0.0025559    0.0005975    0.0000116
h    -0.6122617    4.2519513    0.1570771  0.00    0.0003574    0.0008664    0.0001553
h     1.6818494    3.3796916    0.0075328  0.00    0.0006123    0.0013905    0.0002997
h     2.4530906   -1.5814440   -0.5133631  0.00   -0.0008923   -0.0087108   -0.0109240
o     5.7966480   -1.7730508   -1.0435645  0.00   -0.0722053    0.0890630   -0.0026737
o     4.0363867   -0.6905846   -2.1678036  0.00   -0.0007536    0.0633399    0.0384443
h     3.7987382   -1.6396347   -2.4580250  0.00   -0.0150995   -0.0168693    0.0167941
    27
 Energy =       0.1995975909
c    -1.5314465    2.2772716    0.1328956  0.00   -0.0119746    0.0102900    0.0005513
c    -1.3265577    0.9230384    0.0359355  0.00   -0.0222854   -0.0087230    0.0003953
c    -0.0425936    0.4718852   -0.0448196  0.00   -0.0230194   -0.0459729    0.0003221
c    -0.4662623    3.1450069    0.1392860  0.00   -0.0055947    0.0182803    0.0005075
c     0.8173895    2.6687890    0.0491123  0.00    0.0036767    0.0165895   -0.0000060
c     1.0126005    1.3140407   -0.0413164  0.00    0.0126856    0.0147775    0.0005346
n     0.4049063   -0.8570163   -0.2064456  0.00    0.0323446    0.0265155   -0.0006552
c     2.1649006    0.5921734   -0.1781622  0.00    0.0402361   -0.0171882   -0.0023098
c     1.8153833   -0.7150174   -0.3024353  0.00   -0.0149487   -0.0243897   -0.0013005
h    -0.1536037   -1.7322213   -0.2433820  0.00    0.0074668    0.0088920   -0.0002170
c     3.5499680    1.2052258   -0.3053531  0.00    0.0021812   -0.0124824   -0.0118897
c     4.7387077    0.2554828   -0.0263889  0.00   -0.0041900    0.0380680   -0.0138636
h     3.6265537    2.0586572    0.3982367  0.00   -0.0017606   -0.0009444   -0.0022298
h     3.6433014    1.6231222   -1.3308560  0.00   -0.0001251   -0.0030571    0.0021015
c     4.8900985   -0.7656752   -1.1445456  0.00    0.0453686   -0.0889537    0.0022086
n     4.6196550   -0.3986134    1.3066304  0.00   -0.0026827   -0.0222111    0.0129718
h     5.6811633    0.8423575   -0.0439119  0.00   -0.0019274   -0.0018649    0.0015286
h     3.8192532   -0.0083683    1.8510030  0.00    0.0009522   -0.0007054   -0.0086709
h     4.4325465   -1.4198173    1.1957837  0.00    0.0023417    0.0081861   -0.0071550
h    -2.5453426    2.6657811    0.1982328  0.00   -0.0007281    0.0002932    0.0000411
h    -2.1613262    0.2294384    0.0144204  0.00   -0.0017027    0.0003638    0.0000046
h    -0.6410136    4.2163399    0.2107392  0.00    0.0002176    0.0006296    0.0000989
h     1.6541845    3.3612521    0.0412424  0.00    0.0004353    0.0008797    0.0001925
h     2.4725872   -1.5538265   -0.5241581  0.00    0.0005783   -0.0059234   -0.0083258
o     5.8235365   -1.7350093   -1.0957834  0.00   -0.0460492    0.0577133   -0.0019224
o     4.0486166   -0.6574022   -2.2349834  0.00    0.0016067    0.0564225    0.0306957
h     3.9184482   -1.6002929   -2.6167781  0.00   -0.0131028   -0.0254847    0.0063913
    27
 Energy =       0.1925100190
c    -1.5518611    2.2323473    0.1747088  0.00   -0.0068006    0.0060039    0.0002489
c    -1.3327599    0.8856494    0.0632795  0.00   -0.0127216   -0.0049691    0.0001962
c    -0.0504545    0.4502123   -0.0312394  0.00   -0.0130355   -0.0262210    0.0002567
c    -0.4972699    3.1084238    0.1824872  0.00   -0.0031764    0.0104636    0.0002051
c     0.7866977    2.6462038    0.0793828  0.00    0.0022479    0.0094261   -0.0000560
c     0.9900988    1.2992694   -0.0256583  0.00    0.0071392    0.0084125    0.0003405
n     0.4015458   -0.8796564   -0.2006119  0.00    0.0179718    0.0149540   -0.0003263
c     2.1429015    0.5988795   -0.1713305  0.00    0.0230660   -0.0099162   -0.0012075
c     1.8143924   -0.7090512   -0.3013632  0.00   -0.0081166   -0.0137585   -0.0009029
h    -0.1500962   -1.7626424   -0.2394326  0.00    0.0042554    0.0049302   -0.0001344
c     3.5238144    1.2258731   -0.2912989  0.00    0.0009758   -0.0075532   -0.0069640
c     4.7254756    0.2782794   -0.0480145  0.00   -0.0020137    0.0223341   -0.0080570
h     3.6007003    2.0606060    0.4366423  0.00   -0.0010584   -0.0001896   -0.0009754
h     3.6068528    1.6705130   -1.3080079  0.00   -0.0000444   -0.0016439    0.0007949
c     4.9004722   -0.7138062   -1.1902335  0.00    0.0238238   -0.0505862    0.0023650
n     4.6376510   -0.3883460    1.2784099  0.00   -0.0001288   -0.0111440    0.0071490
h     5.6569807    0.8849559   -0.0661038  0.00   -0.0009111   -0.0008694    0.0007710
h     3.8263513   -0.0392828    1.8389873  0.00   -0.0007893    0.0000105   -0.0040469
h     4.5059385   -1.4218269    1.1685855  0.00    0.0011183    0.0020375   -0.0041686
h    -2.5691448    2.6093869    0.2512744  0.00   -0.0005347    0.0002465    0.0000276
h    -2.1588485    0.1821593    0.0425052  0.00   -0.0010419    0.0001665    0.0000003
h    -0.6820157    4.1771411    0.2657995  0.00    0.0000938    0.0004834    0.0000597
h     1.6173232    3.3457934    0.0734322  0.00    0.0002977    0.0005118    0.0001083
h     2.4940322   -1.5298672   -0.5179000  0.00    0.0011062   -0.0035308   -0.0055028
o     5.8782778   -1.6669264   -1.1535925  0.00   -0.0245252    0.0323151   -0.0016999
o     4.0791052   -0.6118895   -2.3009782  0.00    0.0018220    0.0495279    0.0253886
h     4.0694937   -1.5257961   -2.7755312  0.00   -0.0090196   -0.0314418   -0.0038704
    27
 Energy =       0.1906691503
c    -1.5956724    2.1491928    0.1623973  0.00   -0.0053340    0.0045100    0.0002139
c    -1.3471856    0.8106147    0.0295375  0.00   -0.0094455   -0.0039814    0.0001643
c    -0.0570618    0.4041960   -0.0617591  0.00   -0.0096163   -0.0190902    0.0003344
c    -0.5600701    3.0462170    0.1947503  0.00   -0.0021712    0.0080697    0.0001560
c     0.7329274    2.6125021    0.0958699  0.00    0.0019760    0.0071798   -0.0000594
c     0.9633895    1.2734637   -0.0306894  0.00    0.0052326    0.0061056    0.0002428
n     0.4221712   -0.9161194   -0.2463556  0.00    0.0123090    0.0103765   -0.0003611
c     2.1302272    0.6026972   -0.1708032  0.00    0.0165078   -0.0071500   -0.0007510
c     1.8345392   -0.7094277   -0.3224341  0.00   -0.0054936   -0.0100870   -0.0005864
h    -0.1109833   -1.8109826   -0.3067984  0.00    0.0026858    0.0028472   -0.0001726
c     3.5011467    1.2601921   -0.2509935  0.00    0.0010417   -0.0054816   -0.0049938
c     4.7207008    0.3320358   -0.0144745  0.00   -0.0024081    0.0172887   -0.0055446
h     3.5495003    2.0758440    0.5023642  0.00   -0.0007559    0.0005430   -0.0001220
h     3.5917922    1.7343952   -1.2544549  0.00    0.0001738   -0.0009436    0.0000918
c     4.9569004   -0.6179043   -1.1843059  0.00    0.0129867   -0.0345331    0.0017566
n     4.6288801   -0.3707998    1.2923960  0.00    0.0033342   -0.0048782    0.0045743
h     5.6351004    0.9669685    0.0041052  0.00    0.0002424    0.0001697    0.0004241
h     3.7798297   -0.0860700    1.8389116  0.00   -0.0042827    0.0011150   -0.0003129
h     4.5687903   -1.4110092    1.1564717  0.00    0.0005577   -0.0032535   -0.0037243
h    -2.6214004    2.5035144    0.2367438  0.00   -0.0006825    0.0002856    0.0000423
h    -2.1577564    0.0897135   -0.0099690  0.00   -0.0010829   -0.0002084   -0.0000152
h    -0.7676189    4.1095562    0.2951412  0.00    0.0000367    0.0007936    0.0000783
h     1.5494472    3.3289000    0.1109804  0.00    0.0005580    0.0007205    0.0000846
h     2.5415694   -1.5094815   -0.5289059  0.00    0.0013178   -0.0029837   -0.0041377
o     6.0061971   -1.5081733   -1.1699969  0.00   -0.0126899    0.0194862   -0.0023412
o     4.1478054   -0.5342602   -2.3070442  0.00    0.0015264    0.0426976    0.0212317
h     4.2224890   -1.4191729   -2.8264861  0.00   -0.0065241   -0.0295980   -0.0062729
    27
 Energy =       0.1895536369
c    -1.5691821    2.1741715    0.2784621  0.00   -0.0052956    0.0036768    0.0001981
c    -1.3338880    0.8332567    0.1509237  0.00   -0.0089114   -0.0035665    0.0001502
c    -0.0500949    0.4171900    0.0253131  0.00   -0.0086017   -0.0169509    0.0002544
c    -0.5265315    3.0639031    0.2716079  0.00   -0.0019287    0.0074851    0.0001765
c     0.7600468    2.6202830    0.1371913  0.00    0.0023397    0.0063534   -0.0000790
c     0.9767347    1.2790742    0.0160981  0.00    0.0047351    0.0055389    0.0002540
n     0.4127387   -0.9090433   -0.1593978  0.00    0.0095350    0.0091635   -0.0001236
c     2.1334864    0.5999682   -0.1577669  0.00    0.0141934   -0.0062606   -0.0005837
c     1.8240138   -0.7111868   -0.2878708  0.00   -0.0039820   -0.0087418   -0.0005739
h    -0.1291888   -1.8009295   -0.1913527  0.00    0.0019178    0.0019139   -0.0001463
c     3.5055411    1.2475125   -0.2998281  0.00    0.0008661   -0.0045021   -0.0045076
c     4.7275436    0.3068291   -0.1239541  0.00   -0.0020062    0.0151537   -0.0055929
h     3.5952773    2.0613193    0.4528578  0.00   -0.0005745    0.0009631    0.0006175
h     3.5533900    1.7237905   -1.3062718  0.00    0.0001716   -0.0005877   -0.0008163
c     4.8917867   -0.6506856   -1.3026895  0.00    0.0095539   -0.0277836    0.0011862
n     4.6933503   -0.3892448    1.1897113  0.00    0.0125440   -0.0010499    0.0018854
h     5.6501104    0.9311448   -0.1546479  0.00    0.0014783    0.0005424    0.0004306
h     3.9150039   -0.0348135    1.8093550  0.00   -0.0125700    0.0052369    0.0070573
h     4.5366099   -1.4240799    1.0585623  0.00   -0.0004436   -0.0101497   -0.0057048
h    -2.5901709    2.5362505    0.3801519  0.00   -0.0010556    0.0002731    0.0000680
h    -2.1504001    0.1174479    0.1427648  0.00   -0.0014259   -0.0004727   -0.0000083
h    -0.7236191    4.1295529    0.3683032  0.00    0.0000459    0.0007804    0.0000725
h     1.5822649    3.3307821    0.1200895  0.00    0.0009887    0.0009433    0.0000574
h     2.5184174   -1.5163197   -0.5162220  0.00    0.0015123   -0.0028057   -0.0036890
o     5.8843680   -1.6105150   -1.3055928  0.00   -0.0075033    0.0132640   -0.0023232
o     4.0633088   -0.5239384   -2.4096764  0.00    0.0000791    0.0384173    0.0178272
h     4.1147373   -1.3951175   -2.9519227  0.00   -0.0056626   -0.0268347   -0.0060867
    27
 Energy =       0.1889287625
c    -1.5516836    2.2021939    0.3031461  0.00   -0.0048358    0.0033413    0.0001846
c    -1.3278562    0.8606437    0.1656275  0.00   -0.0080574   -0.0032915    0.0001336
c    -0.0482646    0.4346879    0.0366700  0.00   -0.0077449   -0.0152950    0.0002421
c    -0.5015116    3.0827339    0.3031737  0.00   -0.0017387    0.0068221    0.0001609
c     0.7809412    2.6289269    0.1658607  0.00    0.0021359    0.0058019   -0.0000726
c     0.9854119    1.2873153    0.0343214  0.00    0.0042927    0.0049743    0.0002140
n     0.4023243   -0.8947836   -0.1559540  0.00    0.0085803    0.0081806   -0.0001263
c     2.1357818    0.6000980   -0.1424092  0.00    0.0127738   -0.0057629   -0.0005571
c     1.8157747   -0.7077386   -0.2798384  0.00   -0.0034785   -0.0079479   -0.0005845
h    -0.1479240   -1.7815629   -0.1949441  0.00    0.0016613    0.0016254   -0.0001361
c     3.5142480    1.2369323   -0.2716403  0.00   -0.0000762   -0.0040166   -0.0040145
c     4.7257787    0.2731372   -0.1477974  0.00   -0.0015078    0.0138828   -0.0047058
h     3.6206537    2.0204547    0.5118615  0.00   -0.0004478    0.0016256    0.0012754
h     3.5581276    1.7520127   -1.2598481  0.00   -0.0000181   -0.0000089   -0.0014867
c     4.8377580   -0.6674641   -1.3476558  0.00    0.0058961   -0.0201299    0.0037150
n     4.7197242   -0.4390570    1.1582470  0.00    0.0122600   -0.0004822    0.0018551
h     5.6571508    0.8829845   -0.1972129  0.00    0.0016900    0.0004974    0.0005009
h     3.9328073   -0.1191173    1.7852720  0.00   -0.0120310    0.0050169    0.0070880
h     4.5984803   -1.4778298    1.0189605  0.00   -0.0005041   -0.0103079   -0.0051344
h    -2.5694679    2.5722447    0.4076204  0.00   -0.0009898    0.0002643    0.0000654
h    -2.1502642    0.1517844    0.1525381  0.00   -0.0013202   -0.0004705   -0.0000088
h    -0.6893300    4.1492839    0.4080941  0.00    0.0000320    0.0007833    0.0000718
h     1.6099712    3.3316749    0.1551320  0.00    0.0009601    0.0009005    0.0000493
h     2.5043090   -1.5181654   -0.5062864  0.00    0.0015849   -0.0024448   -0.0035465
o     5.7335662   -1.7288782   -1.3423286  0.00    0.0019477    0.0029301    0.0002178
o     4.0522175   -0.4372884   -2.4758097  0.00   -0.0057981    0.0396460    0.0114789
h     4.0669301   -1.2886212   -3.0506018  0.00   -0.0052664   -0.0261343   -0.0068793
    27
 Energy =       0.1884291759
c    -1.5182984    2.2588627    0.3693755  0.00   -0.0048264    0.0026985    0.0002184
c    -1.3135310    0.9114448    0.2638235  0.00   -0.0073005   -0.0035258    0.0000775
c    -0.0429131    0.4670568    0.1159907  0.00   -0.0067574   -0.0129139    0.0001777
c    -0.4578716    3.1265704    0.3206251  0.00   -0.0010068    0.0065826    0.0001669
c     0.8154270    2.6537269    0.1646802  0.00    0.0023045    0.0056090   -0.0000368
c     0.9999408    1.3068618    0.0643677  0.00    0.0042148    0.0046186    0.0001718
n     0.3866678   -0.8748290   -0.0404198  0.00    0.0068446    0.0062855   -0.0000694
c     2.1371025    0.6017757   -0.1184515  0.00    0.0109139   -0.0034151   -0.0003633
c     1.7996797   -0.7070932   -0.2022729  0.00   -0.0030935   -0.0074101   -0.0005308
h    -0.1752987   -1.7564515   -0.0361910  0.00    0.0005279   -0.0000059   -0.0001000
c     3.5209033    1.2183464   -0.2934347  0.00   -0.0011059   -0.0028755   -0.0033576
c     4.7222441    0.2325856   -0.2422255  0.00   -0.0006463    0.0125574   -0.0042193
h     3.6714349    1.9864155    0.4993357  0.00   -0.0003702    0.0020860    0.0019989
h     3.5316343    1.7486234   -1.2749481  0.00   -0.0001797    0.0002152   -0.0019372
c     4.7491797   -0.7096716   -1.4490813  0.00    0.0056944   -0.0165007    0.0017874
n     4.7849613   -0.4736000    1.0673896  0.00    0.0127849    0.0018425    0.0032196
h     5.6598308    0.8278506   -0.3485503  0.00    0.0031418    0.0009002    0.0004130
h     3.9886248   -0.2043968    1.7061367  0.00   -0.0120145    0.0049277    0.0073017
h     4.7326490   -1.5209278    0.9384345  0.00   -0.0008430   -0.0129389   -0.0034801
h    -2.5290482    2.6437238    0.4884781  0.00   -0.0011343    0.0001997    0.0000790
h    -2.1441692    0.2116262    0.2919608  0.00   -0.0018238   -0.0010734    0.0000046
h    -0.6303821    4.1980588    0.4016550  0.00    0.0001192    0.0011306    0.0000839
h     1.6534191    3.3452491    0.1163781  0.00    0.0014768    0.0013268    0.0000156
h     2.4759739   -1.5335047   -0.4072349  0.00    0.0010748   -0.0026963   -0.0029776
o     5.6213207   -1.7916353   -1.4891324  0.00    0.0028795    0.0009010   -0.0000954
o     3.9151326   -0.4618247   -2.5396547  0.00   -0.0064096    0.0342710    0.0077269
h     3.9110406   -1.2982416   -3.1328359  0.00   -0.0044652   -0.0227968   -0.0062757
    27
 Energy =       0.1868502112
c    -1.5228622    2.2410527    0.4115024  0.00   -0.0024686    0.0013023    0.0000720
c    -1.3147660    0.8968652    0.2971149  0.00   -0.0037042   -0.0016283    0.0000098
c    -0.0476867    0.4579243    0.1249434  0.00   -0.0031020   -0.0062454    0.0000496
c    -0.4675685    3.1110923    0.3474568  0.00   -0.0005874    0.0032412    0.0000790
c     0.8028351    2.6430882    0.1678875  0.00    0.0013178    0.0026234   -0.0000307
c     0.9889691    1.2992760    0.0595442  0.00    0.0021778    0.0021898    0.0001064
n     0.3812372   -0.8836457   -0.0389464  0.00    0.0031312    0.0029913    0.0000194
c     2.1234689    0.6005412   -0.1388587  0.00    0.0054289   -0.0017720   -0.0002169
c     1.7920257   -0.7077253   -0.2185038  0.00   -0.0011483   -0.0034996   -0.0004261
h    -0.1785381   -1.7667790   -0.0284296  0.00    0.0002282   -0.0000359   -0.0000459
c     3.5038947    1.2189329   -0.3251188  0.00   -0.0006975   -0.0013286   -0.0016653
c     4.7089067    0.2398132   -0.2529094  0.00   -0.0001169    0.0061259   -0.0017568
h     3.6526904    1.9999531    0.4535698  0.00   -0.0001526    0.0011176    0.0010964
h     3.5137019    1.7335562   -1.3141384  0.00   -0.0001156    0.0002376   -0.0010323
c     4.7656166   -0.7119937   -1.4494049  0.00    0.0033877   -0.0064036    0.0036958
n     4.7682485   -0.4469078    1.0639951  0.00    0.0067346    0.0014060    0.0014994
h     5.6397099    0.8433741   -0.3569949  0.00    0.0015629    0.0004349    0.0002373
h     3.9901582   -0.1525383    1.7074318  0.00   -0.0064232    0.0023312    0.0039917
h     4.6924748   -1.4912433    0.9542211  0.00   -0.0003049   -0.0069192   -0.0018187
h    -2.5323119    2.6218888    0.5501841  0.00   -0.0007442    0.0001577    0.0000514
h    -2.1412829    0.1941092    0.3381929  0.00   -0.0009866   -0.0005375   -0.0000018
h    -0.6422806    4.1811986    0.4357432  0.00    0.0000215    0.0005699    0.0000442
h     1.6370487    3.3370076    0.1085935  0.00    0.0008023    0.0006444    0.0000106
h     2.4729029   -1.5293992   -0.4209196  0.00    0.0005627   -0.0012781   -0.0015360
o     5.6012767   -1.8254483   -1.4316897  0.00    0.0041182   -0.0022095    0.0011173
o     4.0079917   -0.4470695   -2.5911507  0.00   -0.0056967    0.0212526    0.0031757
h     4.0697938   -1.2503213   -3.2191177  0.00   -0.0032252   -0.0147683   -0.0067254
    27
 Energy =       0.1864260015
c    -1.4908358    2.3093026    0.4386512  0.00   -0.0021415    0.0007949    0.0001362
c    -1.3033029    0.9594429    0.3624541  0.00   -0.0025503   -0.0018386   -0.0000158
c    -0.0467319    0.4979448    0.1790185  0.00   -0.0019952   -0.0034419   -0.0000054
c    -0.4252185    3.1622481    0.3274173  0.00    0.0001346    0.0027911    0.0000546
c     0.8345699    2.6709951    0.1382732  0.00    0.0011486    0.0023926    0.0000050
c     0.9991698    1.3221843    0.0676548  0.00    0.0017855    0.0016794    0.0000417
n     0.3604984   -0.8560131    0.0588903  0.00    0.0017934    0.0008170    0.0000076
c     2.1199770    0.6021985   -0.1231783  0.00    0.0034365    0.0005358   -0.0000723
c     1.7714155   -0.7045600   -0.1453149  0.00   -0.0008215   -0.0027223   -0.0001842
h    -0.2113588   -1.7310268    0.1103729  0.00   -0.0006644   -0.0013257    0.0000381
c     3.5083719    1.1946800   -0.3368819  0.00   -0.0008738   -0.0004654   -0.0010863
c     4.6956999    0.1913176   -0.3103045  0.00   -0.0008660    0.0044568   -0.0012955
h     3.6917104    1.9631755    0.4471500  0.00   -0.0000383    0.0011138    0.0011606
h     3.5033957    1.7195275   -1.3202418  0.00   -0.0001737    0.0001842   -0.0008015
c     4.6854212   -0.7704298   -1.5017669  0.00    0.0016526   -0.0028828    0.0002343