    13
 Energy =       0.4400594004
c    -3.7133889    1.6950595    0.3173519  0.00   -0.1166121    0.1275058   -0.0254304
c    -2.4962693    2.6345192    0.2419999  0.00    0.3548589   -0.0532198    0.1020242
c    -4.9565486    2.3924193   -0.2155699  0.00    0.7088446    0.7555789   -0.2543870
h    -5.2099685    3.2528291    0.4143399  0.00    0.0650851    0.0057806   -0.0567009
h    -5.8205883    1.7190695   -0.2147749  0.00    0.0096480    0.0170057    0.0007802
h    -4.8083986    2.7651692   -1.2348596  0.00    0.8723794    0.7692697    0.4837948
n    -3.4097890    0.4519539   -0.4549189  0.00    0.0806345   -0.0591903   -0.0115409
h    -3.8575589    1.4177196    1.3669296  0.00    0.0054557   -0.0104522   -0.0272604
h    -2.5963493    0.6418898   -1.0496997  0.00   -0.0248005    0.0153105    0.0435892
h    -3.0749291   -0.2623099    0.1989099  0.00   -0.0112014    0.0315173   -0.0228385
o    -1.4040496    2.4172293    0.7380088  0.00   -0.2610163    0.0548479   -0.1190775
o    -2.7835192    3.7545589   -0.4737969  0.00   -0.1110969   -0.0726682   -0.0000602
h    -3.7512389    3.6942389   -0.6738148  0.00   -1.5721791   -1.5812858   -0.1128926
    13
 Energy =       0.4062998592
c    -3.7139639    1.7112996    0.3269292  0.00   -0.1045917    0.1189988   -0.0215877
c    -2.5104980    2.6647636    0.2381882  0.00    0.3218260   -0.0475131    0.0929452
c    -4.9613580    2.3573416   -0.2836551  0.00    0.6458093    0.6899292   -0.2344176
h    -5.2651083    3.2261639    0.3129729  0.00    0.0585817    0.0068273   -0.0513815
h    -5.8020720    1.6517721   -0.2919923  0.00    0.0081118    0.0149739    0.0007414
h    -4.8299834    2.7527388   -1.2969247  0.00    0.7950395    0.7018957    0.4412893
n    -3.3759310    0.4244891   -0.3585524  0.00    0.0717370   -0.0552541   -0.0180558
h    -3.8911502    1.5031373    1.3913617  0.00    0.0047215   -0.0095297   -0.0217559
h    -2.5586711    0.5883452   -0.9595347  0.00   -0.0220142    0.0135884    0.0391568
h    -3.0199989   -0.2264063    0.3576631  0.00   -0.0077560    0.0243097   -0.0160156
o    -1.3966292    2.4554873    0.7279931  0.00   -0.2368945    0.0499545   -0.1083469
o    -2.8048080    3.7893266   -0.4675205  0.00   -0.0945624   -0.0648104    0.0015184
h    -3.7524244    3.6758877   -0.7368233  0.00   -1.4400079   -1.4433702   -0.1040903
    13
 Energy =       0.3928914936
c    -3.7098126    1.6962354    0.3111272  0.00   -0.0999877    0.1188742   -0.0187291
c    -2.4894462    2.6236372    0.2293219  0.00    0.3113879   -0.0453681    0.0903301
c    -4.9532597    2.4079643   -0.2130636  0.00    0.6244719    0.6707034   -0.2300651
h    -5.2068609    3.2647919    0.4300085  0.00    0.0557256    0.0083844   -0.0485379
h    -5.8197778    1.7321064   -0.2190201  0.00    0.0072053    0.0140916    0.0006943
h    -4.8100369    2.7881252   -1.2236329  0.00    0.7716222    0.6798440    0.4280578
n    -3.4338748    0.4421872   -0.4630322  0.00    0.0680652   -0.0539913   -0.0265112
h    -3.8464834    1.4298439    1.3722831  0.00    0.0046261   -0.0091582   -0.0183548
h    -2.6174791    0.6094234   -1.0655718  0.00   -0.0212477    0.0127724    0.0378092
h    -3.1135319   -0.2877846    0.1989099  0.00   -0.0046482    0.0172587   -0.0106005
o    -1.3905942    2.3804809    0.7498140  0.00   -0.2288292    0.0480180   -0.1043792
o    -2.7517398    3.7584681   -0.4788631  0.00   -0.0788944   -0.0618747    0.0023948
h    -3.7396990    3.7288673   -0.6681757  0.00   -1.4094971   -1.3995542   -0.1021084
    13
 Energy =       0.3666645497
c    -3.7044686    1.7183981    0.3249976  0.00   -0.0922643    0.1122452   -0.0158312
c    -2.4741525    2.6259941    0.1661734  0.00    0.2848591   -0.0396267    0.0834829
c    -4.9518968    2.4039818   -0.2411012  0.00    0.5734693    0.6163578   -0.2121175
h    -5.2309050    3.2624108    0.3889980  0.00    0.0511976    0.0080790   -0.0445496
h    -5.8061515    1.7105642   -0.2516646  0.00    0.0064378    0.0127298    0.0006652
h    -4.8173430    2.8012752   -1.2521681  0.00    0.7086813    0.6250537    0.3929092
n    -3.4571627    0.4053382   -0.3581331  0.00    0.0586637   -0.0540316   -0.0283646
h    -3.8345798    1.5371503    1.4087489  0.00    0.0036910   -0.0087871   -0.0131223
h    -2.6523671    0.5097297   -0.9951628  0.00   -0.0164721    0.0117694    0.0314953
h    -3.1313309   -0.2750904    0.3576631  0.00   -0.0032527    0.0128741   -0.0064172
o    -1.3599014    2.4038582    0.6935122  0.00   -0.2090927    0.0439082   -0.0954524
o    -2.7285516    3.7314518   -0.5917539  0.00   -0.0631868   -0.0535874    0.0009495
h    -3.7337852    3.7392843   -0.6900041  0.00   -1.3027312   -1.2869844   -0.0936473
    13
 Energy =       0.3532283593
c    -3.7080068    1.6961628    0.3074936  0.00   -0.0894840    0.1112203   -0.0140057
c    -2.4860795    2.6227149    0.2246363  0.00    0.2737094   -0.0372305    0.0819290
c    -4.9485371    2.4149222   -0.2143354  0.00    0.5531082    0.5954941   -0.2055751
h    -5.2025877    3.2659254    0.4388904  0.00    0.0492343    0.0082369   -0.0426112
h    -5.8152086    1.7360692   -0.2262527  0.00    0.0060587    0.0121464    0.0006396
h    -4.8097858    2.8034243   -1.2203511  0.00    0.6836840    0.6024313    0.3791300
n    -3.4516902    0.4344595   -0.4696013  0.00    0.0536220   -0.0553111   -0.0330177
h    -3.8447718    1.4348937    1.3782495  0.00    0.0031516   -0.0091642   -0.0094823
h    -2.6288635    0.5858486   -1.0783327  0.00   -0.0139203    0.0117801    0.0282520
h    -3.1523406   -0.3084201    0.1989099  0.00   -0.0019313    0.0084635   -0.0023954
o    -1.3808715    2.3627511    0.7667739  0.00   -0.2006243    0.0417562   -0.0918793
o    -2.7273335    3.7716875   -0.4785561  0.00   -0.0529066   -0.0470740    0.0004016
h    -3.7265199    3.7539074   -0.6674190  0.00   -1.2637017   -1.2427489   -0.0913856
    13
 Energy =       0.2724007574
c    -3.7072711    1.6751171    0.2838235  0.00   -0.0621908    0.0809048   -0.0097169
c    -2.4997082    2.6118584    0.2772932  0.00    0.1856818   -0.0271650    0.0568341
c    -4.9381899    2.4285970   -0.1953787  0.00    0.4079892    0.4399163   -0.1542462
h    -5.1762661    3.2626643    0.4902546  0.00    0.0359157    0.0064475   -0.0302491
h    -5.8127579    1.7541159   -0.2224150  0.00    0.0040974    0.0081711    0.0003366
h    -4.7970767    2.8206963   -1.1895839  0.00    0.5002843    0.4382148    0.2807358
n    -3.4693423    0.4732767   -0.5781436  0.00    0.0322719   -0.0360906   -0.0320312
h    -3.8521091    1.3496110    1.3409183  0.00    0.0019498   -0.0069152   -0.0042009
h    -2.6090993    0.6271546   -1.1447191  0.00   -0.0071697    0.0096808    0.0180622
h    -3.2502723   -0.3488063    0.0401568  0.00    0.0007503   -0.0035980    0.0058047
o    -1.3820211    2.2899547    0.8593667  0.00   -0.1363352    0.0260470   -0.0614828
o    -2.7021654    3.8227493   -0.3516755  0.00   -0.0256673   -0.0239011    0.0016830
h    -3.6863169    3.8073576   -0.6497920  0.00   -0.9375773   -0.9117126   -0.0715292
    13
 Energy =       0.1807721344
c    -3.6990810    1.6780615    0.2784915  0.00   -0.0257217    0.0365507   -0.0054452
c    -2.5055207    2.6252297    0.2847505  0.00    0.0775014   -0.0117261    0.0227976
c    -4.9401248    2.4200719   -0.2144472  0.00    0.2316980    0.2492005   -0.0894172
h    -5.2042425    3.2439711    0.4778045  0.00    0.0200834    0.0043199   -0.0169731
h    -5.8004925    1.7207472   -0.2628937  0.00    0.0014482    0.0029348    0.0000519
h    -4.7999509    2.8378188   -1.2096141  0.00    0.2809222    0.2484214    0.1578653
n    -3.4808113    0.4897074   -0.5847879  0.00   -0.0017396   -0.0025026   -0.0184360
h    -3.8496766    1.3635082    1.3394796  0.00    0.0007561   -0.0026222   -0.0015099
h    -2.5486630    0.5600817   -1.0742242  0.00    0.0101904    0.0056543    0.0016288
h    -3.4090254   -0.3735873    0.0268442  0.00    0.0019365   -0.0164097    0.0136260
o    -1.3521625    2.2849743    0.9021970  0.00   -0.0572364    0.0103879   -0.0246636
o    -2.6629920    3.8535376   -0.3341090  0.00   -0.0096011   -0.0094694    0.0010597
h    -3.6298531    3.8702242   -0.6693858  0.00   -0.5302374   -0.5147395   -0.0405844
    13
 Energy =       0.1300181182
c    -3.7027918    1.6598338    0.2767774  0.00   -0.0114405    0.0173257   -0.0024983
c    -2.5227829    2.6231191    0.3309576  0.00    0.0329770   -0.0043581    0.0093978
c    -4.9589944    2.3923207   -0.1943401  0.00    0.1313982    0.1405148   -0.0506830
h    -5.2349510    3.1958501    0.5199313  0.00    0.0112313    0.0029249   -0.0091206
h    -5.8068279    1.6759919   -0.2589325  0.00    0.0004101    0.0009666    0.0000211
h    -4.8233591    2.8375605   -1.1865550  0.00    0.1588253    0.1408178    0.0884529
n    -3.4759323    0.5127827   -0.6301893  0.00   -0.0178235    0.0059204   -0.0068735
h    -3.8589122    1.3040044    1.3253875  0.00   -0.0000934   -0.0011664    0.0004672
h    -2.6134833    0.6667028   -1.2329774  0.00    0.0202755    0.0041588   -0.0104210
h    -3.2777946   -0.3541935   -0.0510086  0.00    0.0020296   -0.0179699    0.0137102
o    -1.3684627    2.2732309    0.9872492  0.00   -0.0237576    0.0042055   -0.0093426
o    -2.6453874    3.8663412   -0.2753162  0.00   -0.0022557   -0.0034978    0.0010729
h    -3.5929168    3.9208018   -0.6508787  0.00   -0.3017763   -0.2898421   -0.0241830
    13
 Energy =       0.0836905138
c    -3.7138811    1.6551638    0.2810655  0.00    0.0038226   -0.0016524   -0.0011653
c    -2.5175218    2.6060616    0.3344321  0.00   -0.0221099    0.0060985   -0.0017676
c    -4.9995523    2.3639098   -0.1508807  0.00    0.0334768    0.0368321   -0.0120575
h    -5.2944041    3.1373072    0.5927119  0.00    0.0023013    0.0016080   -0.0012401
h    -5.8268507    1.6235302   -0.2397723  0.00   -0.0004503   -0.0008648   -0.0000471
h    -4.8546506    2.8425911   -1.1409035  0.00    0.0523564    0.0440627    0.0232345
n    -3.5118518    0.5235095   -0.6399569  0.00   -0.0227619    0.0120923    0.0019134
h    -3.8487532    1.2830711    1.3262704  0.00   -0.0001691    0.0003713    0.0004329
h    -2.7722364    0.7492582   -1.3698420  0.00    0.0178780    0.0038264   -0.0143766
h    -3.1456803   -0.3060812   -0.0923952  0.00    0.0029821   -0.0147728    0.0116448
o    -1.3064754    2.1515988    0.8732063  0.00    0.0203098   -0.0093533    0.0057300
o    -2.5859095    3.8925943   -0.2051668  0.00    0.0060742    0.0037715   -0.0001099
h    -3.5048291    4.0518322   -0.6086636  0.00   -0.0937100   -0.0820196   -0.0121914
    13
 Energy =       0.0760858654
c    -3.7394729    1.6730280    0.3101346  0.00    0.0043585    0.0038929    0.0021825
c    -2.5463741    2.6311981    0.3774549  0.00   -0.0145185    0.0015526   -0.0004399
c    -5.0116541    2.3351393   -0.2367808  0.00    0.0164434    0.0203488   -0.0076146
h    -5.3530198    3.1604589    0.4339588  0.00   -0.0003649    0.0045021    0.0021303
h    -5.8260123    1.5795083   -0.3143295  0.00   -0.0004359   -0.0007181   -0.0003077
h    -4.8150958    2.7383975   -1.2559818  0.00    0.0334097    0.0284890    0.0104120
n    -3.4704808    0.4868865   -0.5276355  0.00   -0.0201688    0.0079374   -0.0088071
h    -3.9315619    1.3585009    1.3681520  0.00   -0.0005845   -0.0000297    0.0037585
h    -2.7954660    0.7318360   -1.3071207  0.00    0.0131104    0.0054433   -0.0107359
h    -2.9946449   -0.2601471    0.0616452  0.00    0.0079453   -0.0201227    0.0149200
o    -1.3752800    2.2090674    1.0166816  0.00    0.0168595   -0.0086734    0.0060718
o    -2.5707206    3.8862205   -0.2432548  0.00    0.0054903    0.0052204   -0.0006944
h    -3.4528129    4.0442521   -0.7228186  0.00   -0.0615445   -0.0478426   -0.0108755
    13
 Energy =       0.0703293034
c    -3.7305357    1.6704747    0.3064070  0.00    0.0014425    0.0023871    0.0016280
c    -2.5767289    2.6789934    0.3962685  0.00   -0.0074211    0.0022416   -0.0014644
c    -5.0341615    2.2635252   -0.2411374  0.00    0.0078195    0.0105900   -0.0035984
h    -5.4034846    3.0852284    0.4146334  0.00   -0.0001010    0.0022110    0.0009267
h    -5.8162382    1.4712414   -0.2934829  0.00   -0.0012445   -0.0012634   -0.0002160
h    -4.8685472    2.6527448   -1.2694712  0.00    0.0178864    0.0152082    0.0056940
n    -3.3981547    0.5008371   -0.5279858  0.00   -0.0141949    0.0050322   -0.0047757
h    -3.9161155    1.3400029    1.3588310  0.00   -0.0005428   -0.0000237    0.0016434
h    -2.7855012    0.7907538   -1.3382570  0.00    0.0087520    0.0038864   -0.0075836
h    -2.8358918   -0.1917225    0.0432492  0.00    0.0062704   -0.0142354    0.0098907
o    -1.4243670    2.3147121    1.0924825  0.00    0.0101420   -0.0044317    0.0037912
o    -2.6143346    3.9250991   -0.2378208  0.00    0.0026634    0.0021027   -0.0000700
h    -3.4785355    4.0724559   -0.7436111  0.00   -0.0314719   -0.0237051   -0.0058659
    13
 Energy =       0.0682764613
c    -3.7139812    1.6706672    0.3092267  0.00    0.0002924    0.0018519    0.0023871
c    -2.6162492    2.7430224    0.4052970  0.00   -0.0056005    0.0024904   -0.0017478
c    -5.0510338    2.1810237   -0.2439590  0.00    0.0040198    0.0076823   -0.0023599
h    -5.4547063    3.0047176    0.3883184  0.00   -0.0002450    0.0020893    0.0008755
h    -5.7935103    1.3484216   -0.2619293  0.00   -0.0021471   -0.0023048   -0.0002815
h    -4.9174830    2.5412903   -1.2875258  0.00    0.0113788    0.0100176    0.0028812
n    -3.3097223    0.5174557   -0.5164316  0.00   -0.0129001    0.0028069   -0.0045739
h    -3.8850737    1.3324290    1.3611950  0.00   -0.0005222   -0.0002397    0.0011156
h    -2.7460950    0.8437755   -1.3467192  0.00    0.0071365    0.0036941   -0.0067012
h    -2.6771387   -0.1172826    0.0472872  0.00    0.0072468   -0.0130333    0.0087934
o    -1.4680588    2.4536941    1.1420467  0.00    0.0097899   -0.0034337    0.0043702
o    -2.6961897    3.9741595   -0.2551056  0.00    0.0029207    0.0025396    0.0000058
h    -3.5533543    4.0809725   -0.7815952  0.00   -0.0213700   -0.0141605   -0.0047645
    13
 Energy =       0.0663577465
c    -3.7229405    1.6573306    0.2992993  0.00   -0.0027917    0.0025864    0.0006386
c    -2.6570923    2.7531453    0.4837273  0.00   -0.0039369    0.0026779   -0.0024848
c    -5.0565516    2.1388826   -0.2876712  0.00    0.0015130    0.0027331   -0.0016799
h    -5.4919209    2.9547868    0.3320780  0.00   -0.0003580    0.0011498    0.0006721
h    -5.7794235    1.2913639   -0.3140668  0.00   -0.0010665   -0.0011961   -0.0000578
h    -4.9168217    2.4933690   -1.3321510  0.00    0.0054832    0.0048055    0.0012503
n    -3.2476548    0.5448698   -0.5427236  0.00   -0.0123563    0.0008299   -0.0031795
h    -3.9255758    1.2771258    1.3320494  0.00   -0.0010637   -0.0000560    0.0020512
h    -2.7488389    0.9237663   -1.3913625  0.00    0.0058447    0.0038388   -0.0069188
h    -2.5360567   -0.0245294   -0.0054473  0.00    0.0084395   -0.0107586    0.0072670
o    -1.5607801    2.4817671    1.3007998  0.00    0.0090486   -0.0013909    0.0044395
o    -2.7087790    3.9885370   -0.1681992  0.00    0.0037376    0.0012961    0.0013525
h    -3.5301605    4.0939315   -0.7462269  0.00   -0.0124934   -0.0065160   -0.0033505
    13
 Energy =       0.0658298504
c    -3.7433625    1.6381938    0.2793495  0.00   -0.0032621    0.0009897   -0.0000073
c    -2.6862366    2.7225000    0.5746970  0.00   -0.0024805    0.0006236   -0.0010485
c    -5.0455611    2.1422855   -0.3613321  0.00    0.0001014    0.0009432   -0.0010379
h    -5.5115778    2.9377515    0.2627775  0.00   -0.0004507    0.0010117    0.0010566
h    -5.7682374    1.2973350   -0.4506112  0.00   -0.0020854   -0.0019719   -0.0002464
h    -4.8550033    2.5292360   -1.3883297  0.00    0.0036367    0.0033571   -0.0013141
n    -3.2195058    0.5623528   -0.5803712  0.00   -0.0081894   -0.0009978   -0.0029006
h    -4.0025369    1.2122574    1.2832863  0.00   -0.0015222   -0.0007793    0.0039895
h    -2.7312540    0.9770922   -1.4161979  0.00    0.0041165    0.0026040   -0.0051866
h    -2.4900360    0.0154349   -0.0498717  0.00    0.0055358   -0.0069161    0.0044206
o    -1.6352496    2.4054361    1.4333813  0.00    0.0085481   -0.0008130    0.0046647
o    -2.7006647    3.9945465   -0.0094460  0.00    0.0053315    0.0051269    0.0009007
h    -3.4933708    4.1399249   -0.6172265  0.00   -0.0092797   -0.0031781   -0.0032906
    13
 Energy =       0.0659847523
c    -3.7455318    1.6348920    0.2713182  0.00   -0.0027967    0.0009309    0.0006156
c    -2.7064685    2.7284257    0.5970920  0.00   -0.0019519   -0.0011165   -0.0000267
c    -5.0333672    2.1232592   -0.4105276  0.00   -0.0002657    0.0004153   -0.0010319
h    -5.5361059    2.9032707    0.2055255  0.00   -0.0007630    0.0013892    0.0015179
h    -5.7383678    1.2670892   -0.5339825  0.00   -0.0025041   -0.0022569   -0.0003892
h    -4.8115198    2.5243039   -1.4265003  0.00    0.0033887    0.0029443   -0.0019069
n    -3.1854884    0.5625196   -0.5701179  0.00   -0.0073739   -0.0012272   -0.0033846
h    -4.0298289    1.2078695    1.2677601  0.00   -0.0014767   -0.0006692    0.0039678
h    -2.6893145    0.9802768   -1.3993003  0.00    0.0037948    0.0023200   -0.0047754
h    -2.4559919    0.0333521   -0.0224069  0.00    0.0053732   -0.0064856    0.0041781
o    -1.6446178    2.3990416    1.4371226  0.00    0.0078609   -0.0011189    0.0044372
o    -2.7515898    4.0249427    0.0672082  0.00    0.0050708    0.0070002    0.0000243
h    -3.5544040    4.1851034   -0.5230858  0.00   -0.0083564   -0.0021256   -0.0032262
    13
 Energy =       0.0664352423
c    -3.7512936    1.6350543    0.2617259  0.00   -0.0017038    0.0016420    0.0022111
c    -2.7309285    2.7382016    0.6180270  0.00   -0.0014667   -0.0060925    0.0018706
c    -5.0068090    2.1016875   -0.4965231  0.00   -0.0015819   -0.0007050   -0.0012345
h    -5.5704754    2.8578664    0.0995777  0.00   -0.0018933    0.0025717    0.0030544
h    -5.6831985    1.2303999   -0.6780484  0.00   -0.0040937   -0.0034603   -0.0010008
h    -4.7258548    2.5250591   -1.4912034  0.00    0.0038417    0.0028341   -0.0040931
n    -3.1448639    0.5494136   -0.5317917  0.00   -0.0070383   -0.0020698   -0.0052362
h    -4.0817900    1.2246883    1.2516600  0.00   -0.0016830   -0.0006934    0.0050343
h    -2.6248199    0.9541461   -1.3530331  0.00    0.0040000    0.0022605   -0.0051493
h    -2.4271351    0.0443632    0.0544369  0.00    0.0063832   -0.0069954    0.0049221
o    -1.6371107    2.3883220    1.4093464  0.00    0.0088260   -0.0028883    0.0055178
o    -2.8335123    4.0705304    0.1802637  0.00    0.0055731    0.0130355   -0.0014590
h    -3.6648046    4.2546140   -0.3643326  0.00   -0.0091633    0.0005608   -0.0044374
    13
 Energy =       0.0657441565
c    -3.7406793    1.6226557    0.2605469  0.00   -0.0000343    0.0043487    0.0023791
c    -2.7291972    2.7219037    0.6358736  0.00   -0.0022771   -0.0058364    0.0011361
c    -5.0435058    2.1067638   -0.4032274  0.00   -0.0030758   -0.0005721   -0.0000950
h    -5.5459495    2.8794440    0.2258225  0.00   -0.0019568    0.0024727    0.0030586
h    -5.7439234    1.2457616   -0.5256239  0.00   -0.0034415   -0.0025912   -0.0011278
h    -4.8405342    2.5118513   -1.4235317  0.00    0.0023278    0.0015188   -0.0049755
n    -3.1496509    0.5935371   -0.6162260  0.00   -0.0050209   -0.0043847   -0.0038658
h    -4.0165420    1.1513185    1.2405994  0.00   -0.0013772   -0.0012277    0.0051826
h    -2.6869784    1.0497564   -1.4452566  0.00    0.0040544    0.0024299   -0.0061616
h    -2.3877818    0.0873821   -0.0913130  0.00    0.0057786   -0.0053951    0.0044547
o    -1.6980550    2.3885880    1.5144076  0.00    0.0086350   -0.0045650    0.0064624
o    -2.7635843    4.0249897    0.1111197  0.00    0.0065123    0.0095707    0.0009665
h    -3.5362144    4.1903946   -0.5230858  0.00   -0.0101244    0.0042313   -0.0074144
    13
 Energy =       0.0648554088
c    -3.7309687    1.6076709    0.2560536  0.00    0.0001260    0.0058724    0.0023374
c    -2.7314100    2.7051482    0.6555427  0.00   -0.0034617   -0.0046814    0.0010591
c    -5.0713138    2.1098600   -0.3134956  0.00   -0.0036755   -0.0001830    0.0003087
h    -5.5242621    2.8798996    0.3540349  0.00   -0.0015642    0.0020993    0.0023375
h    -5.7825544    1.2557526   -0.3981778  0.00   -0.0020774   -0.0012691   -0.0007795
h    -4.9411443    2.5244154   -1.3403809  0.00    0.0009280    0.0007518   -0.0044226
n    -3.1583020    0.6476073   -0.7078026  0.00   -0.0036481   -0.0061392   -0.0036375
h    -3.9544521    1.0702740    1.2157757  0.00   -0.0011309   -0.0017877    0.0052359
h    -2.7506499    1.1627234   -1.5313649  0.00    0.0037286    0.0028736   -0.0066368
h    -2.3583567    0.1362039   -0.2500661  0.00    0.0055588   -0.0046112    0.0038423
o    -1.7697341    2.3989828    1.6188785  0.00    0.0083263   -0.0050425    0.0072134
o    -2.6956104    3.9714656    0.0511265  0.00    0.0048302    0.0077702    0.0000673
h    -3.4138379    4.1043426   -0.6500188  0.00   -0.0079403    0.0043468   -0.0069252
    13
 Energy =       0.0638822768
c    -3.7221853    1.5947051    0.2528940  0.00    0.0005942    0.0050494    0.0027083
c    -2.7283502    2.6898503    0.6626883  0.00   -0.0048020   -0.0041011    0.0006273
c    -5.0944425    2.1135927   -0.2163701  0.00   -0.0037189   -0.0004284    0.0004952
h    -5.5043695    2.8626301    0.5006865  0.00   -0.0013741    0.0020814    0.0019364
h    -5.8084471    1.2621259   -0.2821488  0.00   -0.0008770   -0.0003221   -0.0003562
h    -5.0343910    2.5628541   -1.2341350  0.00   -0.0002862    0.0004983   -0.0040482
n    -3.1839130    0.7044459   -0.7936235  0.00   -0.0027499   -0.0055553   -0.0037591
h    -3.8901588    0.9984147    1.1883489  0.00   -0.0007704   -0.0018354    0.0044961
h    -2.8321150    1.2730378   -1.6067129  0.00    0.0028580    0.0028625   -0.0057517
h    -2.3511108    0.1868022   -0.4088192  0.00    0.0052370   -0.0039358    0.0030743
o    -1.8473421    2.4265522    1.7125022  0.00    0.0079815   -0.0054037    0.0084539
o    -2.6142057    3.9071568   -0.0247870  0.00    0.0044466    0.0072823   -0.0003343
h    -3.2715654    3.9921786   -0.7904183  0.00   -0.0065389    0.0038079   -0.0075420
    13
 Energy =       0.0630173341
c    -3.7136468    1.5839133    0.2482231  0.00    0.0005399    0.0024823    0.0026413
c    -2.7199832    2.6769133    0.6576778  0.00   -0.0042820   -0.0017547   -0.0012193
c    -5.1082169    2.1148723   -0.1257719  0.00   -0.0018290   -0.0017402    0.0006326
h    -5.4952967    2.8072136    0.6594396  0.00   -0.0017230    0.0028999    0.0026053
h    -5.8129566    1.2586500   -0.2195022  0.00   -0.0000608   -0.0006608    0.0000460
h    -5.0990830    2.6410172   -1.1083272  0.00   -0.0007374    0.0015385   -0.0044862
n    -3.2203552    0.7561030   -0.8673510  0.00   -0.0023724   -0.0032645   -0.0028778
h    -3.8297338    0.9397211    1.1576963  0.00   -0.0004444   -0.0013354    0.0028690
h    -2.9259270    1.3668200   -1.6707004  0.00    0.0018170    0.0023690   -0.0038820
h    -2.3592907    0.2376771   -0.5557766  0.00    0.0042295   -0.0029420    0.0019657
o    -1.9199684    2.4671178    1.7798940  0.00    0.0058177   -0.0039846    0.0072499
o    -2.5362416    3.8432933   -0.0937475  0.00    0.0023783    0.0046085   -0.0008789
h    -3.1418964    3.8810346   -0.9016487  0.00   -0.0033332    0.0017841   -0.0046657
    13
 Energy =       0.0625148155
c    -3.7085183    1.5780141    0.2474778  0.00    0.0003871   -0.0009741    0.0019362
c    -2.7034461    2.6660039    0.6392195  0.00   -0.0035068   -0.0010977   -0.0028185
c    -5.1140169    2.1239815   -0.0400377  0.00    0.0008946   -0.0023029    0.0006192
h    -5.4834793    2.7345781    0.8181928  0.00   -0.0013399    0.0026969    0.0030017
h    -5.8144038    1.2718006   -0.1961546  0.00   -0.0004135   -0.0018132   -0.0001908
h    -5.1323792    2.7484247   -0.9628850  0.00   -0.0006635    0.0023077   -0.0038859
n    -3.2740639    0.7878868   -0.9157319  0.00   -0.0025951   -0.0002909   -0.0001839
h    -3.7805171    0.9048645    1.1372371  0.00   -0.0001212   -0.0001005    0.0004394
h    -3.0493120    1.4174858   -1.7246022  0.00    0.0010782    0.0016577   -0.0019456
h    -2.3848780    0.2822232   -0.6759093  0.00    0.0023591   -0.0013793    0.0007661
o    -1.9997708    2.5314185    1.8343991  0.00    0.0038578   -0.0030709    0.0075132
o    -2.4392947    3.7677950   -0.1810603  0.00    0.0006942    0.0041427   -0.0032406
h    -2.9985162    3.7598697   -1.0200400  0.00   -0.0006310    0.0002244   -0.0020105
    13
 Energy =       0.0624012757
c    -3.7078988    1.5771185    0.2480687  0.00   -0.0000342    0.0000400    0.0000455
c    -2.6905808    2.6578833    0.6284538  0.00    0.0005061    0.0002273    0.0004340
c    -5.1112566    2.1350225   -0.0186913  0.00   -0.0000497    0.0002418    0.0000529
h    -5.4728688    2.7183722    0.8560874  0.00    0.0001331   -0.0001507   -0.0002971
h    -5.8181295    1.2946391   -0.1967592  0.00   -0.0000249    0.0000572    0.0000175
h    -5.1276139    2.7863903   -0.9170812  0.00    0.0000280   -0.0002534    0.0002000
n    -3.2962732    0.7828115   -0.9197406  0.00   -0.0005058   -0.0004239    0.0004665
h    -3.7729503    0.9032293    1.1372224  0.00    0.0000029    0.0000251   -0.0000538
h    -3.1107013    1.4059127   -1.7418928  0.00    0.0001831    0.0004313   -0.0006927
h    -2.3930836    0.2944900   -0.7040425  0.00    0.0002257   -0.0001359    0.0001850
o    -2.0065626    2.5444551    1.8305259  0.00   -0.0004547    0.0002559   -0.0011495
o    -2.4066610    3.7409074   -0.2031725  0.00   -0.0001551   -0.0003077    0.0003853
h    -2.9680160    3.7331146   -1.0388728  0.00    0.0001456   -0.0000070    0.0004065
    13
 Energy =       0.0623958673
c    -3.7015971    1.5749701    0.2464751  0.00    0.0000769    0.0000426    0.0001282
c    -2.6837108    2.6579943    0.6183629  0.00    0.0000874    0.0000063    0.0000448
c    -5.1113480    2.1293461    0.0059236  0.00   -0.0001411   -0.0001224   -0.0000066
h    -5.4656343    2.6956309    0.8954979  0.00   -0.0000985    0.0001167    0.0001819
h    -5.8156299    1.2879393   -0.1778275  0.00   -0.0000006   -0.0000264    0.0000057
h    -5.1419894    2.7970125   -0.8807363  0.00   -0.0000328    0.0001534   -0.0002018
n    -3.3048499    0.7906436   -0.9334455  0.00   -0.0004314   -0.0001739    0.0000947
h    -3.7496338    0.8942946    1.1317712  0.00   -0.0000030   -0.0000792    0.0001517
h    -3.1427514    1.4188673   -1.7563470  0.00    0.0001276    0.0002915   -0.0004588
h    -2.3925614    0.3102850   -0.7386088  0.00    0.0004282   -0.0002328    0.0001022
o    -1.9957372    2.5509458    1.8195345  0.00   -0.0000238    0.0000279   -0.0000853
o    -2.4050733    3.7383630   -0.2191759  0.00    0.0000172    0.0000009    0.0000435
h    -2.9720799    3.7280539   -1.0513188  0.00   -0.0000060   -0.0000046   -0.0000002
    13
 Energy =       0.0623954883
c    -3.7018875    1.5751302    0.2468710  0.00    0.0000003    0.0000003    0.0000005
c    -2.6841539    2.6582646    0.6186896  0.00   -0.0000024   -0.0000014   -0.0000023
c    -5.1111871    2.1295920    0.0053260  0.00   -0.0000000   -0.0000000    0.0000002
h    -5.4658924    2.6957431    0.8945460  0.00    0.0000001   -0.0000000    0.0000002
h    -5.8155486    1.2884149   -0.1790877  0.00   -0.0000002   -0.0000002    0.0000000
h    -5.1409224    2.7973523   -0.8810009  0.00   -0.0000002    0.0000001   -0.0000003
n    -3.3047540    0.7900405   -0.9322262  0.00   -0.0000032   -0.0000010    0.0000003
h    -3.7504819    0.8949943    1.1323543  0.00    0.0000001   -0.0000002    0.0000002
h    -3.1444968    1.4173607   -1.7557555  0.00    0.0000011    0.0000028   -0.0000021
h    -2.3917974    0.3114917   -0.7376261  0.00    0.0000021   -0.0000021    0.0000012
o    -1.9984959    2.5530234    1.8214073  0.00    0.0000026   -0.0000014    0.0000062
o    -2.4036263    3.7371233   -0.2201969  0.00    0.0000011    0.0000026   -0.0000017
h    -2.9693521    3.7258155   -1.0531956  0.00   -0.0000014    0.0000006   -0.0000026
    13
 Energy =       0.0623954882
c    -3.7018882    1.5751282    0.2468772  0.00    0.0000000    0.0000000    0.0000000
c    -2.6841550    2.6582625    0.6186964  0.00   -0.0000000   -0.0000000   -0.0000000
c    -5.1111863    2.1295919    0.0053257  0.00    0.0000000   -0.0000000   -0.0000000
h    -5.4659004    2.6957305    0.8945500  0.00   -0.0000000    0.0000000    0.0000000
h    -5.8155456    1.2884173   -0.1791061  0.00   -0.0000000   -0.0000000   -0.0000000
h    -5.1409128    2.7973666   -0.8809904  0.00   -0.0000000    0.0000000   -0.0000000
n    -3.3047494    0.7900320   -0.9322136  0.00   -0.0000000   -0.0000000    0.0000000
h    -3.7504861    0.8949950    1.1323619  0.00    0.0000000   -0.0000000    0.0000000
h    -3.1445813    1.4173348   -1.7557707  0.00    0.0000000    0.0000000   -0.0000000
h    -2.3917486    0.3115586   -0.7376441  0.00    0.0000000   -0.0000000    0.0000000
o    -1.9985145    2.5530345    1.8214207  0.00    0.0000000   -0.0000000    0.0000000
o    -2.4036106    3.7371083   -0.2201964  0.00    0.0000000    0.0000000    0.0000000
h    -2.9693177    3.7257861   -1.0532053  0.00   -0.0000000    0.0000000   -0.0000000
