    13
 Energy =       3.7789409227
c    -3.7133889    1.6950595    0.3173519  0.00    0.0089204   -0.0366922   -0.0151727
c    -2.4962693    2.6345192    0.2419999  0.00    0.0655714    0.3298696    0.0929539
c    -4.9565486    2.3924193   -0.2155699  0.00    0.0141421    0.0101388    0.0040602
h    -5.2099685    3.2528291    0.4143399  0.00    0.0032807   -0.0140750   -0.0108028
h    -5.8205883    1.7190695   -0.2147749  0.00    0.0095219    0.0154939   -0.0003414
h    -4.8083986    2.7651692   -1.2348596  0.00   -0.0047825   -0.0028590    0.0174894
n    -3.4097890    0.4519539   -0.4549189  0.00    0.8723356    0.3082338   -0.1365845
h    -3.8575589    1.4177196    1.3669296  0.00    0.0001284   -0.0033953   -0.0238077
h    -3.4845290    0.6754588   -1.4528996  0.00    0.0524181    0.0130223    0.0634129
h    -2.4188593    0.2248379   -0.3273229  0.00   19.5691232   28.6877071  -10.5140215
o    -2.4571893    3.7760389    0.6681628  0.00   -0.0093362   -0.2732132   -0.1061506
o    -1.4389296    2.0221094   -0.3549299  0.00   -0.1299782   -0.1531165    0.0021675
h    -1.7862895    1.1491097   -0.6669268  0.00  -20.4513450  -28.8811141   10.6267975
    13
 Energy =       2.9198237263
c    -3.7396281    1.7219277    0.2930579  0.00    0.0017290   -0.0232705   -0.0090003
c    -2.4652937    2.5844324    0.2071853  0.00    0.0371621    0.2348252    0.0639371
c    -4.9570059    2.4740142   -0.2345534  0.00    0.0149004    0.0047490    0.0034540
h    -5.1057489    3.4115822    0.3418780  0.00    0.0008672   -0.0024138   -0.0010758
h    -5.8755548    1.8627560   -0.1254517  0.00   -0.0003952    0.0059681    0.0012700
h    -4.8309357    2.7465675   -1.2975026  0.00   -0.0014885    0.0002978    0.0078472
n    -3.5046470    0.4429479   -0.4632337  0.00    0.5793553    0.2334324   -0.1127584
h    -3.8844756    1.4755569    1.3563621  0.00    0.0005448   -0.0024049   -0.0164647
h    -3.5151899    0.6658370   -1.4769410  0.00    0.0386058    0.0121494    0.0403954
h    -2.4455654    0.0871403   -0.2448852  0.00   14.7420556   21.5062281   -7.8736525
o    -2.3301441    3.7747542    0.6324055  0.00    0.0003703   -0.1896337   -0.0742037
o    -1.4009215    1.8941322   -0.3085100  0.00   -0.0838936   -0.1144680   -0.0006057
h    -1.8031964    1.0346456   -0.5932296  0.00  -15.3298133  -21.6654591    7.9708574
    13
 Energy =       2.5912012119
c    -3.7511778    1.6941878    0.3064859  0.00    0.0000084   -0.0206551   -0.0076620
c    -2.4767952    2.5573909    0.3277182  0.00    0.0357486    0.2017515    0.0548153
c    -4.9322729    2.4663936   -0.2872370  0.00    0.0128622    0.0043593    0.0032580
h    -5.1141649    3.3950847    0.2958764  0.00    0.0010374   -0.0013168   -0.0009661
h    -5.8617453    1.8578759   -0.2531292  0.00   -0.0028692    0.0043003    0.0010992
h    -4.7315947    2.7614571   -1.3368816  0.00   -0.0006396    0.0004842    0.0035385
n    -3.4804508    0.4418095   -0.4703243  0.00    0.5044423    0.2011742   -0.0967564
h    -3.9704760    1.4198422    1.3552174  0.00   -0.0003739   -0.0023905   -0.0112469
h    -3.5358560    0.6649089   -1.4830458  0.00    0.0337377    0.0113648    0.0343125
h    -2.4318029    0.1419346   -0.3069493  0.00   12.9645086   18.9177020   -6.9238253
o    -2.4227719    3.7746235    0.7472192  0.00   -0.0017092   -0.1610063   -0.0637474
o    -1.3678220    1.9029832   -0.1497569  0.00   -0.0491505   -0.0663876    0.0248724
h    -1.7813764    1.0978022   -0.6586115  0.00  -13.4976028  -19.0893800    6.9823081
    13
 Energy =       2.0434561450
c    -3.7339772    1.7026060    0.3346779  0.00    0.0020955   -0.0146145   -0.0017899
c    -2.5098452    2.6250653    0.3161379  0.00    0.0230258    0.1476305    0.0413112
c    -4.9442788    2.3825135   -0.3286705  0.00    0.0079651    0.0024028    0.0000833
h    -5.1715714    3.3515242    0.1769514  0.00    0.0004346    0.0036808    0.0002929
h    -5.8463345    1.7350080   -0.2589573  0.00   -0.0032283    0.0023627   -0.0000177
h    -4.7442770    2.6030582   -1.4008629  0.00   -0.0002797    0.0008771   -0.0008974
n    -3.4104530    0.4195828   -0.3618402  0.00    0.3862765    0.1439438   -0.0631790
h    -3.9547365    1.4913833    1.4018766  0.00   -0.0003168   -0.0017640   -0.0062041
h    -3.5389616    0.5448304   -1.3904124  0.00    0.0254260    0.0099446    0.0155218
h    -2.3783143    0.2082976   -0.2905583  0.00   10.0189314   14.6313176   -5.3548797
o    -2.5471051    3.8689380    0.7494459  0.00   -0.0025559   -0.1146192   -0.0448334
o    -1.3665325    2.0617363   -0.2138239  0.00   -0.0235929   -0.0412765    0.0205968
h    -1.7119199    1.1817504   -0.6473827  0.00  -10.4341814  -14.7698857    5.3939953
    13
 Energy =       1.4238434184
c    -3.7184665    1.7148970    0.3511146  0.00    0.0036629   -0.0072763    0.0016329
c    -2.5453963    2.6932702    0.2896540  0.00    0.0116037    0.0865427    0.0257126
c    -4.9574985    2.2963972   -0.3624676  0.00    0.0037036    0.0016933   -0.0032819
h    -5.2507539    3.2726672    0.0967443  0.00   -0.0002308    0.0053871    0.0005480
h    -5.8198887    1.5960642   -0.2843605  0.00   -0.0034906    0.0004886   -0.0009384
h    -4.7470538    2.4826487   -1.4401343  0.00    0.0000923    0.0005927   -0.0017570
n    -3.3444041    0.4060820   -0.2617562  0.00    0.2615293    0.0886022   -0.0293624
h    -3.9386367    1.5646374    1.4326979  0.00   -0.0002238   -0.0009228   -0.0017106
h    -3.5528252    0.4235086   -1.2919256  0.00    0.0151658    0.0074966   -0.0022831
h    -2.3194900    0.2717374   -0.2677411  0.00    6.6984394    9.7910659   -3.5834959
o    -2.6601912    3.9595110    0.7407756  0.00   -0.0032577   -0.0645108   -0.0248593
o    -1.3739576    2.2204895   -0.2816607  0.00   -0.0030614   -0.0129532    0.0144537
h    -1.6297443    1.2743837   -0.6343588  0.00   -6.9839327   -9.8962060    3.6053413
    13
 Energy =       0.9479952024
c    -3.6824368    1.7014975    0.3389257  0.00    0.0042425   -0.0075895    0.0012934
c    -2.5713919    2.7482413    0.2145730  0.00    0.0073245    0.0456919    0.0118943
c    -5.0107736    2.2075418   -0.2730093  0.00   -0.0012544    0.0042917   -0.0019539
h    -5.3462433    3.1462075    0.2332247  0.00   -0.0020151    0.0051309    0.0006480
h    -5.8111595    1.4373111   -0.1534704  0.00   -0.0055854   -0.0028165    0.0007071
h    -4.8867528    2.4352357   -1.3595575  0.00    0.0008327    0.0019556   -0.0051427
n    -3.2850683    0.4230615   -0.3061296  0.00    0.1630585    0.0543072   -0.0181586
h    -3.8167788    1.5288754    1.4357808  0.00   -0.0007530   -0.0020093    0.0028014
h    -3.5331601    0.4393796   -1.3269326  0.00    0.0091503    0.0039807   -0.0021970
h    -2.2534147    0.3464837   -0.3267045  0.00    4.2180722    6.1680302   -2.2554811
o    -2.7409688    4.0095377    0.7217276  0.00   -0.0037868   -0.0314087   -0.0103764
o    -1.3830261    2.3686095   -0.4052540  0.00    0.0077668    0.0024551    0.0078412
h    -1.5371322    1.3843118   -0.7065923  0.00   -4.3970528   -6.2420193    2.2681243
    13
 Energy =       0.4055224461
c    -3.6816226    1.6879549    0.3196208  0.00    0.0009663   -0.0017400   -0.0000794
c    -2.6171423    2.7833402    0.2151889  0.00   -0.0044975   -0.0078256   -0.0050464
c    -5.0272593    2.1346165   -0.2768039  0.00    0.0012029    0.0002108   -0.0011355
h    -5.4120143    3.0334177    0.2592138  0.00   -0.0004683    0.0018598    0.0005913
h    -5.7779863    1.3176898   -0.1830541  0.00   -0.0014828   -0.0010128   -0.0001051
h    -4.9134508    2.3955938   -1.3522767  0.00    0.0007419    0.0002488   -0.0004397
n    -3.2508515    0.4240109   -0.3180011  0.00    0.0325270    0.0137398   -0.0085693
h    -3.8102448    1.5112389    1.4136670  0.00   -0.0004637   -0.0001558   -0.0003158
h    -3.5260204    0.4014365   -1.3312724  0.00    0.0005546    0.0005849   -0.0009984
h    -2.1935314    0.4128008   -0.3229376  0.00    1.5268205    2.2146163   -0.8019605
o    -2.8196368    4.0116712    0.8475254  0.00   -0.0026186    0.0096621    0.0099995
o    -1.4112851    2.5273626   -0.4486615  0.00    0.0114703    0.0110848    0.0003896
h    -1.4172615    1.5351603   -0.7356271  0.00   -1.5647526   -2.2412730    0.8076697
    13
 Energy =       0.2836264313
c    -3.6681754    1.6990679    0.3177515  0.00    0.0016385   -0.0027662   -0.0004627
c    -2.6422108    2.8267966    0.1502951  0.00   -0.0012690   -0.0070591   -0.0044613
c    -5.0475150    2.0802956   -0.2506766  0.00   -0.0002219    0.0009550   -0.0009827
h    -5.4496173    2.9787242    0.2714131  0.00   -0.0003279    0.0012502    0.0001683
h    -5.7644102    1.2384781   -0.1124382  0.00   -0.0019307   -0.0018826   -0.0000327
h    -4.9763482    2.3145375   -1.3368620  0.00    0.0002808    0.0005404   -0.0015578
n    -3.2230953    0.4271870   -0.2912011  0.00    0.0183640    0.0072777   -0.0045683
h    -3.7585515    1.5537259    1.4214012  0.00   -0.0001621   -0.0004740    0.0010385
h    -3.4843178    0.3894825   -1.3075490  0.00    0.0004197    0.0002155   -0.0008461
h    -2.1662656    0.4174205   -0.2824923  0.00    0.9476290    1.3732235   -0.4976854
o    -2.9033216    4.0894600    0.6887723  0.00   -0.0022671    0.0124570    0.0086769
o    -1.4136542    2.5791637   -0.4705174  0.00    0.0066155    0.0078686    0.0008081
h    -1.3608242    1.5819547   -0.7113151  0.00   -0.9687688   -1.3916059    0.4999052
    13
 Energy =       0.2371915619
c    -3.6360293    1.6944297    0.3176346  0.00    0.0026399   -0.0017228   -0.0000797
c    -2.6291744    2.8287728    0.0816306  0.00    0.0003458   -0.0053561   -0.0037097
c    -5.0623094    2.0733398   -0.1362754  0.00   -0.0038874    0.0007438    0.0002864
h    -5.4306441    2.9606892    0.4301662  0.00   -0.0012931    0.0019304    0.0010851
h    -5.7612153    1.2242257    0.0455325  0.00   -0.0026101   -0.0018930    0.0002737
h    -5.0782019    2.3231749   -1.2243383  0.00    0.0000630    0.0011607   -0.0048731
n    -3.2369530    0.4317212   -0.3411499  0.00    0.0146593    0.0040000   -0.0027197
h    -3.6384499    1.5366621    1.4265438  0.00   -0.0001903   -0.0006068    0.0046164
h    -3.5397578    0.4279278   -1.3479573  0.00   -0.0001223   -0.0001543   -0.0030993
h    -2.1809602    0.4017991   -0.3748487  0.00    0.7354404    1.0630186   -0.3855618
o    -2.8856245    4.0995666    0.5976996  0.00   -0.0014224    0.0096905    0.0065728
o    -1.4194800    2.5842105   -0.5759245  0.00    0.0060253    0.0060276    0.0002132
h    -1.3595072    1.5897748   -0.8121317  0.00   -0.7496483   -1.0768385    0.3869957
    13
 Energy =       0.1596990269
c    -3.6124540    1.6972533    0.3108134  0.00    0.0024452   -0.0027680   -0.0008066
c    -2.6484627    2.8519327   -0.0002461  0.00    0.0023919   -0.0042765   -0.0031989
c    -5.0731477    2.0374766   -0.0512812  0.00   -0.0037704    0.0010438    0.0008300
h    -5.4271969    2.9169127    0.5337762  0.00   -0.0008872    0.0008202    0.0005759
h    -5.7366160    1.1718041    0.1777847  0.00   -0.0023219   -0.0017870    0.0005228
h    -5.1647172    2.2808328   -1.1365291  0.00   -0.0001089    0.0011306   -0.0043665
n    -3.2371014    0.4379317   -0.3621177  0.00    0.0064348    0.0017746   -0.0010161
h    -3.5403100    1.5496290    1.4184413  0.00   -0.0000494   -0.0006930    0.0042791
h    -3.5315552    0.4619623   -1.3703955  0.00   -0.0001244   -0.0000280   -0.0017951
h    -2.1835666    0.3800397   -0.3836100  0.00    0.3894793    0.5617319   -0.2037418
o    -2.9505983    4.1400664    0.4389465  0.00   -0.0005325    0.0082944    0.0040597
o    -1.4311862    2.6216541   -0.6448043  0.00    0.0020645    0.0038564    0.0008288
h    -1.3213949    1.6287986   -0.8441967  0.00   -0.3950208   -0.5690993    0.2038286
    13
 Energy =       0.1131494996
c    -3.5933648    1.7020475    0.3011392  0.00    0.0020632   -0.0027166   -0.0010041
c    -2.6738491    2.8720597   -0.0798760  0.00    0.0027150   -0.0037935   -0.0027191
c    -5.0786686    2.0058101    0.0245462  0.00   -0.0029471    0.0008890    0.0009745
h    -5.4173058    2.8827447    0.6210514  0.00   -0.0005213    0.0002887    0.0003457
h    -5.7068508    1.1278757    0.2999826  0.00   -0.0019128   -0.0015968    0.0005722
h    -5.2401185    2.2343392   -1.0549143  0.00   -0.0003088    0.0009155   -0.0035459
n    -3.2412417    0.4441453   -0.3817980  0.00    0.0013299    0.0004793    0.0004587
h    -3.4528106    1.5678296    1.4031377  0.00    0.0001513   -0.0005843    0.0034544
h    -3.5082799    0.4999615   -1.3966411  0.00   -0.0004652    0.0003437   -0.0018915
h    -2.1920067    0.3457800   -0.3693202  0.00    0.1934929    0.2763839   -0.0998623
o    -3.0278974    4.1710414    0.2801933  0.00   -0.0006431    0.0076949    0.0027768
o    -1.4432907    2.6566306   -0.7027749  0.00    0.0003420    0.0030161    0.0009242
h    -1.2826222    1.6660287   -0.8581443  0.00   -0.1932961   -0.2813200    0.0995164
    13
 Energy =       0.0861663180
c    -3.5730801    1.7074960    0.2901156  0.00    0.0016660   -0.0018466   -0.0008436
c    -2.6973661    2.8856181   -0.1631688  0.00    0.0026812   -0.0031826   -0.0022197
c    -5.0766927    1.9853744    0.1084382  0.00   -0.0024185    0.0004525    0.0011207
h    -5.3897846    2.8653422    0.7140858  0.00   -0.0003594    0.0001898    0.0004526
h    -5.6714689    1.1021289    0.4351032  0.00   -0.0016696   -0.0013970    0.0006010
h    -5.3116624    2.1941895   -0.9611270  0.00   -0.0005291    0.0006666   -0.0032218
n    -3.2572559    0.4478119   -0.4041477  0.00   -0.0014561   -0.0003102    0.0004009
h    -3.3600045    1.5870120    1.3817350  0.00    0.0003465   -0.0003403    0.0031150
h    -3.4960872    0.5342074   -1.4237784  0.00   -0.0006170    0.0006274   -0.0015795
h    -2.2177627    0.2918383   -0.3573375  0.00    0.0863230    0.1198329   -0.0428658
o    -3.0992767    4.1884258    0.1214402  0.00   -0.0004899    0.0060561    0.0016034
o    -1.4577847    2.6859810   -0.7724546  0.00   -0.0003941    0.0025700    0.0007951
h    -1.2500805    1.7008686   -0.8823224  0.00   -0.0830830   -0.1233187    0.0426417
    13
 Energy =       0.0730174846
c    -3.5548237    1.7146702    0.2781479  0.00    0.0012036   -0.0012441   -0.0006307
c    -2.7221944    2.8958073   -0.2452469  0.00    0.0024372   -0.0030847   -0.0017564
c    -5.0684555    1.9733240    0.1857192  0.00   -0.0016741    0.0001185    0.0009085
h    -5.3545685    2.8613103    0.7928071  0.00   -0.0002079    0.0001818    0.0004704
h    -5.6314337    1.0900144    0.5635089  0.00   -0.0013824   -0.0012198    0.0005800
h    -5.3705105    2.1573516   -0.8708829  0.00   -0.0005766    0.0004106   -0.0025972
n    -3.2782809    0.4483236   -0.4192194  0.00   -0.0036512   -0.0002881    0.0003731
h    -3.2751575    1.6116147    1.3559013  0.00    0.0004047   -0.0001373    0.0024980
h    -3.4805845    0.5557728   -1.4446666  0.00   -0.0006509    0.0008132   -0.0013903
h    -2.2552735    0.2234198   -0.3306021  0.00    0.0371757    0.0462729   -0.0162279
o    -3.1728838    4.1969946   -0.0373129  0.00   -0.0006768    0.0054983    0.0009719
o    -1.4736396    2.7123423   -0.8408658  0.00   -0.0006526    0.0027650    0.0005602
h    -1.2205009    1.7353487   -0.9007063  0.00   -0.0317486   -0.0500862    0.0162404
    13
 Energy =       0.0677152718
c    -3.5341670    1.7225336    0.2657329  0.00    0.0011876   -0.0009634   -0.0004787
c    -2.7475368    2.9017512   -0.3322515  0.00    0.0025578   -0.0027039   -0.0016554
c    -5.0525080    1.9693374    0.2720886  0.00   -0.0018275   -0.0000723    0.0011503
h    -5.3048378    2.8676978    0.8791016  0.00   -0.0002340    0.0003061    0.0006778
h    -5.5820709    1.0900156    0.7039207  0.00   -0.0014795   -0.0012884    0.0007672
h    -5.4260138    2.1281085   -0.7659591  0.00   -0.0008571    0.0003062   -0.0028490
n    -3.3047454    0.4465725   -0.4316888  0.00   -0.0039243   -0.0002828   -0.0005836
h    -3.1827960    1.6381142    1.3243521  0.00    0.0006522    0.0000147    0.0028367
h    -3.4773564    0.5647099   -1.4609476  0.00   -0.0004372    0.0006978   -0.0007368
h    -2.3045104    0.1508867   -0.3093944  0.00    0.0163627    0.0157902   -0.0053397
o    -3.2433965    4.1957205   -0.1960660  0.00   -0.0004206    0.0049140    0.0003944
o    -1.4962284    2.7334245   -0.9262053  0.00   -0.0006988    0.0032159    0.0002599
h    -1.2021395    1.7674217   -0.9361017  0.00   -0.0108813   -0.0199341    0.0055568
    13
 Energy =       0.0660141893
c    -3.5148260    1.7353411    0.2570726  0.00    0.0004949   -0.0012385   -0.0001937
c    -2.7795646    2.9062583   -0.4212757  0.00    0.0025591   -0.0022833   -0.0013393
c    -5.0318392    1.9667037    0.3475091  0.00   -0.0010902   -0.0001411    0.0009226
h    -5.2584528    2.8808580    0.9407054  0.00   -0.0000548    0.0003238    0.0006098
h    -5.5246489    1.0951172    0.8354667  0.00   -0.0014715   -0.0015598    0.0009358
h    -5.4673795    2.0891895   -0.6709951  0.00   -0.0009440    0.0002319   -0.0026267
n    -3.3194775    0.4411433   -0.4173697  0.00   -0.0028362   -0.0003125   -0.0002078
h    -3.1009315    1.6851148    1.2950291  0.00    0.0007646    0.0000761    0.0026998
h    -3.4695956    0.5441086   -1.4516209  0.00   -0.0001899    0.0003602   -0.0006168
h    -2.3410835    0.0958427   -0.2636964  0.00    0.0067097    0.0042890   -0.0014656
o    -3.3207155    4.1876283   -0.3548191  0.00   -0.0003725    0.0049998   -0.0001081
o    -1.5309937    2.7505956   -1.0243549  0.00   -0.0006318    0.0037494   -0.0001466
h    -1.1987987    1.7983930   -0.9850696  0.00   -0.0029375   -0.0084952    0.0015366
    13
 Energy =       0.0658003745
c    -3.4949142    1.7568962    0.2623314  0.00   -0.0016924    0.0002243    0.0011934
c    -2.8043709    2.9005810   -0.5080681  0.00   -0.0003189    0.0008383   -0.0000068
c    -5.0076935    1.9808797    0.4110899  0.00    0.0000397   -0.0003326    0.0006733
h    -5.2154100    2.9215011    0.9700498  0.00    0.0000781    0.0009709    0.0009561
h    -5.4701210    1.1292462    0.9621045  0.00   -0.0018205   -0.0023566    0.0014582
h    -5.4898488    2.0506077   -0.5919264  0.00   -0.0012702    0.0001377   -0.0031776
n    -3.3216341    0.4293308   -0.3538870  0.00   -0.0016693   -0.0028623    0.0008709
h    -3.0335726    1.7635112    1.2823214  0.00    0.0011605    0.0003288    0.0035458
h    -3.4802472    0.4821816   -1.3916014  0.00   -0.0003203    0.0000261   -0.0023726
h    -2.3504607    0.0732229   -0.1863278  0.00    0.0026807    0.0013219   -0.0003484
o    -3.3472372    4.1802119   -0.4590877  0.00    0.0003865    0.0021848   -0.0002579
o    -1.5926112    2.7271799   -1.1831080  0.00    0.0038331    0.0027747   -0.0027210
h    -1.2501854    1.7809440   -1.1273090  0.00   -0.0010872   -0.0032559    0.0001867
    13
 Energy =       0.0655659998
c    -3.5000414    1.7445188    0.2441306  0.00   -0.0018593    0.0014597    0.0018631
c    -2.8011675    2.8921097   -0.5114603  0.00   -0.0033743   -0.0018001    0.0012317
c    -5.0067555    1.9878817    0.4244027  0.00   -0.0001734   -0.0004776    0.0007359
h    -5.1911559    2.9204828    1.0051907  0.00   -0.0000680    0.0013222    0.0011707
h    -5.4720622    1.1317535    0.9654893  0.00   -0.0016717   -0.0022541    0.0013906
h    -5.5047195    2.0850246   -0.5689421  0.00   -0.0014394    0.0001940   -0.0033842
n    -3.3578738    0.4313556   -0.4117860  0.00   -0.0019029   -0.0040161    0.0008245
h    -3.0216429    1.7172790    1.2562439  0.00    0.0014343    0.0003511    0.0039107
h    -3.5169374    0.5196175   -1.4475985  0.00   -0.0003809    0.0002314   -0.0032457
h    -2.3937257    0.0489968   -0.2617263  0.00    0.0028100    0.0003389    0.0000898
o    -3.3976316    4.1525035   -0.5512360  0.00   -0.0040496    0.0075812    0.0007375
o    -1.5322070    2.7388426   -1.0875705  0.00    0.0090407    0.0030707   -0.0053229
h    -1.1623864    1.8059278   -0.9685559  0.00    0.0016343   -0.0060012   -0.0000017
    13
 Energy =       0.0652225751
c    -3.4938513    1.7229220    0.2208493  0.00   -0.0001683    0.0042483    0.0016085
c    -2.7908864    2.8750146   -0.5181184  0.00   -0.0026291   -0.0019536    0.0006413
c    -4.9825400    2.0080630    0.4848750  0.00   -0.0016986   -0.0007647    0.0014215
h    -5.1098463    2.9284467    1.1015861  0.00   -0.0005789    0.0023767    0.0018744
h    -5.4460878    1.1504030    1.0216072  0.00   -0.0007771   -0.0010283    0.0006969
h    -5.5261341    2.1506742   -0.4791194  0.00   -0.0019427    0.0003085   -0.0035293
n    -3.4243598    0.4361623   -0.5004642  0.00   -0.0033374   -0.0051294    0.0007187
h    -2.9693082    1.6349092    1.2070219  0.00    0.0022229    0.0002618    0.0044912
h    -3.6312253    0.5765296   -1.5234695  0.00   -0.0008240    0.0002516   -0.0056710
h    -2.4644354    0.0183509   -0.4204794  0.00    0.0052638   -0.0025312    0.0004701
o    -3.4176413    4.1161884   -0.6226962  0.00   -0.0038272    0.0062138    0.0008998
o    -1.4932433    2.7391202   -1.0251389  0.00    0.0062225    0.0018391   -0.0036437
h    -1.1087478    1.8195099   -0.8598717  0.00    0.0020741   -0.0040926    0.0000215
    13
 Energy =       0.0648317044
c    -3.4935374    1.7065852    0.2010312  0.00   -0.0001437    0.0029425    0.0011216
c    -2.7800984    2.8557385   -0.5278838  0.00   -0.0016587   -0.0052413    0.0015814
c    -4.9650119    2.0204433    0.5160831  0.00   -0.0013532   -0.0007236    0.0008691
h    -5.0518492    2.9331165    1.1489380  0.00   -0.0003964    0.0015126    0.0011410
h    -5.4309486    1.1650291    1.0524353  0.00   -0.0002832   -0.0003356    0.0002269
h    -5.5339908    2.1914225   -0.4265784  0.00   -0.0010963    0.0001652   -0.0018936
n    -3.4728354    0.4407277   -0.5549489  0.00   -0.0040086   -0.0020935    0.0025474
h    -2.9456594    1.5782724    1.1675490  0.00    0.0013938    0.0002304    0.0024850
h    -3.7401108    0.6106760   -1.5593651  0.00   -0.0009260    0.0003596   -0.0056786
h    -2.5082699    0.0250648   -0.5514220  0.00    0.0055138   -0.0031533    0.0003008
o    -3.4468124    4.0640185   -0.7465547  0.00   -0.0073967    0.0097659    0.0002448
o    -1.4437672    2.7428870   -0.9315837  0.00    0.0071815    0.0008813   -0.0033108
h    -1.0454155    1.8423126   -0.7011186  0.00    0.0031738   -0.0043102    0.0003650
    13
 Energy =       0.0644214439
c    -3.4906443    1.6860088    0.1830665  0.00   -0.0000372    0.0030866    0.0008525
c    -2.7609906    2.8346524   -0.5274575  0.00   -0.0007073   -0.0033390    0.0011472
c    -4.9402606    2.0359732    0.5562389  0.00   -0.0011907   -0.0008324    0.0008187
h    -4.9769123    2.9332481    1.2157186  0.00   -0.0003000    0.0017778    0.0012675
h    -5.4144308    1.1800736    1.0840266  0.00   -0.0000789   -0.0002146    0.0000782
h    -5.5352243    2.2513371   -0.3610789  0.00   -0.0012791    0.0002868   -0.0017705
n    -3.5299464    0.4489663   -0.6177261  0.00   -0.0055981   -0.0017067    0.0052350
h    -2.9190201    1.5040443    1.1267688  0.00    0.0015554    0.0000321    0.0022903
h    -3.8729608    0.6582734   -1.5927921  0.00   -0.0020817    0.0008730   -0.0078481
h    -2.5638663    0.0425919   -0.7101752  0.00    0.0080208   -0.0041655   -0.0004805
o    -3.4397398    4.0158850   -0.8267227  0.00   -0.0050971    0.0062861    0.0001202
o    -1.4050408    2.7377796   -0.8550417  0.00    0.0050360   -0.0000625   -0.0019304
h    -1.0092698    1.8474604   -0.5882436  0.00    0.0017580   -0.0020218    0.0002197
    13
 Energy =       0.0640561631
c    -3.4930339    1.6687294    0.1663618  0.00   -0.0006131    0.0014347    0.0004075
c    -2.7376988    2.8092173   -0.5275198  0.00   -0.0001241   -0.0046958    0.0022909
c    -4.9237389    2.0540379    0.5710869  0.00   -0.0004642   -0.0004965    0.0002202
h    -4.9211636    2.9376679    1.2477279  0.00   -0.0000483    0.0008977    0.0005109
h    -5.4150312    1.2019423    1.0893188  0.00   -0.0000541   -0.0002259    0.0000239
h    -5.5270648    2.3065905   -0.3298432  0.00   -0.0006035    0.0001249   -0.0006827
n    -3.5777176    0.4561099   -0.6635303  0.00   -0.0033220   -0.0005361    0.0034352
h    -2.9161213    1.4437876    1.0956610  0.00    0.0007926    0.0000244    0.0008667
h    -3.9787045    0.6943560   -1.6070414  0.00   -0.0012402    0.0005798   -0.0042004
h    -2.6163348    0.0684453   -0.8320155  0.00    0.0046095   -0.0021452   -0.0004878
o    -3.4234460    3.9507223   -0.9467544  0.00   -0.0068737    0.0075952   -0.0015257
o    -1.3583688    2.7308620   -0.7473798  0.00    0.0063153   -0.0005890   -0.0013412
h    -0.9698826    1.8538258   -0.4294905  0.00    0.0016258   -0.0019684    0.0004825
    13
 Energy =       0.0638552235
c    -3.4887039    1.6477085    0.1482877  0.00    0.0003750    0.0019040    0.0004201
c    -2.7205340    2.7891327   -0.5275602  0.00    0.0001815    0.0003357    0.0000763
c    -4.8922768    2.0645928    0.6150266  0.00   -0.0004442   -0.0006717    0.0006543
h    -4.8376772    2.9199040    1.3262078  0.00   -0.0000322    0.0015144    0.0012097
h    -5.3953093    1.2087989    1.1156128  0.00    0.0000483   -0.0002450    0.0000580
h    -5.5162489    2.3733957   -0.2551034  0.00   -0.0012300    0.0005268   -0.0014074
n    -3.6360292    0.4717863   -0.7252865  0.00   -0.0019559   -0.0019956    0.0029047
h    -2.8920609    1.3666107    1.0500509  0.00    0.0011148   -0.0003039    0.0014097
h    -4.0990510    0.7535191   -1.6277692  0.00   -0.0019319    0.0008910   -0.0041860
h    -2.6890395    0.0952280   -0.9790851  0.00    0.0040951   -0.0018437   -0.0011400
o    -3.4002870    3.9015085   -1.0103028  0.00   -0.0000433    0.0000166    0.0002391
o    -1.3367109    2.7282307   -0.6881925  0.00    0.0002100   -0.0003802   -0.0001273
h    -0.9543785    1.8558783   -0.3553046  0.00   -0.0003873    0.0002516   -0.0001113
    13
 Energy =       0.0638161140
c    -3.4912152    1.6449083    0.1439341  0.00    0.0000113    0.0005497    0.0000950
c    -2.7171624    2.7823077   -0.5315343  0.00   -0.0001364   -0.0011037    0.0007992
c    -4.8945247    2.0669851    0.6033248  0.00   -0.0001477   -0.0002007    0.0002344
h    -4.8399557    2.9217518    1.3131076  0.00   -0.0000073    0.0004556    0.0003579
h    -5.4036242    1.2139700    1.1023626  0.00    0.0000056   -0.0000892    0.0000285
h    -5.5124379    2.3769990   -0.2691741  0.00   -0.0003869    0.0001620   -0.0004340
n    -3.6378172    0.4689072   -0.7270446  0.00   -0.0006002   -0.0005868    0.0008689
h    -2.9014178    1.3631990    1.0485500  0.00    0.0003530   -0.0000937    0.0004499
h    -4.1025465    0.7492295   -1.6269065  0.00   -0.0005765    0.0002764   -0.0012586
h    -2.6913917    0.0973935   -0.9830649  0.00    0.0012738   -0.0005371   -0.0003414
o    -3.3992164    3.8667951   -1.0752118  0.00   -0.0018739    0.0019319   -0.0008732
o    -1.3261149    2.7415738   -0.6380740  0.00    0.0015991   -0.0000720   -0.0001779
h    -0.9408823    1.8822742   -0.2736872  0.00    0.0004861   -0.0006923    0.0002513
    13
 Energy =       0.0638074477
c    -3.4906400    1.6418482    0.1408543  0.00    0.0000012   -0.0000127   -0.0000018
c    -2.7156179    2.7795277   -0.5329410  0.00   -0.0000008    0.0000813   -0.0000558
c    -4.8895517    2.0672752    0.6088515  0.00    0.0000043    0.0000043   -0.0000090
h    -4.8279349    2.9171637    1.3230112  0.00   -0.0000029   -0.0000091   -0.0000109
h    -5.4004949    1.2138543    1.1051728  0.00    0.0000003    0.0000021   -0.0000009
h    -5.5095107    2.3850411   -0.2586854  0.00    0.0000122   -0.0000083    0.0000097
n    -3.6462283    0.4712827   -0.7347910  0.00    0.0000310    0.0000138   -0.0000553
h    -2.8985608    1.3530157    1.0410283  0.00   -0.0000135    0.0000073   -0.0000132
h    -4.1161758    0.7575661   -1.6290610  0.00    0.0000318   -0.0000205    0.0000536
h    -2.7030995    0.0998268   -0.9994640  0.00   -0.0000604    0.0000276    0.0000268
o    -3.3962760    3.8576789   -1.0864561  0.00    0.0001282   -0.0001258    0.0000823
o    -1.3249294    2.7445564   -0.6294859  0.00   -0.0000909   -0.0000105    0.0000011
h    -0.9392872    1.8876572   -0.2614523  0.00   -0.0000406    0.0000505   -0.0000265
    13
 Energy =       0.0638073168
c    -3.4905274    1.6413397    0.1402399  0.00    0.0000000    0.0000003   -0.0000001
c    -2.7156075    2.7789343   -0.5337779  0.00    0.0000002   -0.0000075    0.0000056
c    -4.8888382    2.0673442    0.6095475  0.00   -0.0000005   -0.0000005    0.0000006
h    -4.8261684    2.9167904    1.3241567  0.00    0.0000001    0.0000005    0.0000005
h    -5.3998879    1.2139349    1.1057868  0.00    0.0000000   -0.0000000    0.0000000
h    -5.5093264    2.3859447   -0.2573317  0.00   -0.0000005    0.0000002   -0.0000004
n    -3.6473474    0.4712394   -0.7358137  0.00   -0.0000009   -0.0000004    0.0000012
h    -2.8979527    1.3517489    1.0398587  0.00    0.0000005   -0.0000000    0.0000005
h    -4.1184599    0.7580887   -1.6293401  0.00   -0.0000009    0.0000005   -0.0000016
h    -2.7045031    0.0999995   -1.0020086  0.00    0.0000019   -0.0000004   -0.0000007
o    -3.3968125    3.8545118   -1.0919035  0.00   -0.0000113    0.0000117   -0.0000070
o    -1.3245287    2.7460577   -0.6266046  0.00    0.0000080    0.0000006   -0.0000005
h    -0.9383468    1.8903601   -0.2562278  0.00    0.0000034   -0.0000049    0.0000019
    13
 Energy =       0.0638073166
c    -3.4905302    1.6413524    0.1402559  0.00   -0.0000000    0.0000000   -0.0000000
c    -2.7156078    2.7789497   -0.5337562  0.00    0.0000000   -0.0000000    0.0000000
c    -4.8888564    2.0673427    0.6095283  0.00   -0.0000000   -0.0000000    0.0000000
h    -4.8262138    2.9167992    1.3241268  0.00    0.0000000    0.0000000    0.0000000
h    -5.3999048    1.2139330    1.1057683  0.00    0.0000000   -0.0000000    0.0000000
h    -5.5093293    2.3859233   -0.2573681  0.00   -0.0000000    0.0000000   -0.0000000
n    -3.6473197    0.4712399   -0.7357866  0.00   -0.0000000   -0.0000000    0.0000000
h    -2.8979690    1.3517809    1.0398893  0.00    0.0000000   -0.0000000    0.0000000
h    -4.1183933    0.7580767   -1.6293361  0.00   -0.0000000    0.0000000   -0.0000000