    13
 Energy =       0.1163095535
c    -3.7133889    1.6950595    0.3173519  0.00   -0.1066278    0.0634768    0.0045991
c    -2.4962693    2.6345192    0.2419999  0.00    0.3730128   -0.0203174    0.1101621
c    -4.9565486    2.3924193   -0.2155699  0.00    0.0485989    0.0229600   -0.0045844
h    -5.2099685    3.2528291    0.4143399  0.00    0.0021123   -0.0142882   -0.0098934
h    -5.8205883    1.7190695   -0.2147749  0.00    0.0112501    0.0106718   -0.0017688
h    -4.8083986    2.7651692   -1.2348596  0.00   -0.0002147    0.0008148    0.0199752
n    -3.4097890    0.4519539   -0.4549189  0.00    0.0247628   -0.0710217   -0.0072770
h    -3.8575589    1.4177196    1.3669296  0.00    0.0048862   -0.0128365   -0.0266656
h    -3.2072391   -0.2948399    0.2179739  0.00   -0.0177405    0.0298573   -0.0197726
h    -4.2689788    0.1396900   -0.9176007  0.00    0.0238508    0.0219933    0.0244049
o    -1.4040496    2.4172293    0.7380088  0.00   -0.2661135    0.0521844   -0.1151843
o    -2.7835192    3.7545589   -0.4737969  0.00   -0.0701103   -0.0674929    0.0016934
h    -2.2118794    3.7013989   -1.2803496  0.00   -0.0276671   -0.0160018    0.0243114
    13
 Energy =       0.0837133927
c    -3.6939460    1.6990415    0.3251030  0.00   -0.0359578    0.0209257    0.0037060
c    -2.5389323    2.6896447    0.2474911  0.00    0.1306284   -0.0088007    0.0321538
c    -4.9812570    2.3399440   -0.1978836  0.00    0.0246486    0.0109091   -0.0008873
h    -5.2100659    3.2684144    0.3687392  0.00    0.0013463   -0.0008088   -0.0016170
h    -5.8380298    1.6414609   -0.0886624  0.00   -0.0001149   -0.0004309    0.0008734
h    -4.8586031    2.6210876   -1.2655424  0.00    0.0041875    0.0020654    0.0026677
n    -3.3687817    0.4791488   -0.4525336  0.00    0.0175510   -0.0206634    0.0041259
h    -3.8169682    1.4399380    1.3961701  0.00    0.0018837   -0.0048832   -0.0091534
h    -3.1662795   -0.2983682    0.2085202  0.00   -0.0071246    0.0096740   -0.0064169
h    -4.1812751    0.1579942   -1.0281745  0.00    0.0006233    0.0040161    0.0008126
o    -1.3559024    2.4362593    0.7969623  0.00   -0.0935404    0.0167506   -0.0402209
o    -2.7675027    3.8671982   -0.4320785  0.00   -0.0540241   -0.0066122    0.0507235
h    -2.3706325    3.7050132   -1.3733775  0.00    0.0098930   -0.0221416   -0.0367674
    13
 Energy =       0.0788674298
c    -3.6908279    1.6777863    0.3059049  0.00   -0.0229905    0.0133069    0.0036506
c    -2.5728141    2.7140195    0.2802697  0.00    0.0810714   -0.0071047    0.0188828
c    -5.0105308    2.2841834   -0.1890208  0.00    0.0161953    0.0076379   -0.0002827
h    -5.2819351    3.1752064    0.4223174  0.00    0.0000127    0.0014991    0.0001863
h    -5.8346827    1.5404124   -0.1147985  0.00   -0.0015811   -0.0016924    0.0010269
h    -4.9000849    2.6217177   -1.2440490  0.00    0.0033694    0.0020431    0.0001013
n    -3.3207083    0.5021703   -0.5189578  0.00    0.0169059   -0.0101704    0.0028845
h    -3.8066349    1.3737145    1.3701021  0.00    0.0006193   -0.0034605   -0.0046060
h    -3.1559667   -0.3179485    0.1079545  0.00   -0.0042262    0.0031834   -0.0016510
h    -4.0882849    0.2133124   -1.1770461  0.00   -0.0045316   -0.0012460   -0.0049396
o    -1.3764729    2.4744845    0.8626621  0.00   -0.0573975    0.0113496   -0.0240037
o    -2.8071136    3.9239515   -0.3495240  0.00   -0.0408075    0.0009293    0.0485835
h    -2.3021195    3.8637663   -1.2510810  0.00    0.0133603   -0.0162752   -0.0398330
    13
 Energy =       0.0776545999
c    -3.7084729    1.6875535    0.3135309  0.00   -0.0177911    0.0143234    0.0061088
c    -2.6046847    2.7403928    0.3139110  0.00    0.0669164   -0.0064302    0.0152579
c    -5.0103675    2.2440442   -0.2942315  0.00    0.0095303    0.0057021   -0.0013092
h    -5.3420156    3.1532199    0.2635643  0.00   -0.0013613    0.0037373    0.0019481
h    -5.8221690    1.4847597   -0.2438039  0.00   -0.0020199   -0.0014290    0.0006307
h    -4.8385524    2.5404789   -1.3558190  0.00    0.0028191    0.0020566   -0.0026817
n    -3.2682826    0.4778695   -0.4305801  0.00    0.0222697   -0.0082756   -0.0017908
h    -3.8875158    1.4352077    1.3859495  0.00    0.0002505   -0.0028354   -0.0003840
h    -3.1826745   -0.3230278    0.2431322  0.00   -0.0025333   -0.0020095    0.0043039
h    -3.9675637    0.1775328   -1.1621951  0.00   -0.0093732   -0.0025018   -0.0101403
o    -1.4133009    2.5126985    0.9266229  0.00   -0.0466772    0.0095709   -0.0193102
o    -2.8398924    3.9605256   -0.2983048  0.00   -0.0370947    0.0019418    0.0471383
h    -2.2626842    3.9555214   -1.1570430  0.00    0.0150647   -0.0138506   -0.0397715
    13
 Energy =       0.0759825452
c    -3.7094197    1.6993269    0.3145077  0.00   -0.0163467    0.0118383    0.0064869
c    -2.6064009    2.7525783    0.2635014  0.00    0.0606410   -0.0079619    0.0143358
c    -5.0281571    2.2451173   -0.2663498  0.00    0.0083311    0.0052127   -0.0007956
h    -5.3385597    3.1699879    0.2774237  0.00   -0.0012546    0.0036911    0.0020826
h    -5.8419289    1.4912186   -0.1724148  0.00   -0.0025440   -0.0018848    0.0006122
h    -4.8867867    2.5126889   -1.3407172  0.00    0.0026533    0.0020273   -0.0033219
n    -3.2891174    0.4810513   -0.4246304  0.00    0.0300103    0.0094091   -0.0043051
h    -3.8604142    1.4630892    1.3953417  0.00    0.0000803   -0.0025316    0.0002501
h    -3.0645204   -0.2809740    0.2771905  0.00    0.0014898   -0.0131832    0.0163660
h    -4.0618399    0.1018290   -1.0524113  0.00   -0.0215893   -0.0078372   -0.0199369
o    -1.4209249    2.5622495    0.9085329  0.00   -0.0409240    0.0078284   -0.0163446
o    -2.8320924    3.9363137   -0.4256264  0.00   -0.0359506    0.0063829    0.0428446
h    -2.2080140    3.9122999   -1.2496147  0.00    0.0154033   -0.0129910   -0.0382741
    13
 Energy =       0.0743313218
c    -3.7198633    1.7082902    0.3175478  0.00   -0.0145327    0.0102108    0.0076823
c    -2.5818909    2.7219840    0.2291339  0.00    0.0527358   -0.0106998    0.0134018
c    -5.0353367    2.2923787   -0.2341814  0.00    0.0066774    0.0042267   -0.0009495
h    -5.3016296    3.2313744    0.3092834  0.00   -0.0013611    0.0041052    0.0023636
h    -5.8705011    1.5652269   -0.1152436  0.00   -0.0029821   -0.0021318    0.0005578
h    -4.9121046    2.5472851   -1.3138194  0.00    0.0023860    0.0017574   -0.0032008
n    -3.3578112    0.4701180   -0.4189481  0.00    0.0278347    0.0071073   -0.0043799
h    -3.8520517    1.4879218    1.4044935  0.00   -0.0000644   -0.0019990    0.0005818
h    -3.1411730   -0.2929386    0.2821502  0.00    0.0013201   -0.0117858    0.0143911
h    -4.1531091    0.1106589   -1.0273375  0.00   -0.0196621   -0.0075369   -0.0182430
o    -1.4334574    2.5457146    0.9533754  0.00   -0.0329462    0.0043762   -0.0106891
o    -2.7399869    3.8616912   -0.5566552  0.00   -0.0378435    0.0145375    0.0379851
h    -2.0492609    3.7970714   -1.3250656  0.00    0.0184381   -0.0121677   -0.0395011
    13
 Energy =       0.0734847775
c    -3.7166164    1.7102684    0.3134723  0.00   -0.0124688    0.0085612    0.0061823
c    -2.6137774    2.7627775    0.2343952  0.00    0.0331118   -0.0102832    0.0028310
c    -5.0501959    2.2518394   -0.2392662  0.00    0.0050563    0.0037459   -0.0009911
h    -5.3422787    3.1861158    0.2976884  0.00   -0.0011555    0.0036207    0.0019937
h    -5.8634086    1.5015044   -0.1144012  0.00   -0.0027782   -0.0020249    0.0004828
h    -4.9369294    2.5027651   -1.3204015  0.00    0.0018850    0.0014672   -0.0026193
n    -3.3133620    0.4869058   -0.4242782  0.00    0.0232763    0.0055406   -0.0039584
h    -3.8469498    1.4829129    1.3992731  0.00   -0.0001789   -0.0015674    0.0005396
h    -3.0634664   -0.2670931    0.2731195  0.00    0.0011988   -0.0102891    0.0119971
h    -4.0994505    0.0984909   -1.0219071  0.00   -0.0163827   -0.0062596   -0.0150689
o    -1.5174823    2.6961331    1.0761628  0.00   -0.0129020    0.0018257    0.0033093
o    -2.7639261    3.8497004   -0.6280144  0.00   -0.0365460    0.0165747    0.0301992
h    -2.0203329    3.7844559   -1.3411092  0.00    0.0178839   -0.0109120   -0.0348972
    13
 Energy =       0.0718837358
c    -3.7458749    1.7085582    0.3086796  0.00   -0.0129672    0.0076392    0.0068499
c    -2.5867816    2.7042830    0.2476864  0.00    0.0293212   -0.0103013    0.0008304
c    -5.0404235    2.3148589   -0.2751748  0.00    0.0040974    0.0053354   -0.0013237
h    -5.2974584    3.2661988    0.2510340  0.00   -0.0015708    0.0043772    0.0021146
h    -5.8940227    1.6060921   -0.1639240  0.00   -0.0041359   -0.0030172    0.0008028
h    -4.8911506    2.5541654   -1.3552469  0.00    0.0020035    0.0018324   -0.0032599
n    -3.3890176    0.4652268   -0.4201278  0.00    0.0251762    0.0051636   -0.0039305
h    -3.9101233    1.4887545    1.3917854  0.00   -0.0003880   -0.0021015    0.0010377
h    -3.1171647   -0.2765776    0.2825600  0.00    0.0013097   -0.0104113    0.0124725
h    -4.2051698    0.0735137   -0.9757518  0.00   -0.0176483   -0.0076213   -0.0162427
o    -1.4698491    2.5373799    1.0544848  0.00   -0.0067093    0.0011558    0.0072853
o    -2.6882145    3.8250792   -0.5800111  0.00   -0.0377166    0.0184078    0.0294435
h    -1.9129254    3.7792437   -1.2612603  0.00    0.0192281   -0.0104587   -0.0360797
    13
 Energy =       0.0706993888
c    -3.7849176    1.7009238    0.2927527  0.00   -0.0117478    0.0045286    0.0060186
c    -2.5929365    2.6642153    0.3221967  0.00    0.0262745   -0.0105516    0.0010180
c    -5.0264574    2.3556344   -0.3575455  0.00    0.0017615    0.0063108   -0.0012868
h    -5.2800875    3.3116791    0.1610657  0.00   -0.0016747    0.0041131    0.0019152
h    -5.9099953    1.6757259   -0.2966965  0.00   -0.0056028   -0.0037882    0.0009914
h    -4.8106724    2.5955373   -1.4280001  0.00    0.0021174    0.0023103   -0.0051126
n    -3.4233335    0.4666482   -0.4459771  0.00    0.0248691    0.0081978   -0.0048851
h    -4.0211971    1.4590606    1.3602565  0.00   -0.0010113   -0.0027215    0.0036654
h    -3.0855369   -0.2577916    0.2484552  0.00    0.0026287   -0.0120134    0.0139147
h    -4.2598653    0.0419177   -0.9457479  0.00   -0.0191045   -0.0084831   -0.0166167
o    -1.5047091    2.4161902    1.1523229  0.00   -0.0022495    0.0000898    0.0096978
o    -2.6258262    3.8265318   -0.4558420  0.00   -0.0349678    0.0212523    0.0250979
h    -1.8226414    3.7905038   -1.1025072  0.00    0.0187073   -0.0092449   -0.0344179
    13
 Energy =       0.0684734047
c    -3.7741709    1.7097098    0.3035525  0.00   -0.0133751    0.0051305    0.0059630
c    -2.5631191    2.6519853    0.2382912  0.00    0.0237718   -0.0093478   -0.0007746
c    -5.0388524    2.3652933   -0.3012471  0.00    0.0011313    0.0056348   -0.0011500
h    -5.2601216    3.3318018    0.2131777  0.00   -0.0017033    0.0043779    0.0022916
h    -5.9258400    1.6945771   -0.1919286  0.00   -0.0064357   -0.0041991    0.0009879
h    -4.8674253    2.5867635   -1.3846685  0.00    0.0022120    0.0023258   -0.0061135
n    -3.4709228    0.4461054   -0.4145871  0.00    0.0246023    0.0063614   -0.0064265
h    -3.9578567    1.5058012    1.3909650  0.00   -0.0015927   -0.0025111    0.0057635
h    -3.1505531   -0.2788683    0.2869902  0.00    0.0026662   -0.0120073    0.0133850
h    -4.3245505    0.0433138   -0.9029573  0.00   -0.0189423   -0.0085577   -0.0162309
o    -1.4204126    2.3933188    0.9935698  0.00    0.0030038    0.0001057    0.0114415
o    -2.6200537    3.7958482   -0.5662371  0.00   -0.0381394    0.0220880    0.0259480
h    -1.7742976    3.8011268   -1.1601872  0.00    0.0228012   -0.0094012   -0.0350849
    13
 Energy =       0.0640485624
c    -3.7774639    1.7177859    0.3028002  0.00   -0.0120544    0.0055303    0.0058590
c    -2.5375725    2.6134104    0.1587015  0.00    0.0144222   -0.0052162   -0.0023026
c    -5.0453716    2.3966356   -0.2644911  0.00    0.0005718    0.0036782   -0.0007332
h    -5.2194404    3.3781019    0.2387542  0.00   -0.0014654    0.0041453    0.0023910
h    -5.9452237    1.7535376   -0.1107167  0.00   -0.0058704   -0.0037313    0.0007552
h    -4.9090199    2.5912510   -1.3573034  0.00    0.0018768    0.0017078   -0.0053854
n    -3.5501758    0.4263790   -0.3922059  0.00    0.0213801    0.0036289   -0.0062124
h    -3.9205244    1.5500457    1.4019840  0.00   -0.0016855   -0.0015986    0.0056509
h    -3.1969990   -0.2821832    0.3067967  0.00    0.0021106   -0.0091033    0.0107781
h    -4.4383959    0.0269895   -0.8130994  0.00   -0.0170150   -0.0082833   -0.0141149
o    -1.3550232    2.3055359    0.8348167  0.00    0.0085029   -0.0000437    0.0097659
o    -2.5851426    3.7438346   -0.6616069  0.00   -0.0447840    0.0155984    0.0267681
h    -1.6678234    3.8254525   -1.1396967  0.00    0.0340105   -0.0063124   -0.0332198
    13
 Energy =       0.0595521668
c    -3.8035446    1.7183370    0.2820915  0.00   -0.0066916    0.0023775    0.0054664
c    -2.5271202    2.5548049    0.1369408  0.00    0.0044315   -0.0022701   -0.0013937
c    -5.0387993    2.4462119   -0.2891141  0.00    0.0002361    0.0026936   -0.0009207
h    -5.1616638    3.4448573    0.1926664  0.00   -0.0011618    0.0033634    0.0017572
h    -5.9658650    1.8517710   -0.1169411  0.00   -0.0041632   -0.0025730    0.0007009
h    -4.9019527    2.6079391   -1.3848271  0.00    0.0012338    0.0009300   -0.0029960
n    -3.6411248    0.4200572   -0.4075886  0.00    0.0260607    0.0195539   -0.0107249
h    -3.9542818    1.5588499    1.3783722  0.00   -0.0010529   -0.0010149    0.0026752
h    -3.1440398   -0.2495238    0.2516555  0.00    0.0099940   -0.0137552    0.0186899
h    -4.5832141   -0.0222157   -0.6543462  0.00   -0.0320222   -0.0142619   -0.0149651
o    -1.3523314    2.1663589    0.7834138  0.00    0.0081023   -0.0009595    0.0063705
o    -2.5187121    3.6994743   -0.6614530  0.00   -0.0376145    0.0068062    0.0194731
h    -1.5555267    3.8498546   -1.0061365  0.00    0.0326478   -0.0008900   -0.0241327
    13
 Energy =       0.0559269126
c    -3.8272679    1.7186533    0.2625793  0.00   -0.0029800    0.0005356    0.0033453
c    -2.5166223    2.4983264    0.1316474  0.00    0.0004666   -0.0012012   -0.0003890
c    -5.0234960    2.4893708   -0.3287942  0.00   -0.0001402    0.0016379   -0.0007338
h    -5.1037527    3.5010838    0.1309770  0.00   -0.0007728    0.0021844    0.0009576
h    -5.9751683    1.9408455   -0.1509644  0.00   -0.0024568   -0.0014907    0.0005565
h    -4.8754041    2.6210784   -1.4254713  0.00    0.0006552    0.0004811   -0.0014371
n    -3.7191356    0.4123843   -0.4139912  0.00    0.0156221    0.0106118   -0.0048695
h    -3.9968510    1.5725457    1.3563225  0.00   -0.0005295   -0.0007717    0.0010541
h    -3.1610616   -0.2384535    0.2023613  0.00    0.0050290   -0.0064812    0.0099875
h    -4.6709600   -0.0342059   -0.5489627  0.00   -0.0186419   -0.0084248   -0.0085649
o    -1.3667935    2.0450031    0.7770147  0.00    0.0052774   -0.0012281    0.0034513
o    -2.4490603    3.6577592   -0.6406016  0.00   -0.0280141    0.0016458    0.0110016
h    -1.4626030    3.8623853   -0.8473834  0.00    0.0264848    0.0025011   -0.0143594
    13
 Energy =       0.0538314398
c    -3.8532959    1.7175653    0.2417092  0.00   -0.0015418   -0.0007146    0.0026402
c    -2.5121560    2.4481984    0.1462961  0.00   -0.0007703   -0.0011549    0.0000810
c    -5.0065273    2.5313692   -0.3727578  0.00   -0.0004448    0.0013981   -0.0008657
h    -5.0548207    3.5469737    0.0801196  0.00   -0.0004420    0.0012248    0.0003837
h    -5.9808747    2.0209793   -0.2106761  0.00   -0.0017187   -0.0008925    0.0004013
h    -4.8355517    2.6503459   -1.4668702  0.00    0.0002789    0.0003053   -0.0007946
n    -3.7893043    0.4132710   -0.4386840  0.00    0.0124693    0.0117142   -0.0068610
h    -4.0507164    1.5715807    1.3303033  0.00   -0.0003198   -0.0008300    0.0006048
h    -3.1489071   -0.2201921    0.1129748  0.00    0.0070765   -0.0060682    0.0089410
h    -4.7425908   -0.0482467   -0.4423326  0.00   -0.0184310   -0.0074532   -0.0041026
o    -1.3958302    1.9401238    0.8079943  0.00    0.0039325   -0.0014523    0.0024400
o    -2.3848833    3.6227815   -0.5947129  0.00   -0.0181479    0.0008565    0.0047481
h    -1.3927179    3.8520266   -0.6886303  0.00    0.0180591    0.0030666   -0.0076162
    13
 Energy =       0.0525620806
c    -3.8798279    1.7206186    0.2219152  0.00   -0.0005024   -0.0008925    0.0012630
c    -2.5104363    2.3998123    0.1653221  0.00   -0.0006922   -0.0004139   -0.0001688
c    -4.9847887    2.5732742   -0.4222969  0.00   -0.0004960    0.0009119   -0.0003593
h    -5.0067331    3.5908678    0.0256068  0.00   -0.0001457    0.0003283   -0.0000077
h    -5.9796108    2.0983960   -0.2847304  0.00   -0.0008851   -0.0003920    0.0001878
h    -4.7832863    2.6803404   -1.5121249  0.00    0.0000548    0.0001889   -0.0004986
n    -3.8584017    0.4146223   -0.4544240  0.00    0.0053757    0.0053746   -0.0038767
h    -4.1091691    1.5846870    1.3053573  0.00   -0.0001803   -0.0006442    0.0003592
h    -3.1593987   -0.2055746    0.0295564  0.00    0.0036668   -0.0024939    0.0038975
h    -4.7941864   -0.0549354   -0.3444736  0.00   -0.0086750   -0.0031170   -0.0005997
o    -1.4397986    1.8551215    0.8703039  0.00    0.0024671   -0.0012824    0.0014829
o    -2.3149161    3.5703989   -0.5654013  0.00   -0.0120736   -0.0001567   -0.0003886
h    -1.3276227    3.8191476   -0.5298771  0.00    0.0120859    0.0025889   -0.0012909
    13
 Energy =       0.0522807701
c    -3.8958909    1.7226827    0.2119200  0.00   -0.0001652    0.0001427    0.0003553
c    -2.5115179    2.3697420    0.1806988  0.00   -0.0002035   -0.0000780    0.0000609
c    -4.9716547    2.6053870   -0.4352322  0.00   -0.0000108   -0.0001884   -0.0001150
h    -4.9777384    3.6176396    0.0243645  0.00    0.0000734    0.0000729    0.0000391
h    -5.9766845    2.1489868   -0.3177589  0.00    0.0000180   -0.0000686   -0.0000443
h    -4.7539438    2.7191630   -1.5207994  0.00   -0.0000602   -0.0000014    0.0000237
n    -3.9048995    0.4231893   -0.4766643  0.00   -0.0005507    0.0017457   -0.0020010
h    -4.1394328    1.5840579    1.2915143  0.00    0.0000937   -0.0000183   -0.0000914
h    -3.1613496   -0.1923871   -0.0613309  0.00    0.0022213   -0.0016191    0.0013098
h    -4.8167959   -0.0588554   -0.2893972  0.00   -0.0016427   -0.0001748    0.0004593
o    -1.4772648    1.8172537    0.9300204  0.00    0.0005264   -0.0005074    0.0004856
o    -2.2674377    3.5196493   -0.5658895  0.00    0.0012216    0.0012839   -0.0005278
h    -1.2935657    3.7702678   -0.4667123  0.00   -0.0015214   -0.0005892    0.0000459
    13
 Energy =       0.0522712774
c    -3.8966655    1.7198152    0.2116449  0.00    0.0000857    0.0001803    0.0000284
c    -2.5117258    2.3654222    0.1859256  0.00   -0.0001742   -0.0002069    0.0001342
c    -4.9729628    2.6151434   -0.4172347  0.00   -0.0001225    0.0000124    0.0000067
h    -4.9753050    3.6201153    0.0580998  0.00   -0.0000096    0.0001326    0.0000538
h    -5.9785152    2.1590819   -0.3029693  0.00   -0.0000064   -0.0000007    0.0000065
h    -4.7589845    2.7452931   -1.5019479  0.00    0.0000153    0.0000251   -0.0001399
n    -3.9093906    0.4317779   -0.4981616  0.00   -0.0000192   -0.0003376   -0.0000973
h    -4.1372387    1.5637712    1.2898374  0.00   -0.0000172   -0.0000146    0.0001666
h    -3.1647371   -0.1896674   -0.0985839  0.00   -0.0000896    0.0000118   -0.0000052
h    -4.8186126   -0.0547115   -0.3152128  0.00    0.0001378   -0.0000129   -0.0000325
o    -1.4873315    1.8255599    0.9570853  0.00    0.0002147   -0.0002513    0.0002358
o    -2.2556312    3.4973305   -0.5834666  0.00   -0.0001892    0.0004108   -0.0003598
h    -1.2810759    3.7478449   -0.4802827  0.00    0.0001743    0.0000508    0.0000028
    13
 Energy =       0.0522708969
c    -3.8965070    1.7189474    0.2112563  0.00   -0.0000073   -0.0000088   -0.0000018
c    -2.5119793    2.3653978    0.1867593  0.00    0.0000126    0.0000196   -0.0000137
c    -4.9735507    2.6158454   -0.4136307  0.00    0.0000084   -0.0000013    0.0000003
h    -4.9760036    3.6190222    0.0651315  0.00    0.0000005   -0.0000064   -0.0000033
h    -5.9788137    2.1589181   -0.3003019  0.00    0.0000000   -0.0000006   -0.0000001
h    -4.7603881    2.7498007   -1.4979148  0.00   -0.0000002   -0.0000017    0.0000066
n    -3.9092040    0.4336164   -0.5030095  0.00   -0.0000017    0.0000278   -0.0000011
h    -4.1362889    1.5589784    1.2888948  0.00    0.0000001    0.0000011   -0.0000088
h    -3.1632886   -0.1886213   -0.1068998  0.00    0.0000163   -0.0000098    0.0000042
h    -4.8179208   -0.0541272   -0.3204088  0.00   -0.0000150   -0.0000003    0.0000045
o    -1.4890287    1.8285293    0.9614988  0.00   -0.0000118    0.0000161   -0.0000158
o    -2.2546328    3.4945563   -0.5856283  0.00    0.0000127   -0.0000300    0.0000284
h    -1.2805699    3.7459129   -0.4810135  0.00   -0.0000147   -0.0000056    0.0000006
    13
 Energy =       0.0522708948
c    -3.8965036    1.7189343    0.2112758  0.00   -0.0000000    0.0000000   -0.0000000
c    -2.5120065    2.3654451    0.1868490  0.00   -0.0000001   -0.0000001    0.0000000
c    -4.9735804    2.6158652   -0.4135316  0.00   -0.0000000   -0.0000000    0.0000000
h    -4.9760638    3.6190029    0.0653266  0.00    0.0000000    0.0000000    0.0000000
h    -5.9788294    2.1588982   -0.3002432  0.00   -0.0000000   -0.0000000    0.0000000
h    -4.7604236    2.7499281   -1.4978109  0.00    0.0000000    0.0000000   -0.0000000
n    -3.9091255    0.4336626   -0.5031176  0.00    0.0000000    0.0000000   -0.0000000
h    -4.1362894    1.5588465    1.2889048  0.00   -0.0000000   -0.0000000    0.0000000
h    -3.1632898   -0.1886130   -0.1069489  0.00    0.0000000   -0.0000000    0.0000000
h    -4.8178596   -0.0540981   -0.3206975  0.00   -0.0000000   -0.0000000    0.0000000
o    -1.4891953    1.8288919    0.9620134  0.00    0.0000001   -0.0000001    0.0000001
o    -2.2545280    3.4942953   -0.5859890  0.00   -0.0000000    0.0000002   -0.0000002
h    -1.2804814    3.7457175   -0.4812975  0.00    0.0000000   -0.0000000    0.0000000
