    13
 Energy =       0.1093920829
c    -3.7133889    1.6950595    0.3173519  0.00   -0.0830640    0.0264744    0.1007808
c    -2.4962693    2.6345192    0.2419999  0.00    0.2046401    0.1433919   -0.3232596
c    -4.9565486    2.3924193   -0.2155699  0.00    0.0199772    0.0049029    0.0063532
h    -5.8072983    1.7014095   -0.2223689  0.00    0.0136789    0.0094835   -0.0031372
h    -4.8071186    2.7393792   -1.2437896  0.00   -0.0062853   -0.0058987    0.0176826
h    -5.2375685    3.2516891    0.4029209  0.00   -0.0005236   -0.0139632   -0.0118275
n    -3.4097890    0.4519539   -0.4549189  0.00    0.0464137   -0.0375658   -0.0521266
h    -3.8575589    1.4177196    1.3669296  0.00    0.0020075    0.0016880   -0.0247091
h    -4.2340588    0.2238779   -1.0206697  0.00    0.0210021    0.0307850    0.0216824
h    -2.6878492    0.6694128   -1.1486897  0.00   -0.0290740    0.0112843    0.0369004
o    -1.9513094    3.0041591   -0.7839488  0.00   -0.1295058   -0.1034271    0.2469772
o    -2.1005994    3.0267291    1.4825496  0.00   -0.0437798   -0.0297768   -0.0065122
h    -2.2705794    4.0015489    1.5135996  0.00   -0.0154871   -0.0373784   -0.0088045
    13
 Energy =       0.0877766111
c    -3.7201886    1.6936269    0.3161788  0.00   -0.0510923    0.0162017    0.0626539
c    -2.4846013    2.5998201    0.2776002  0.00    0.1245862    0.0907346   -0.1982279
c    -4.9400930    2.4296798   -0.2457985  0.00    0.0157062    0.0014701    0.0083299
h    -5.7973671    1.7381905   -0.3811221  0.00    0.0026774    0.0003874   -0.0036195
h    -4.7073397    2.8836285   -1.2334771  0.00   -0.0010662    0.0004675    0.0028699
h    -5.2654522    3.2311833    0.4438497  0.00   -0.0009708   -0.0056565   -0.0030992
n    -3.4553507    0.4398596   -0.4417480  0.00    0.0257186   -0.0239856   -0.0296285
h    -3.8912797    1.4307134    1.3740353  0.00    0.0012751    0.0012459   -0.0148236
h    -4.2781813    0.2002273   -1.0193427  0.00    0.0126633    0.0193452    0.0131098
h    -2.6896349    0.5990115   -1.1223385  0.00   -0.0144623    0.0076170    0.0204987
o    -1.9239607    2.9695213   -0.8172878  0.00   -0.0806261   -0.0645479    0.1510536
o    -2.0330650    3.0184850    1.5002250  0.00   -0.0167997   -0.0383892   -0.0023302
h    -2.3434223    3.9759300    1.5846216  0.00   -0.0176094   -0.0048901   -0.0067870
    13
 Energy =       0.0822817719
c    -3.7079717    1.6963024    0.3067593  0.00   -0.0340297    0.0108527    0.0419099
c    -2.4675231    2.5918461    0.2818445  0.00    0.0827256    0.0621572   -0.1325137
c    -4.9251451    2.4422992   -0.2531006  0.00    0.0147217   -0.0021196    0.0070175
h    -5.8182440    1.7727199   -0.2772173  0.00   -0.0030294   -0.0043794   -0.0020760
h    -4.7180355    2.7939305   -1.2945460  0.00    0.0013727    0.0017592   -0.0042376
h    -5.1729607    3.3263300    0.3795664  0.00   -0.0016426    0.0021611    0.0024789
n    -3.4704892    0.4392758   -0.4490376  0.00    0.0157897   -0.0164968   -0.0182389
h    -3.8820238    1.4372420    1.3695537  0.00    0.0008253    0.0008778   -0.0098381
h    -4.2878823    0.2141375   -1.0494193  0.00    0.0076631    0.0132525    0.0082636
h    -2.6713880    0.5616038   -1.1076368  0.00   -0.0075856    0.0054995    0.0125397
o    -1.9070258    2.9770417   -0.8481002  0.00   -0.0546186   -0.0424923    0.1006619
o    -1.9990716    3.0348812    1.4961010  0.00    0.0116396   -0.0651194   -0.0058087
h    -2.5021754    3.9222671    1.6806287  0.00   -0.0338318    0.0340475   -0.0001585
    13
 Energy =       0.0796056542
c    -3.6836245    1.6627805    0.2917310  0.00   -0.0258317    0.0116382    0.0358990
c    -2.4559633    2.5744103    0.2700877  0.00    0.0680554    0.0508531   -0.1109905
c    -4.9398405    2.4324709   -0.1541408  0.00    0.0087875   -0.0003495    0.0062895
h    -5.8293203    1.7585910   -0.1565548  0.00   -0.0031205   -0.0033957   -0.0015271
h    -4.7971815    2.8370211   -1.1895060  0.00    0.0014294    0.0025668   -0.0067297
h    -5.1538314    3.2825319    0.5383196  0.00   -0.0023809    0.0038392    0.0038088
n    -3.4787559    0.4533727   -0.5529850  0.00    0.0159592   -0.0184898   -0.0161884
h    -3.7977139    1.3348031    1.3493328  0.00    0.0004083   -0.0005127   -0.0042100
h    -4.3106922    0.2764251   -1.1547016  0.00    0.0053305    0.0095751    0.0047066
h    -2.6920405    0.6068256   -1.2227589  0.00   -0.0057629    0.0045134    0.0091790
o    -1.8717160    2.9376624   -0.8697700  0.00   -0.0452172   -0.0356557    0.0825570
o    -2.0194149    3.0734632    1.4779271  0.00    0.0120708   -0.0553504   -0.0034045
h    -2.4998415    3.9795194    1.6084148  0.00   -0.0297280    0.0307681    0.0006104
    13
 Energy =       0.0774233113
c    -3.7046882    1.6553935    0.2806030  0.00   -0.0191175    0.0100813    0.0295753
c    -2.4281217    2.5003244    0.2621723  0.00    0.0517582    0.0390080   -0.0846012
c    -4.9315286    2.5047407   -0.1125435  0.00    0.0054189    0.0013130    0.0030697
h    -5.8569764    1.8800360   -0.1001139  0.00   -0.0040604   -0.0034691   -0.0013519
h    -4.7974884    2.9206861   -1.1427300  0.00    0.0009139    0.0019772   -0.0052900
h    -5.0772384    3.3526398    0.6014590  0.00   -0.0022496    0.0048564    0.0043275
n    -3.5920507    0.4568917   -0.5985366  0.00    0.0143235   -0.0194290   -0.0111808
h    -3.8120124    1.3066388    1.3334286  0.00    0.0005749   -0.0005499   -0.0028663
h    -4.4335355    0.3591858   -1.2133556  0.00   -0.0004924    0.0063996    0.0004837
h    -2.7841171    0.5593226   -1.2570169  0.00   -0.0020669    0.0039792    0.0057049
o    -1.8335499    2.8505808   -0.8930096  0.00   -0.0335571   -0.0268596    0.0623339
o    -1.9375409    2.9626371    1.4680962  0.00    0.0137958   -0.0453204   -0.0015767
h    -2.3410884    3.9008001    1.6069428  0.00   -0.0252411    0.0280133    0.0013717
    13
 Energy =       0.0763870204
c    -3.6933960    1.6555089    0.2941599  0.00   -0.0179625    0.0101063    0.0291049
c    -2.4566750    2.5594520    0.2817186  0.00    0.0487116    0.0368188   -0.0822360
c    -4.9500407    2.4396968   -0.1453412  0.00    0.0040172    0.0021755    0.0018353
h    -5.8493077    1.7766720   -0.1307294  0.00   -0.0047765   -0.0038807   -0.0014531
h    -4.8159473    2.8328313   -1.1843714  0.00    0.0006244    0.0020610   -0.0053763
h    -5.1431714    3.3010053    0.5428435  0.00   -0.0023662    0.0058584    0.0049742
n    -3.5107759    0.4392101   -0.5514443  0.00    0.0159507   -0.0214105   -0.0107334
h    -3.8066701    1.3302743    1.3542934  0.00    0.0007502   -0.0006413   -0.0023546
h    -4.3403351    0.2807751   -1.1725413  0.00   -0.0028688    0.0052700   -0.0014635
h    -2.6989957    0.5625851   -1.2020951  0.00   -0.0015671    0.0036842    0.0051112
o    -1.8265323    2.8736765   -0.8686881  0.00   -0.0319270   -0.0258818    0.0574482
o    -2.0296873    3.0986367    1.4837767  0.00    0.0184494   -0.0477092    0.0037641
h    -2.4084018    4.0595532    1.5338146  0.00   -0.0270354    0.0335493    0.0013792
    13
 Energy =       0.0743765987
c    -3.6938854    1.6599259    0.3110425  0.00   -0.0134059    0.0081425    0.0223522
c    -2.4824388    2.5960344    0.2904922  0.00    0.0332128    0.0283237   -0.0613088
c    -4.9644880    2.3974566   -0.1672397  0.00    0.0024926    0.0019529    0.0009478
h    -5.8477746    1.7153885   -0.1344878  0.00   -0.0040198   -0.0033155   -0.0012250
h    -4.8315801    2.7573046   -1.2175147  0.00    0.0003267    0.0018738   -0.0047143
h    -5.1812437    3.2769043    0.4890878  0.00   -0.0018872    0.0052481    0.0043920
n    -3.4765053    0.4203259   -0.4897978  0.00    0.0129182   -0.0179699   -0.0078251
h    -3.8132748    1.3687551    1.3814518  0.00    0.0007262   -0.0006494   -0.0011600
h    -4.2865701    0.2264504   -1.1272187  0.00   -0.0032403    0.0036535   -0.0022006
h    -2.6445607    0.5227973   -1.1198643  0.00   -0.0004999    0.0024771    0.0030342
o    -1.7861972    2.8246589   -0.8585198  0.00   -0.0217269   -0.0211462    0.0370151
o    -2.1124803    3.2255691    1.4720545  0.00    0.0220627   -0.0505816    0.0105463
h    -2.4089375    4.2183063    1.4059098  0.00   -0.0269592    0.0419909    0.0001461
    13
 Energy =       0.0741273675
c    -3.7067673    1.6730685    0.3259941  0.00   -0.0119335    0.0079335    0.0189119
c    -2.4688929    2.5739718    0.2692705  0.00    0.0223124    0.0228142   -0.0443789
c    -4.9597420    2.4277305   -0.1695713  0.00    0.0022512    0.0017311    0.0009892
h    -5.8593613    1.7696391   -0.1105663  0.00   -0.0037570   -0.0031396   -0.0008497
h    -4.8229041    2.7513501   -1.2306630  0.00    0.0004807    0.0017510   -0.0043941
h    -5.1510678    3.3314555    0.4603530  0.00   -0.0017778    0.0049288    0.0040122
n    -3.5325449    0.3985393   -0.4292548  0.00    0.0082971   -0.0172079   -0.0056056
h    -3.8290313    1.4245753    1.4078580  0.00    0.0002430   -0.0007937   -0.0000588
h    -4.3414019    0.2128003   -1.0701501  0.00   -0.0026820    0.0028572   -0.0018060
h    -2.6852480    0.4367747   -1.0495953  0.00    0.0023882    0.0017722    0.0001901
o    -1.7266066    2.6910264   -0.8811131  0.00   -0.0122062   -0.0168741    0.0217964
o    -2.0938187    3.2625224    1.4167756  0.00    0.0191136   -0.0427114    0.0108522
h    -2.3525496    4.2564235    1.2960585  0.00   -0.0227297    0.0369387    0.0003413
    13
 Energy =       0.0748122227
c    -3.6963927    1.6897454    0.3483295  0.00   -0.0137427    0.0091965    0.0190037
c    -2.4412772    2.5615822    0.1828533  0.00    0.0197282    0.0216839   -0.0421865
c    -4.9595346    2.4473610   -0.1168481  0.00    0.0026539    0.0013806    0.0012723
h    -5.8672422    1.8062052    0.0032621  0.00   -0.0052807   -0.0040452   -0.0006360
h    -4.8641503    2.7332949   -1.1946387  0.00    0.0006946    0.0019626   -0.0058545
h    -5.1092963    3.3745743    0.4914036  0.00   -0.0017595    0.0057306    0.0047740
n    -3.5883904    0.3766834   -0.3563998  0.00    0.0066315   -0.0195599   -0.0023051
h    -3.7664361    1.4943772    1.4482356  0.00   -0.0002495   -0.0009047    0.0027755
h    -4.4393188    0.1716247   -0.9384014  0.00   -0.0057958    0.0010248   -0.0046156
h    -2.7784985    0.3707407   -1.0302677  0.00    0.0059806    0.0012607   -0.0032694
o    -1.7573219    2.6005641   -1.0143578  0.00   -0.0079702   -0.0157464    0.0145520
o    -1.9890983    3.2993821    1.2749199  0.00    0.0213509   -0.0381615    0.0168081
h    -2.2729791    4.2837421    1.1373054  0.00   -0.0222412    0.0361779   -0.0003186
    13
 Energy =       0.0759568931
c    -3.7110757    1.6943920    0.3457129  0.00   -0.0128524    0.0084033    0.0178529
c    -2.4247387    2.5231006    0.1939613  0.00    0.0158405    0.0199913   -0.0347955
c    -4.9454620    2.4909438   -0.1325779  0.00    0.0021241    0.0018415    0.0009550
h    -5.8727787    1.8772662   -0.0188277  0.00   -0.0052200   -0.0039594   -0.0004854
h    -4.8323377    2.7712199   -1.2096499  0.00    0.0006470    0.0018718   -0.0054258
h    -5.0728164    3.4231332    0.4721542  0.00   -0.0016780    0.0054201    0.0043713
n    -3.6414764    0.3749148   -0.3511501  0.00    0.0054954   -0.0187448    0.0020689
h    -3.7987089    1.5049454    1.4452791  0.00   -0.0002808   -0.0010148    0.0026358
h    -4.4728618    0.2156899   -0.9773612  0.00   -0.0084114    0.0007189   -0.0059064
h    -2.7965615    0.3183333   -0.9817874  0.00    0.0092370    0.0012586   -0.0053767
o    -1.6898711    2.4932673   -0.9779785  0.00   -0.0040998   -0.0139028    0.0090359
o    -1.9786565    3.2742027    1.2788244  0.00    0.0193152   -0.0353192    0.0156395
h    -2.2925911    4.2484682    1.1487969  0.00   -0.0201167    0.0334356   -0.0005696
    13
 Energy =       0.0768709247
c    -3.7181476    1.6995734    0.3444375  0.00   -0.0119353    0.0079334    0.0165845
c    -2.4099976    2.4930286    0.1894768  0.00    0.0132494    0.0185162   -0.0299580
c    -4.9335800    2.5242294   -0.1343773  0.00    0.0018139    0.0019054    0.0007215
h    -5.8738703    1.9315060   -0.0185429  0.00   -0.0049434   -0.0037238   -0.0004034
h    -4.8154030    2.7992727   -1.2117046  0.00    0.0006002    0.0017035   -0.0049098
h    -5.0396671    3.4598656    0.4681110  0.00   -0.0015593    0.0050862    0.0040299
n    -3.6856157    0.3745128   -0.3436787  0.00    0.0043732   -0.0178146    0.0045793
h    -3.8090237    1.5180012    1.4448281  0.00   -0.0003012   -0.0009579    0.0024013
h    -4.4975262    0.2528915   -1.0044815  0.00   -0.0097157    0.0006406   -0.0065406
h    -2.8174806    0.2706505   -0.9378568  0.00    0.0111559    0.0010464   -0.0065127
o    -1.6520450    2.4054402   -0.9675312  0.00   -0.0021040   -0.0125048    0.0060307
o    -1.9581351    3.2609121    1.2596796  0.00    0.0182242   -0.0340590    0.0151479
h    -2.3194444    4.2199932    1.1470359  0.00   -0.0188579    0.0322284   -0.0011708
    13
 Energy =       0.0772407070
c    -3.7219032    1.7036617    0.3437310  0.00   -0.0109402    0.0073533    0.0151789
c    -2.3996781    2.4719044    0.1844043  0.00    0.0115495    0.0169878   -0.0266022
c    -4.9242005    2.5468104   -0.1350555  0.00    0.0016010    0.0018171    0.0005844
h    -5.8729822    1.9692000   -0.0158413  0.00   -0.0045733   -0.0034332   -0.0003457
h    -4.8038993    2.8166401   -1.2129774  0.00    0.0005540    0.0015404   -0.0044342
h    -5.0146298    3.4852974    0.4644629  0.00   -0.0014280    0.0046911    0.0036853
n    -3.7160893    0.3752340   -0.3370678  0.00    0.0035884   -0.0164978    0.0053844
h    -3.8136423    1.5286120    1.4448740  0.00   -0.0002976   -0.0008786    0.0021802
h    -4.5121058    0.2780082   -1.0209109  0.00   -0.0097324    0.0006118   -0.0064618
h    -2.8351710    0.2370971   -0.9052081  0.00    0.0114409    0.0008398   -0.0066606
o    -1.6321351    2.3468045   -0.9640728  0.00   -0.0012736   -0.0112895    0.0046124
o    -1.9413406    3.2532577    1.2416212  0.00    0.0171690   -0.0323478    0.0144048
h    -2.3421592    4.1973496    1.1474361  0.00   -0.0176577    0.0306056   -0.0015257
    13
 Energy =       0.0772771092
c    -3.7248833    1.7067777    0.3433586  0.00   -0.0099450    0.0066891    0.0137807
c    -2.3927498    2.4564571    0.1837573  0.00    0.0103184    0.0154573   -0.0239146
c    -4.9160131    2.5626894   -0.1396252  0.00    0.0014314    0.0016982    0.0004985
h    -5.8713564    1.9972616   -0.0182878  0.00   -0.0041925   -0.0031420   -0.0002946
h    -4.7920483    2.8261333   -1.2182952  0.00    0.0005110    0.0013991   -0.0040145
h    -4.9954387    3.5044993    0.4551799  0.00   -0.0013045    0.0042889    0.0033500
n    -3.7364469    0.3761450   -0.3311511  0.00    0.0030671   -0.0150473    0.0053008
h    -3.8201643    1.5373202    1.4448661  0.00   -0.0002838   -0.0008119    0.0019807
h    -4.5219218    0.2923592   -1.0281943  0.00   -0.0091004    0.0005709   -0.0060051
h    -2.8495007    0.2157218   -0.8831046  0.00    0.0108447    0.0007025   -0.0063103
o    -1.6210114    2.3105235   -0.9599952  0.00   -0.0009441   -0.0101722    0.0039049
o    -1.9299897    3.2461257    1.2323925  0.00    0.0158881   -0.0300609    0.0133480
h    -2.3584120    4.1778635    1.1544949  0.00   -0.0162904    0.0284282   -0.0016243
    13
 Energy =       0.0765572067
c    -3.7445254    1.7253236    0.3428298  0.00   -0.0051615    0.0026015    0.0061509
c    -2.3590565    2.3721344    0.2013111  0.00    0.0039290    0.0081961   -0.0083439
c    -4.8635346    2.6462625   -0.1937965  0.00    0.0000644    0.0027498   -0.0003721
h    -5.8580835    2.1560148   -0.0628610  0.00   -0.0040261   -0.0025383    0.0008041
h    -4.7045053    2.8548477   -1.2789455  0.00    0.0008508    0.0011213   -0.0029300
h    -4.8848577    3.6162916    0.3562853  0.00   -0.0011650    0.0038393    0.0020840
n    -3.8369498    0.3810946   -0.2884088  0.00   -0.0038860   -0.0079699    0.0095785
h    -3.8802142    1.5948291    1.4452955  0.00   -0.0007950   -0.0012621    0.0019152
h    -4.5739802    0.3455969   -1.0390911  0.00   -0.0078642    0.0008199   -0.0048279
h    -2.9299899    0.1146076   -0.7674043  0.00    0.0145539   -0.0022351   -0.0077722
o    -1.5794544    2.1562691   -0.9298224  0.00    0.0023902   -0.0030121   -0.0015962
o    -1.8733064    3.1932579    1.2126758  0.00    0.0212922   -0.0341513    0.0101631
h    -2.4414783    4.0533475    1.2373281  0.00   -0.0201828    0.0318408   -0.0048536
    13
 Energy =       0.0767405799
c    -3.7408874    1.7194747    0.3443655  0.00   -0.0049433    0.0029404    0.0059669
c    -2.3710785    2.3975625    0.2127309  0.00    0.0011611    0.0078784   -0.0045866
c    -4.8738664    2.6180725   -0.1998696  0.00   -0.0000531    0.0026212   -0.0004153
h    -5.8609661    2.1145815   -0.0664060  0.00   -0.0037296   -0.0023321    0.0007215
h    -4.7164215    2.8216361   -1.2859577  0.00    0.0007543    0.0010148   -0.0026567
h    -4.9089762    3.5914646    0.3432430  0.00   -0.0010034    0.0035703    0.0019425
n    -3.7975198    0.3756958   -0.2914942  0.00   -0.0041336   -0.0078582    0.0104181
h    -3.8820539    1.5842888    1.4454625  0.00   -0.0007352   -0.0010952    0.0017492
h    -4.5598806    0.3110871   -1.0151990  0.00   -0.0085273    0.0009404   -0.0054430
h    -2.8962906    0.1507251   -0.8026047  0.00    0.0151485   -0.0024500   -0.0078634
o    -1.6130385    2.2639751   -0.9485227  0.00    0.0048345   -0.0033340   -0.0056878
o    -1.8909337    3.1878432    1.2509782  0.00    0.0213621   -0.0323348    0.0104787
h    -2.4180232    4.0734703    1.2486698  0.00   -0.0201351    0.0304390   -0.0046241
    13
 Energy =       0.0758399047
c    -3.7425281    1.7203092    0.3503716  0.00   -0.0004849    0.0017723    0.0021088
c    -2.3944452    2.4317056    0.2430160  0.00   -0.0050237    0.0014257    0.0073394
c    -4.8781456    2.5775016   -0.2461357  0.00   -0.0011278    0.0005413   -0.0001449
h    -5.8589140    2.0713786   -0.1048062  0.00   -0.0007815   -0.0005178    0.0001048
h    -4.7091619    2.7365709   -1.3368040  0.00    0.0001301    0.0004484   -0.0015500
h    -4.9279802    3.5716003    0.2531296  0.00   -0.0001546    0.0017619    0.0010765
n    -3.7448374    0.3685155   -0.2627808  0.00   -0.0005557   -0.0033812    0.0047075
h    -3.9113677    1.6044592    1.4488916  0.00   -0.0000545    0.0000006    0.0009338
h    -4.5289115    0.2412078   -0.9512802  0.00   -0.0050636    0.0002042   -0.0041155
h    -2.8581930    0.1909352   -0.8039873  0.00    0.0057954   -0.0009921   -0.0021048
o    -1.6775285    2.4227283   -0.9548227  0.00    0.0066147   -0.0014558   -0.0108749
o    -1.9205803    3.1828562    1.3109612  0.00    0.0093403   -0.0084216    0.0033411
h    -2.3773430    4.0901088    1.2896428  0.00   -0.0086341    0.0086141   -0.0008218
    13
 Energy =       0.0757644648
c    -3.7498129    1.7438679    0.3451208  0.00   -0.0011713    0.0006898   -0.0020298
c    -2.3916404    2.4267675    0.2011618  0.00    0.0005713    0.0006518   -0.0041870
c    -4.8798568    2.5991260   -0.2553234  0.00    0.0007683   -0.0003800    0.0001987
h    -5.8625346    2.1046328   -0.0950533  0.00    0.0002623    0.0000881   -0.0000219
h    -4.7204778    2.7334029   -1.3488143  0.00    0.0000528   -0.0002426    0.0005307
h    -4.9147107    3.6022147    0.2204449  0.00    0.0000308   -0.0006765   -0.0003712
n    -3.7866158    0.3773291   -0.2278456  0.00   -0.0046019    0.0031790    0.0171319
h    -3.9056963    1.6591188    1.4474558  0.00   -0.0001435   -0.0000259    0.0000660
h    -4.4794874    0.2959466   -1.0199494  0.00   -0.0105120    0.0003834   -0.0085871
h    -2.8494660    0.1069467   -0.6452342  0.00    0.0155700   -0.0041193   -0.0078011
o    -1.6938354    2.3643528   -0.9941249  0.00   -0.0022371    0.0015451    0.0046588
o    -1.8688102    3.1745185    1.2479514  0.00    0.0113694   -0.0184580    0.0018571
h    -2.4269922    4.0216530    1.3596064  0.00   -0.0099592    0.0173651   -0.0014452
    13
 Energy =       0.0757037846
c    -3.7413368    1.7598440    0.3621477  0.00   -0.0028935    0.0025335   -0.0025829
c    -2.3782980    2.4159222    0.1330449  0.00   -0.0012934    0.0006974   -0.0045117
c    -4.8843579    2.6069258   -0.2244481  0.00    0.0017992   -0.0010405    0.0007929
h    -5.8666885    2.1312410   -0.0042509  0.00   -0.0012818   -0.0007705    0.0003383
h    -4.7688853    2.6963423   -1.3296771  0.00    0.0002942   -0.0002168   -0.0012476
h    -4.8863335    3.6288685    0.2133557  0.00    0.0002436    0.0003235    0.0002101
n    -3.8241772    0.3700401   -0.1529176  0.00   -0.0080444    0.0017360    0.0217396
h    -3.8515476    1.7224461    1.4745724  0.00   -0.0005082    0.0000011    0.0021979
h    -4.5268110    0.2797350   -0.9387805  0.00   -0.0136869    0.0003031   -0.0113831
h    -2.8956713    0.0562458   -0.5696564  0.00    0.0213559   -0.0065659   -0.0109752
o    -1.7170164    2.2650642   -1.0778598  0.00   -0.0002076    0.0013672    0.0007893
o    -1.8085740    3.2174900    1.1183188  0.00    0.0176385   -0.0208631    0.0067312
h    -2.3802390    4.0597123    1.2315470  0.00   -0.0134156    0.0224950   -0.0020989
    13
 Energy =       0.0761480961
c    -3.7506212    1.7575259    0.3603974  0.00   -0.0027049    0.0023812   -0.0024063
c    -2.3864435    2.4267888    0.1810508  0.00   -0.0021554    0.0005187   -0.0035010
c    -4.8784955    2.5953617   -0.2699582  0.00    0.0010969   -0.0007724    0.0008331
h    -5.8663559    2.1190634   -0.0768553  0.00   -0.0015392   -0.0007489    0.0003558
h    -4.7274730    2.6761456   -1.3721030  0.00    0.0003348   -0.0001884   -0.0017823
h    -4.8975586    3.6210466    0.1591849  0.00    0.0001749    0.0004515    0.0003306
n    -3.7995115    0.3671245   -0.1581304  0.00   -0.0076544    0.0010938    0.0203478
h    -3.9017700    1.7193503    1.4685678  0.00   -0.0005517    0.0001182    0.0027930
h    -4.5214739    0.2526216   -0.9224738  0.00   -0.0131567    0.0003351   -0.0110610
h    -2.8729737    0.0849094   -0.5993860  0.00    0.0204079   -0.0063369   -0.0102605
o    -1.7096898    2.3366222   -1.0290431  0.00    0.0008374    0.0009103   -0.0015115
o    -1.8391675    3.1931242    1.2069955  0.00    0.0188694   -0.0195720    0.0080095
h    -2.3784025    4.0601929    1.2871492  0.00   -0.0139591    0.0218098   -0.0021472
    13
 Energy =       0.0762000930
c    -3.7550703    1.7574428    0.3602523  0.00   -0.0024058    0.0021643   -0.0021731
c    -2.3911919    2.4319733    0.2028158  0.00   -0.0021055    0.0004392   -0.0030549
c    -4.8745735    2.5895095   -0.2930943  0.00    0.0008309   -0.0006335    0.0007757
h    -5.8648356    2.1138796   -0.1118014  0.00   -0.0014632   -0.0006770    0.0003330
h    -4.7066035    2.6631886   -1.3932857  0.00    0.0003202   -0.0001662   -0.0017718
h    -4.9012680    3.6180848    0.1287880  0.00    0.0001389    0.0004584    0.0003335
n    -3.7879257    0.3658271   -0.1557499  0.00   -0.0069304    0.0008858    0.0186203
h    -3.9256639    1.7215860    1.4655986  0.00   -0.0005170    0.0001344    0.0027028
h    -4.5205361    0.2361056   -0.9063243  0.00   -0.0121442    0.0002931   -0.0102661
h    -2.8648867    0.0990068   -0.6108363  0.00    0.0187055   -0.0058020   -0.0093201
o    -1.7068840    2.3666026   -1.0048129  0.00    0.0009385    0.0007727   -0.0017416
o    -1.8551590    3.1840201    1.2446398  0.00    0.0176842   -0.0179254    0.0075313
h    -2.3753382    4.0626504    1.3092061  0.00   -0.0130522    0.0200562   -0.0019691
    13
 Energy =       0.0755629968
c    -3.7733828    1.7563093    0.3591476  0.00    0.0005808    0.0009289    0.0003413
c    -2.4173989    2.4594175    0.2965307  0.00   -0.0031153   -0.0005680    0.0019640
c    -4.8587884    2.5588357   -0.3915295  0.00   -0.0028171    0.0010523    0.0000557
h    -5.8553841    2.0795914   -0.2656318  0.00   -0.0015663   -0.0000180    0.0001364
h    -4.6166345    2.6075834   -1.4802987  0.00    0.0004639   -0.0000957   -0.0029299
h    -4.9251851    3.5975698    0.0021880  0.00   -0.0003603    0.0010283    0.0007159
n    -3.7293511    0.3623241   -0.1469382  0.00   -0.0005710   -0.0020291    0.0056915
h    -4.0271088    1.7270218    1.4491839  0.00   -0.0005238    0.0006583    0.0032507
h    -4.5046984    0.1578251   -0.8286082  0.00   -0.0061796   -0.0002170   -0.0061122
h    -2.8310797    0.1717191   -0.6648136  0.00    0.0066477   -0.0019833   -0.0012019
o    -1.6985895    2.5016821   -0.8961447  0.00    0.0037968   -0.0003039   -0.0070979
o    -1.9370919    3.1516739    1.4033930  0.00    0.0138083   -0.0076350    0.0060824
h    -2.3552432    4.0783239    1.3989176  0.00   -0.0101642    0.0091823   -0.0008962
    13
 Energy =       0.0756807951
c    -3.7718593    1.7561623    0.3588987  0.00    0.0005336    0.0008392    0.0002912
c    -2.4157549    2.4578059    0.2872272  0.00   -0.0028298   -0.0005097    0.0017928
c    -4.8621753    2.5611400   -0.3812073  0.00   -0.0025716    0.0009715    0.0000507
h    -5.8571694    2.0797464   -0.2517282  0.00   -0.0014216   -0.0000148    0.0001263
h    -4.6266913    2.6153526   -1.4709383  0.00    0.0004279   -0.0000864   -0.0026731
h    -4.9273741    3.5978286    0.0177410  0.00   -0.0003316    0.0009414    0.0006494
n    -3.7340915    0.3627326   -0.1491613  0.00   -0.0005096   -0.0017821    0.0055246
h    -4.0171568    1.7252501    1.4505369  0.00   -0.0004834    0.0005967    0.0029612
h    -4.4973318    0.1682512   -0.8468797  0.00   -0.0058883   -0.0002687   -0.0057380
h    -2.8283687    0.1622537   -0.6497375  0.00    0.0063099   -0.0018171   -0.0012517
o    -1.6988338    2.4883209   -0.9064366  0.00    0.0034570   -0.0002683   -0.0064676
o    -1.9316441    3.1572166    1.3875828  0.00    0.0125363   -0.0070291    0.0055838
h    -2.3614854    4.0778163    1.3894983  0.00   -0.0092288    0.0084274   -0.0008495
    13
 Energy =       0.0757430340
c    -3.7707471    1.7561069    0.3586435  0.00    0.0004854    0.0007587    0.0002550
c    -2.4144814    2.4563659    0.2805665  0.00   -0.0025654   -0.0004581    0.0016306
c    -4.8642485    2.5630796   -0.3738070  0.00   -0.0023338    0.0008856    0.0000459
h    -5.8581397    2.0802702   -0.2419626  0.00   -0.0012848   -0.0000125    0.0001151
h    -4.6334638    2.6213467   -1.4640980  0.00    0.0003905   -0.0000781   -0.0024245
h    -4.9284126    3.5982212    0.0290065  0.00   -0.0003022    0.0008561    0.0005873
n    -3.7377768    0.3631923   -0.1509184  0.00   -0.0004512   -0.0015862    0.0051651
h    -4.0100140    1.7239315    1.4513137  0.00   -0.0004412    0.0005398    0.0026833
h    -4.4922751    0.1759369   -0.8595235  0.00   -0.0054598   -0.0002774   -0.0052804
h    -2.8274379    0.1556232   -0.6395452  0.00    0.0058351   -0.0016498   -0.0012065
o    -1.6984117    2.4774334   -0.9133430  0.00    0.0031359   -0.0002383   -0.0058712
o    -1.9278812    3.1613510    1.3759314  0.00    0.0113469   -0.0064257    0.0050914
h    -2.3666467    4.0770185    1.3831320  0.00   -0.0083553    0.0076859   -0.0007910
    13
 Energy =       0.0756782733
c    -3.7566162    1.7555584    0.3543935  0.00    0.0008539    0.0003664   -0.0011900
c    -2.3973650    2.4344614    0.1968693  0.00   -0.0026653    0.0007579    0.0026343
c    -4.8865358    2.5913436   -0.2795904  0.00   -0.0017080    0.0009880    0.0003646
h    -5.8670542    2.0920474   -0.1204484  0.00    0.0001853    0.0000834    0.0001501
h    -4.7142747    2.7034425   -1.3754661  0.00    0.0004434    0.0001631   -0.0013889
h    -4.9355073    3.6056335    0.1743608  0.00   -0.0003551    0.0009458    0.0002041
n    -3.7881209    0.3708346   -0.1761645  0.00   -0.0025360    0.0027869    0.0259925
h    -3.9197189    1.7054193    1.4587945  0.00   -0.0004225    0.0001047    0.0011029
h    -4.4306466    0.2767456   -1.0177907  0.00   -0.0181506   -0.0025266   -0.0185983
h    -2.8258979    0.0730162   -0.5173290  0.00    0.0208720   -0.0032288   -0.0073196
o    -1.6854715    2.3235876   -0.9941294  0.00    0.0024807   -0.0003247   -0.0056541
o    -1.8827272    3.2156725    1.2252248  0.00    0.0071154   -0.0120077    0.0062828
h    -2.4400002    4.0621145    1.3066715  0.00   -0.0061134    0.0118916   -0.0025804
    13
 Energy =       0.0752352378
c    -3.7312859    1.7596349    0.3627991  0.00    0.0005672   -0.0015916   -0.0020624
c    -2.3911769    2.4529318    0.0991590  0.00   -0.0039004    0.0010935    0.0031101
c    -4.9199986    2.5735342   -0.1954206  0.00   -0.0034926    0.0027562    0.0009674
h    -5.8789875    2.0521637    0.0274688  0.00   -0.0020021   -0.0007585    0.0007030
h    -4.8228553    2.6907754   -1.3028132  0.00    0.0006497    0.0006577   -0.0044983
h    -4.9608423    3.5862217    0.2632151  0.00   -0.0005492    0.0012254    0.0003568
n    -3.7865888    0.3694006   -0.1515661  0.00   -0.0043291    0.0031898    0.0321871
h    -3.8128495    1.7182493    1.4798532  0.00   -0.0007013   -0.0002051    0.0046539
h    -4.4083844    0.2879605   -1.0148006  0.00   -0.0224952   -0.0030525   -0.0235818
h    -2.8193563    0.0445599   -0.4639224  0.00    0.0265741   -0.0049722   -0.0091502
o    -1.7374241    2.2905486   -1.1226610  0.00    0.0050730   -0.0008907   -0.0107876
o    -1.8291874    3.2843648    1.0664717  0.00    0.0154666   -0.0142811    0.0116418
h    -2.4309996    4.0995319    1.1876129  0.00   -0.0108606    0.0168293   -0.0035398
    13
 Energy =       0.0743501839
c    -3.7045423    1.7538892    0.3692084  0.00    0.0004108   -0.0047280   -0.0020367
c    -2.4064677    2.4858823    0.0031613  0.00   -0.0020114    0.0009492    0.0024995
c    -4.9606842    2.5347522   -0.0896790  0.00   -0.0054969    0.0052387    0.0016415
h    -5.8841437    1.9712938    0.1862219  0.00   -0.0041651   -0.0017092    0.0015437
h    -4.9443208    2.6790935   -1.2004499  0.00    0.0006060    0.0014120   -0.0072059
h    -5.0081900    3.5355531    0.3939801  0.00   -0.0010208    0.0014768    0.0003553
n    -3.7634617    0.3684628   -0.1527949  0.00   -0.0037377    0.0030475    0.0302726
h    -3.6974373    1.7026240    1.4916913  0.00   -0.0006287   -0.0009443    0.0076946
h    -4.3318645    0.3135481   -1.0529054  0.00   -0.0206499   -0.0032382   -0.0228437