    27
 Energy =       0.3329247242
c    -1.4235396    2.6054793   -0.0667700  0.00   -0.0460981    0.0385559    0.0021341
c    -1.3072796    1.2134697   -0.1072300  0.00   -0.0852358   -0.0325625    0.0016391
c    -0.0178900    0.6711998   -0.1697000  0.00   -0.0895898   -0.1887524    0.0002029
c    -0.2940599    3.4190890   -0.0891300  0.00   -0.0219418    0.0689622    0.0016845
c     0.9872197    2.8590292   -0.1560400  0.00    0.0321871    0.0672132   -0.0300720
c     1.1340797    1.4562096   -0.1970299  0.00    0.0558487    0.0530404   -0.0009151
n     0.3879399   -0.6395298   -0.2140799  0.00    0.1431069    0.1114395   -0.0051795
c     2.2666594    0.5727398   -0.2659299  0.00    0.1556786   -0.0851404   -0.0020751
c     1.7555995   -0.7123598   -0.2706899  0.00   -0.0977752   -0.0965933    0.0003301
h    -0.2400399   -1.4313496   -0.2047299  0.00    0.0368618    0.0478330    0.0000428
c     3.7030089    1.0223397   -0.3320099  0.00   -0.0147870    0.0440737   -0.0199851
c     4.2197688    1.4064496   -1.7267995  0.00    0.1750297    0.0633453    0.0882266
h     4.3261788    0.2093419    0.0639454  0.00   -0.0096136    0.0104153   -0.0021771
h     3.8370289    1.8640295    0.3610799  0.00   -0.0046760   -0.0108320   -0.0100128
c     3.6319390    2.7753292   -2.1168494  0.00   -0.3672144    0.1243270   -0.0557316
n     3.8331589    0.4251339   -2.8019292  0.00   -0.0127714   -0.0407184   -0.0825481
h     5.3112285    1.5100896   -1.7329195  0.00   -0.0064064    0.1793984   -0.0549926
h     4.6999387    0.1207120   -3.2570191  0.00   -0.0249086    0.0113434    0.0270556
h     3.4878990   -0.4228179   -2.3386293  0.00    0.0125274    0.0334775    0.0056782
h    -2.4108593    3.0588691   -0.0157800  0.00   -0.0008025    0.0001641    0.0004336
h    -2.1896094    0.5822398   -0.0890100  0.00   -0.0035608    0.0037448    0.0003711
h    -0.4052699    4.5000487   -0.0535400  0.00    0.0003356    0.0002056    0.0013920
h     1.8590495    3.5066790   -0.1715100  0.00    0.0072961   -0.0029721   -0.0202729
h     2.2327294   -1.6813195   -0.3062999  0.00   -0.0400476   -0.0116502    0.0022446
o     2.4489393    3.0163391   -2.2910193  0.00    0.2592755   -0.0660153    0.0897410
o     4.6103187    3.7115289   -2.2467394  0.00    0.0353862   -0.0801954    0.0169603
h     5.4563884    3.2240991   -2.0701494  0.00   -0.0881047   -0.2421075    0.0458254
    27
 Energy =       0.2868762473
c    -1.3780679    2.6727695   -0.0475565  0.00   -0.0347039    0.0286776    0.0015928
c    -1.2833006    1.2881668   -0.0878547  0.00   -0.0641620   -0.0247888    0.0011857
c    -0.0159370    0.7284328   -0.1445319  0.00   -0.0659067   -0.1406992    0.0012377
c    -0.2394349    3.4631677   -0.0747549  0.00   -0.0168169    0.0517497    0.0013725
c     1.0237863    2.8827262   -0.1405862  0.00    0.0240863    0.0508856   -0.0222375
c     1.1336478    1.4896355   -0.1687636  0.00    0.0415540    0.0398027   -0.0005287
n     0.3447697   -0.6049094   -0.2212517  0.00    0.1064520    0.0822185   -0.0057396
c     2.2388974    0.6097705   -0.2344538  0.00    0.1167835   -0.0639391   -0.0010078
c     1.7291843   -0.6665578   -0.2395241  0.00   -0.0727099   -0.0719488    0.0010275
h    -0.3008916   -1.3941408   -0.2389038  0.00    0.0271449    0.0354360   -0.0004040
c     3.6855658    1.0263161   -0.3217425  0.00   -0.0116784    0.0324092   -0.0140099
c     4.1913753    1.3403435   -1.7447082  0.00    0.1343139    0.0497520    0.0670474
h     4.2984645    0.2143902    0.1023924  0.00   -0.0071761    0.0073705   -0.0013923
h     3.8459729    1.8996626    0.3330475  0.00   -0.0033905   -0.0068262   -0.0067109
c     3.6368977    2.6938733   -2.2053393  0.00   -0.2759451    0.0930496   -0.0412507
n     3.8103842    0.3037704   -2.7602503  0.00   -0.0104612   -0.0305265   -0.0652944
h     5.2848683    1.4423565   -1.7483064  0.00   -0.0050043    0.1403519   -0.0428248
h     4.6774975   -0.0380412   -3.2020428  0.00   -0.0178863    0.0073734    0.0197456
h     3.4428866   -0.5225506   -2.2648927  0.00    0.0086109    0.0236437    0.0053889
h    -2.3581592    3.1423357   -0.0029264  0.00   -0.0007820    0.0001737    0.0003359
h    -2.1741136    0.6685278   -0.0795611  0.00   -0.0027833    0.0026710    0.0002516
h    -0.3320733    4.5465115   -0.0540218  0.00    0.0002060    0.0004467    0.0010559
h     1.9122603    3.5090569   -0.1886411  0.00    0.0068735   -0.0018282   -0.0163792
h     2.2366415   -1.6208170   -0.2790697  0.00   -0.0297772   -0.0088482    0.0016805
o     2.4113059    2.9450215   -2.3800624  0.00    0.1938762   -0.0497584    0.0684523
o     4.6141423    3.6325195   -2.3962602  0.00    0.0122647   -0.0480870    0.0033706
h     5.4639551    3.1907312   -2.0759421  0.00   -0.0529819   -0.1987610    0.0440350
    27
 Energy =       0.2523314953
c    -1.3718884    2.5663319    0.0285101  0.00   -0.0238804    0.0202315    0.0009323
c    -1.2591596    1.1921225   -0.0549776  0.00   -0.0441602   -0.0174187    0.0008988
c     0.0036891    0.6526846   -0.1314291  0.00   -0.0461593   -0.0952607    0.0024440
c    -0.2466663    3.3660151    0.0315089  0.00   -0.0112380    0.0360808    0.0004228
c     1.0132970    2.8026572   -0.0490207  0.00    0.0160669    0.0357645   -0.0151165
c     1.1292610    1.4263621   -0.1386990  0.00    0.0273656    0.0275336   -0.0006727
n     0.3703226   -0.6884612   -0.2734227  0.00    0.0725410    0.0546157   -0.0049026
c     2.2372224    0.5917906   -0.2559464  0.00    0.0814145   -0.0433517    0.0005951
c     1.7707687   -0.6908550   -0.3071939  0.00   -0.0506525   -0.0485146    0.0018001
h    -0.2571819   -1.5024633   -0.3169807  0.00    0.0182122    0.0231565   -0.0007197
c     3.6799511    1.0343202   -0.3596208  0.00   -0.0097111    0.0218913   -0.0093131
c     4.1567712    1.4409261   -1.7780845  0.00    0.0956583    0.0379211    0.0443861
h     4.3184505    0.2027774   -0.0020494  0.00   -0.0035933    0.0029806   -0.0002778
h     3.8496747    1.8709603    0.3460793  0.00   -0.0024522   -0.0033855   -0.0031742
c     3.6117038    2.8134588   -2.1828108  0.00   -0.1895661    0.0625622   -0.0291883
n     3.8077912    0.4402953   -2.8320693  0.00   -0.0064896   -0.0189116   -0.0483813
h     5.2531366    1.5578198   -1.7549213  0.00   -0.0027523    0.1032967   -0.0300547
h     4.6865603    0.1153754   -3.2752505  0.00   -0.0119282    0.0050692    0.0134613
h     3.3982553   -0.4088789   -2.3998093  0.00    0.0042581    0.0122361    0.0049531
h    -2.3574539    3.0229625    0.0854792  0.00   -0.0006559    0.0003233    0.0002352
h    -2.1404609    0.5588200   -0.0712942  0.00   -0.0021896    0.0014604    0.0001251
h    -0.3498123    4.4477405    0.0903829  0.00    0.0001588    0.0011373    0.0007255
h     1.8968975    3.4359899   -0.0608539  0.00    0.0050428   -0.0009640   -0.0105515
h     2.3377028   -1.6110960   -0.4037155  0.00   -0.0184961   -0.0089617    0.0008883
o     2.3456042    3.0715710   -2.3495163  0.00    0.1333168   -0.0333581    0.0467785
o     4.5662639    3.7912726   -2.3346102  0.00    0.0011167   -0.0255037   -0.0000080
h     5.4498244    3.3425694   -2.1161922  0.00   -0.0312270   -0.1506306    0.0337141
    27
 Energy =       0.2443753166
c    -1.3884234    2.4948373    0.0524674  0.00   -0.0210830    0.0180646    0.0008394
c    -1.2604970    1.1273114   -0.0807741  0.00   -0.0382663   -0.0160410    0.0008030
c     0.0054116    0.6043552   -0.1647765  0.00   -0.0401458   -0.0806086    0.0031503
c    -0.2724823    3.3040153    0.0975951  0.00   -0.0092274    0.0320132    0.0002720
c     0.9908725    2.7560641    0.0114723  0.00    0.0137751    0.0321575   -0.0128986
c     1.1189427    1.3888556   -0.1329351  0.00    0.0236121    0.0239433   -0.0006241
n     0.3838833   -0.7298034   -0.3795934  0.00    0.0630668    0.0447771   -0.0052904
c     2.2343771    0.5792957   -0.2766171  0.00    0.0710676   -0.0367752    0.0008503
c     1.7892411   -0.7057441   -0.3820238  0.00   -0.0438510   -0.0422688    0.0021163
h    -0.2324817   -1.5525795   -0.4757338  0.00    0.0144551    0.0180322   -0.0010529
c     3.6745160    1.0432485   -0.3585371  0.00   -0.0085924    0.0186835   -0.0076965
c     4.1601331    1.5018907   -1.7620633  0.00    0.0835469    0.0339519    0.0384960
h     4.3214468    0.2078115   -0.0232780  0.00   -0.0030202    0.0022916   -0.0001508
h     3.8309950    1.8593934    0.3754390  0.00   -0.0020886   -0.0024408   -0.0022721
c     3.6101899    2.8808721   -2.1392809  0.00   -0.1633112    0.0538235   -0.0257073
n     3.8453903    0.5242149   -2.8459570  0.00   -0.0058012   -0.0162401   -0.0434016
h     5.2566005    1.6334326   -1.7140922  0.00   -0.0018218    0.0905876   -0.0261568
h     4.7381925    0.2132499   -3.2749620  0.00   -0.0098535    0.0043289    0.0114254
h     3.4196600   -0.3371503   -2.4519759  0.00    0.0030878    0.0093559    0.0047224
h    -2.3791696    2.9395426    0.1141305  0.00   -0.0006506    0.0003804    0.0002133
h    -2.1347022    0.4853206   -0.1355704  0.00   -0.0024315    0.0005737    0.0000387
h    -0.3863501    4.3824980    0.1955534  0.00    0.0002102    0.0018644    0.0006868
h     1.8687964    3.3971258    0.0362564  0.00    0.0047978   -0.0002562   -0.0089311
h     2.3796149   -1.6082275   -0.5075980  0.00   -0.0157845   -0.0086003    0.0007306
o     2.3289986    3.1421533   -2.2737863  0.00    0.1148081   -0.0283560    0.0403963
o     4.5521631    3.8742549   -2.2830485  0.00    0.0004750   -0.0214087   -0.0001258
h     5.4452062    3.4368302   -2.0868189  0.00   -0.0269735   -0.1318340    0.0295673
    27
 Energy =       0.2257510689
c    -1.3711703    2.4194281    0.1616583  0.00   -0.0125205    0.0105598    0.0001911
c    -1.2250593    1.0617593    0.0193239  0.00   -0.0233556   -0.0095805    0.0000319
c     0.0371548    0.5620903   -0.1098613  0.00   -0.0218857   -0.0459210    0.0003467
c    -0.2690977    3.2405458    0.1816745  0.00   -0.0058280    0.0190869    0.0000435
c     0.9928937    2.7132183    0.0513914  0.00    0.0092666    0.0183666   -0.0078326
c     1.1288621    1.3600804   -0.1159875  0.00    0.0138374    0.0147578   -0.0002427
n     0.4191930   -0.7846335   -0.2866938  0.00    0.0291832    0.0259070    0.0000250
c     2.2429403    0.5877245   -0.3073074  0.00    0.0430981   -0.0218139    0.0014957
c     1.8337057   -0.7028023   -0.3986404  0.00   -0.0192094   -0.0222698   -0.0004928
h    -0.1845921   -1.6314195   -0.3169807  0.00    0.0062132    0.0072024   -0.0004535
c     3.6773531    1.0698526   -0.4322644  0.00   -0.0048350    0.0113566   -0.0042114
c     4.1160850    1.5530031   -1.8459601  0.00    0.0508154    0.0221322    0.0218730
h     4.3474554    0.2367231   -0.1306741  0.00   -0.0011897    0.0008480    0.0001044
h     3.8530237    1.8775689    0.3090429  0.00   -0.0012687   -0.0013681   -0.0009909
c     3.5910343    2.9460225   -2.1927673  0.00   -0.0952458    0.0310367   -0.0163099
n     3.7836573    0.5906762   -2.9294805  0.00   -0.0030910   -0.0078911   -0.0261217
h     5.2175043    1.6747685   -1.8125187  0.00   -0.0005901    0.0604270   -0.0166287
h     4.6669452    0.2610787   -3.3733770  0.00   -0.0052976    0.0023611    0.0065689
h     3.3189434   -0.2640557   -2.5594605  0.00    0.0014139    0.0041475    0.0027609
h    -2.3668149    2.8477050    0.2596162  0.00   -0.0012339    0.0003714    0.0001391
h    -2.0887431    0.4031051    0.0008953  0.00   -0.0022964   -0.0001045   -0.0001414
h    -0.3954316    4.3156122    0.2954964  0.00   -0.0000946    0.0012005    0.0005198
h     1.8622855    3.3646815    0.0643396  0.00    0.0030541   -0.0003806   -0.0050414
h     2.4652741   -1.5731701   -0.5607861  0.00   -0.0077998   -0.0061340   -0.0002449
o     2.2789781    3.2275677   -2.2987011  0.00    0.0660586   -0.0155882    0.0254088
o     4.5278178    3.9527182   -2.3390504  0.00   -0.0024237   -0.0109691   -0.0005052
h     5.4403274    3.5332202   -2.1994354  0.00   -0.0147751   -0.0877407    0.0197082
    27
 Energy =       0.2212961936
c    -1.3117814    2.4884917    0.2613929  0.00   -0.0110799    0.0081699    0.0001715
c    -1.1914604    1.1283958    0.1362834  0.00   -0.0196146   -0.0081137   -0.0000694
c     0.0556029    0.6074073   -0.0260683  0.00   -0.0175569   -0.0368860   -0.0000088
c    -0.1968514    3.2912820    0.2317129  0.00   -0.0045236    0.0160973    0.0001253
c     1.0506572    2.7422194    0.0664765  0.00    0.0081819    0.0151366   -0.0060475
c     1.1568444    1.3862683   -0.0828299  0.00    0.0115406    0.0121623   -0.0000705
n     0.4060270   -0.7523413   -0.1810876  0.00    0.0218022    0.0205737    0.0005159
c     2.2481158    0.5958485   -0.3011386  0.00    0.0345484   -0.0173261    0.0016784
c     1.8188108   -0.6892391   -0.3542487  0.00   -0.0142157   -0.0181790   -0.0006914
h    -0.2137911   -1.5905992   -0.1670752  0.00    0.0038121    0.0043604   -0.0002587
c     3.6864701    1.0478769   -0.4944192  0.00   -0.0029078    0.0089214   -0.0027172
c     4.0727088    1.4952701   -1.9367084  0.00    0.0408408    0.0196664    0.0181654
h     4.3541725    0.2075970   -0.2060688  0.00   -0.0006892    0.0006706    0.0000606
h     3.9098208    1.8667679    0.2238885  0.00   -0.0006650   -0.0001747    0.0002279
c     3.5703726    2.8949992   -2.2849997  0.00   -0.0762275    0.0248651   -0.0132320
n     3.6753955    0.5210097   -2.9872730  0.00   -0.0043664   -0.0067183   -0.0227011
h     5.1791450    1.5899967   -1.9524258  0.00    0.0010434    0.0499181   -0.0137118
h     4.5313194    0.1583261   -3.4631111  0.00   -0.0024423    0.0010206    0.0040794
h     3.1960666   -0.3135737   -2.5884379  0.00    0.0005793    0.0022660    0.0021985
h    -2.2972190    2.9339366    0.3857758  0.00   -0.0016027    0.0003641    0.0001603
h    -2.0652885    0.4823397    0.1596484  0.00   -0.0027270   -0.0006706   -0.0000982
h    -0.3022080    4.3701077    0.3314419  0.00    0.0000009    0.0013312    0.0004420
h     1.9310313    3.3800161    0.0357768  0.00    0.0034593    0.0003607   -0.0040390
h     2.4367877   -1.5671870   -0.5293501  0.00   -0.0060495   -0.0050821   -0.0002898
o     2.2518097    3.1971576   -2.3682042  0.00    0.0524394   -0.0123411    0.0204533
o     4.5162507    3.8940871   -2.4490495  0.00   -0.0018665   -0.0086059   -0.0004917
h     5.4317164    3.4766081   -2.3264091  0.00   -0.0117137   -0.0717868    0.0161485
    27
 Energy =       0.2191568970
c    -1.2581194    2.4992453    0.3868852  0.00   -0.0099529    0.0069593    0.0001565
c    -1.1496346    1.1405656    0.2495200  0.00   -0.0173399   -0.0067161   -0.0000338
c     0.0873672    0.6135263    0.0451461  0.00   -0.0150749   -0.0313788   -0.0000217
c    -0.1398303    3.2945020    0.3285151  0.00   -0.0042874    0.0140717    0.0001724
c     1.0977331    2.7389785    0.1199947  0.00    0.0074687    0.0126966   -0.0050402
c     1.1892590    1.3852661   -0.0438259  0.00    0.0096794    0.0104299    0.0000598
n     0.4222943   -0.7489044   -0.1289765  0.00    0.0173634    0.0175803    0.0007460
c     2.2657057    0.5927884   -0.3098458  0.00    0.0291431   -0.0152393    0.0017609
c     1.8297068   -0.6890899   -0.3558791  0.00   -0.0110383   -0.0153157   -0.0006947
h    -0.2021401   -1.5840823   -0.0966663  0.00    0.0030063    0.0034995   -0.0001826
c     3.6982077    1.0365574   -0.5676975  0.00   -0.0015932    0.0077107   -0.0015790
c     4.0219294    1.4861261   -2.0269611  0.00    0.0347245    0.0176986    0.0158165
h     4.3739317    0.1910206   -0.3126169  0.00    0.0000132    0.0002896    0.0001680
h     3.9601126    1.8517893    0.1427412  0.00   -0.0003586    0.0002274    0.0008843
c     3.5288009    2.8964764   -2.3462767  0.00   -0.0627223    0.0204533   -0.0118014
n     3.5653387    0.5228246   -3.0634008  0.00   -0.0056548   -0.0060834   -0.0203282
h     5.1296856    1.5621509   -2.0931251  0.00    0.0023220    0.0428471   -0.0118282
h     4.3939631    0.1453559   -3.5778383  0.00   -0.0005576    0.0000999    0.0024051
h     3.0820605   -0.3033258   -2.6519095  0.00    0.0004426    0.0016614    0.0015417
h    -2.2367852    2.9498842    0.5445289  0.00   -0.0019416    0.0005143    0.0002124
h    -2.0260540    0.4993996    0.2961244  0.00   -0.0026413   -0.0006406   -0.0000629
h    -0.2352300    4.3731668    0.4387486  0.00   -0.0001021    0.0012425    0.0003928
h     1.9811444    3.3711314    0.0656444  0.00    0.0032717    0.0003999   -0.0033448
h     2.4396501   -1.5656241   -0.5663652  0.00   -0.0045566   -0.0047505   -0.0004071
o     2.2055536    3.2208134   -2.3615043  0.00    0.0414219   -0.0095588    0.0175379
o     4.4783947    3.8899739   -2.5359226  0.00   -0.0018379   -0.0069434   -0.0004882
h     5.3974797    3.4725529   -2.4455451  0.00   -0.0091975   -0.0617552    0.0139584
    27
 Energy =       0.2131048008
c    -1.2020740    2.6183242    0.4554610  0.00   -0.0071298    0.0034326    0.0003410
c    -1.1417778    1.2587647    0.3251686  0.00   -0.0107824   -0.0041289    0.0000577
c     0.0645208    0.6920317    0.0742295  0.00   -0.0069543   -0.0166597   -0.0003276
c    -0.0632488    3.3756449    0.3418736  0.00   -0.0023037    0.0089337    0.0003475
c     1.1444608    2.7793329    0.0884008  0.00    0.0060177    0.0076836   -0.0033795
c     1.1829841    1.4244057   -0.0595957  0.00    0.0063152    0.0055890    0.0000761
n     0.3437546   -0.6885305   -0.0831046  0.00    0.0085379    0.0081690    0.0007141
c     2.2211662    0.5972295   -0.3329743  0.00    0.0160498   -0.0075384    0.0012028
c     1.7498882   -0.6702451   -0.3429313  0.00   -0.0047365   -0.0090209   -0.0007174
h    -0.3085792   -1.5033430   -0.0216455  0.00    0.0005503    0.0005647    0.0000935
c     3.6698544    0.9775991   -0.5951979  0.00   -0.0005772    0.0042503   -0.0011428
c     4.0107396    1.3925100   -2.0585184  0.00    0.0179790    0.0094040    0.0086691
h     4.3113702    0.1075211   -0.3293872  0.00    0.0005995   -0.0005845    0.0000478
h     3.9673423    1.7912311    0.1036115  0.00    0.0000601    0.0007081    0.0006980
c     3.6011073    2.8257239   -2.3941592  0.00   -0.0309882    0.0105893   -0.0046410
n     3.5080705    0.4401101   -3.0788902  0.00   -0.0037066    0.0008462   -0.0116199
h     5.1220182    1.4033977   -2.1168412  0.00    0.0026464    0.0258166   -0.0068457
h     4.3164101    0.0001069   -3.5810085  0.00    0.0023957   -0.0014649   -0.0005434
h     2.9553494   -0.3456898   -2.6675272  0.00   -0.0025966   -0.0031196    0.0024576
h    -2.1588623    3.1008127    0.6522399  0.00   -0.0024973    0.0006845    0.0005189
h    -2.0342979    0.6446007    0.4179812  0.00   -0.0027733   -0.0012024    0.0002068
h    -0.1193950    4.4578917    0.4464443  0.00   -0.0001007    0.0014716    0.0004349
h     2.0450872    3.3823259   -0.0056755  0.00    0.0029868    0.0009839   -0.0020182
h     2.3406248   -1.5641712   -0.5352350  0.00   -0.0021267   -0.0030607   -0.0004290
o     2.2777551    3.2015850   -2.4753309  0.00    0.0173669   -0.0035560    0.0090633
o     4.5911131    3.7886401   -2.5762143  0.00   -0.0004928   -0.0019658   -0.0009499
h     5.5051432    3.3552590   -2.5176816  0.00   -0.0037392   -0.0368252    0.0076851
    27
 Energy =       0.2117997199
c    -1.2134771    2.7137205    0.3725989  0.00   -0.0061312    0.0027888    0.0003986
c    -1.1871606    1.3533315    0.2477174  0.00   -0.0088959   -0.0034263    0.0001593
c     0.0059516    0.7541682    0.0161907  0.00   -0.0057267   -0.0128383   -0.0001502
c    -0.0539193    3.4397630    0.2726604  0.00   -0.0019087    0.0075020    0.0003549
c     1.1407609    2.8105149    0.0413699  0.00    0.0050723    0.0061817   -0.0026538
c     1.1452587    1.4550220   -0.0985883  0.00    0.0047440    0.0044970    0.0000718
n     0.2496410   -0.6356302   -0.1258178  0.00    0.0055503    0.0061168    0.0006408
c     2.1669516    0.5989642   -0.3364390  0.00    0.0116595   -0.0060858    0.0010713
c     1.6637237   -0.6554311   -0.3466819  0.00   -0.0028009   -0.0071790   -0.0006096
h    -0.4266406   -1.4323657   -0.0768379  0.00   -0.0001671   -0.0001933    0.0001182
c     3.6378034    0.9326994   -0.5398825  0.00    0.0002586    0.0035522    0.0004551
c     4.0571080    1.3204387   -1.9918678  0.00    0.0135014    0.0061584    0.0057849
h     4.2412526    0.0463596   -0.2357638  0.00    0.0014215   -0.0015718    0.0006164
h     3.9300933    1.7443736    0.1631627  0.00    0.0001488    0.0004876    0.0006984
c     3.7195130    2.7662040   -2.3584943  0.00   -0.0225376    0.0075697   -0.0038649
n     3.5641638    0.3777606   -3.0243401  0.00   -0.0039685    0.0066116   -0.0100025
h     5.1705348    1.2850009   -1.9979856  0.00    0.0040762    0.0197645   -0.0053333
h     4.3776755   -0.1163565   -3.4699916  0.00    0.0060490   -0.0029712   -0.0023809
h     2.9395517   -0.3683100   -2.6355877  0.00   -0.0055217   -0.0063108    0.0044407
h    -2.1598213    3.2220591    0.5539410  0.00   -0.0024067    0.0007265    0.0004977
h    -2.0964130    0.7629712    0.3305449  0.00   -0.0025577   -0.0011883    0.0002101
h    -0.0828516    4.5236377    0.3722058  0.00   -0.0001029    0.0015393    0.0003749
h     2.0585936    3.3889533   -0.0384765  0.00    0.0027383    0.0010947   -0.0015158
h     2.2404903   -1.5657898   -0.5044988  0.00   -0.0010031   -0.0029949   -0.0004648
o     2.4106153    3.1886478   -2.5040696  0.00    0.0096397   -0.0013413    0.0062230
o     4.7498662    3.6945186   -2.5151607  0.00    0.0005268    0.0002824   -0.0010495
h     5.6512595    3.2378432   -2.4364160  0.00   -0.0016577   -0.0287722    0.0059092
    27
 Energy =       0.2122042236
c    -1.2141085    2.7539867    0.3503583  0.00   -0.0058289    0.0025916    0.0003972
c    -1.2064583    1.3942905    0.2182222  0.00   -0.0083290   -0.0032761    0.0001629
c    -0.0208534    0.7793823   -0.0080343  0.00   -0.0053355   -0.0118679   -0.0001231
c    -0.0435196    3.4635229    0.2635285  0.00   -0.0017074    0.0070707    0.0003351
c     1.1434980    2.8182615    0.0384064  0.00    0.0046724    0.0057368   -0.0023555
c     1.1292107    1.4641063   -0.1096007  0.00    0.0044241    0.0041568    0.0000196
n     0.2032779   -0.6134532   -0.1540082  0.00    0.0049377    0.0055470    0.0005979
c     2.1401108    0.5945432   -0.3408240  0.00    0.0106623   -0.0055103    0.0009375
c     1.6192961   -0.6524311   -0.3600639  0.00   -0.0024597   -0.0067215   -0.0005420
h    -0.4852869   -1.4004956   -0.1165527  0.00   -0.0003588   -0.0004051    0.0001216
c     3.6182028    0.9047275   -0.5274557  0.00    0.0002709    0.0029925    0.0006274
c     4.0667857    1.2898066   -1.9723920  0.00    0.0127559    0.0042255    0.0066924
h     4.2016669    0.0065762   -0.2183740  0.00    0.0014490   -0.0016653    0.0006571
h     3.9167889    1.7073844    0.1833737  0.00    0.0002360    0.0005084    0.0007164
c     3.8202853    2.7606579   -2.3214216  0.00   -0.0202101    0.0057805   -0.0033482
n     3.5332805    0.3903825   -3.0249056  0.00   -0.0040966    0.0120805   -0.0112252
h     5.1769898    1.1907932   -1.9689254  0.00    0.0055089    0.0175625   -0.0044417
h     4.3215894   -0.1708999   -3.4412823  0.00    0.0096064   -0.0050074   -0.0037571
h     2.8287748   -0.3028302   -2.6651975  0.00   -0.0103944   -0.0113284    0.0064396
h    -2.1542115    3.2749204    0.5279761  0.00   -0.0023152    0.0007091    0.0004768
h    -2.1245282    0.8165213    0.2917158  0.00   -0.0024897   -0.0011905    0.0002060
h    -0.0571782    4.5470629    0.3703289  0.00   -0.0000729    0.0015651    0.0003543
h     2.0707655    3.3833410   -0.0255274  0.00    0.0027586    0.0011854   -0.0013576
h     2.1854027   -1.5698143   -0.5161257  0.00   -0.0008631   -0.0028345   -0.0004451
o     2.5369004    3.2689575   -2.4524705  0.00    0.0041833    0.0007425    0.0050931
o     4.9086194    3.6261380   -2.4776474  0.00    0.0016257    0.0045602   -0.0016882
h     5.7852244    3.1176303   -2.4096090  0.00    0.0013699   -0.0272078    0.0054488
    27
 Energy =       0.2108088351
c    -1.1875905    2.8105180    0.3520707  0.00   -0.0051088    0.0022528    0.0003679
c    -1.2011037    1.4508868    0.2244801  0.00   -0.0071906   -0.0028697    0.0001484
c    -0.0270708    0.8175047   -0.0066740  0.00   -0.0044938   -0.0100001   -0.0001141
c    -0.0075279    3.5018400    0.2552688  0.00   -0.0014535    0.0061623    0.0003155
c     1.1677255    2.8380071    0.0259826  0.00    0.0039232    0.0048688   -0.0017444
c     1.1319855    1.4838672   -0.1158997  0.00    0.0038311    0.0035038   -0.0000438
n     0.1746482   -0.5796327   -0.1465371  0.00    0.0040766    0.0044876    0.0004972
c     2.1286802    0.5987168   -0.3448068  0.00    0.0088200   -0.0042989    0.0009248
c     1.5897006   -0.6400668   -0.3553485  0.00   -0.0022369   -0.0057516   -0.0000775
h    -0.5253972   -1.3561699   -0.1020562  0.00   -0.0004634   -0.0005177    0.0001134
c     3.6130176    0.8855091   -0.5200175  0.00    0.0005778    0.0027899    0.0009833
c     4.0725323    1.2491201   -1.9652205  0.00    0.0122598    0.0029220    0.0070740
h     4.1830179   -0.0163427   -0.1977548  0.00    0.0013144   -0.0015675    0.0005307
h     3.9163815    1.6933668    0.1826411  0.00    0.0002075    0.0004729    0.0006513
c     3.7627506    2.6997110   -2.3553022  0.00   -0.0155706    0.0036784   -0.0020409
n     3.5833659    0.3008709   -2.9967316  0.00   -0.0044340    0.0186599   -0.0122817
h     5.1870192    1.1915129   -1.9419017  0.00    0.0057892    0.0145470   -0.0032987
h     4.4067884   -0.1835020   -3.4477595  0.00    0.0137792   -0.0070278   -0.0055192
h     2.9647194   -0.4615833   -2.6058755  0.00   -0.0148617   -0.0173105    0.0080767
h    -2.1185939    3.3461396    0.5325873  0.00   -0.0020886    0.0006684    0.0004252
h    -2.1270028    0.8872161    0.3052276  0.00   -0.0022326   -0.0010907    0.0001826
h    -0.0046666    4.5859493    0.3558201  0.00   -0.0000593    0.0014779    0.0003089
h     2.1022015    3.3894231   -0.0523919  0.00    0.0025741    0.0011878   -0.0011846
h     2.1436996   -1.5669447   -0.4971611  0.00   -0.0005854   -0.0026181   -0.0003926
o     2.4557286    3.1355941   -2.5399997  0.00   -0.0014427    0.0023815    0.0033773
o     4.8072781    3.6208260   -2.4993526  0.00    0.0015057    0.0069344   -0.0019543
h     5.7082378    3.1607314   -2.4097955  0.00    0.0035633   -0.0239429    0.0046746
    27
 Energy =       0.2090321565
c    -1.1477940    2.9140016    0.3408987  0.00   -0.0040304    0.0018198    0.0003674
c    -1.2019652    1.5558158    0.2140719  0.00   -0.0053779   -0.0022871    0.0001551
c    -0.0489340    0.8875879   -0.0186724  0.00   -0.0030700   -0.0067664   -0.0000773
c     0.0515091    3.5694259    0.2407836  0.00   -0.0010104    0.0048432    0.0002987
c     1.2051614    2.8704785    0.0111482  0.00    0.0030865    0.0036304   -0.0009521
c     1.1283968    1.5182164   -0.1273211  0.00    0.0028377    0.0023029   -0.0001179
n     0.1100368   -0.5161756   -0.1555942  0.00    0.0023179    0.0024401    0.0003218
c     2.0985497    0.6045154   -0.3486737  0.00    0.0058652   -0.0025566    0.0007445
c     1.5243693   -0.6175068   -0.3580394  0.00   -0.0014524   -0.0042356    0.0002432
h    -0.6127752   -1.2719310   -0.1109682  0.00   -0.0008407   -0.0009090    0.0001094
c     3.5935595    0.8471543   -0.4992580  0.00    0.0009661    0.0026150    0.0013424
c     4.0825301    1.1716756   -1.9425139  0.00    0.0097389    0.0018230    0.0052743
h     4.1342917   -0.0628795   -0.1505037  0.00    0.0013008   -0.0016949    0.0005130
h     3.9060847    1.6610812    0.1919673  0.00    0.0001107    0.0004426    0.0005146
c     3.7474475    2.6021431   -2.3838370  0.00   -0.0095024    0.0021849   -0.0009541
n     3.6246137    0.1830542   -2.9480071  0.00   -0.0032549    0.0176973   -0.0106232
h     5.1966202    1.1282672   -1.8920736  0.00    0.0044648    0.0097610   -0.0020032
h     4.4617272   -0.2412529   -3.4309722  0.00    0.0125495   -0.0061326   -0.0049087
h     3.0831492   -0.6203364   -2.5271047  0.00   -0.0136395   -0.0166288    0.0068934
h    -2.0619761    3.4774006    0.5217828  0.00   -0.0018651    0.0007099    0.0003727
h    -2.1437780    1.0199313    0.2965094  0.00   -0.0019438   -0.0010163    0.0001600
h     0.0865498    4.6533105    0.3379056  0.00   -0.0000428    0.0015326    0.0002522
h     2.1547146    3.3939936   -0.0748999  0.00    0.0022170    0.0011514   -0.0009405
h     2.0545851   -1.5604365   -0.4827088  0.00   -0.0000601   -0.0023015   -0.0002611
o     2.4320939    2.9927066   -2.6149857  0.00   -0.0033280    0.0025890    0.0017376
o     4.7633948    3.5532157   -2.5301823  0.00    0.0005944    0.0058950   -0.0015811
h     5.6783626    3.1296120   -2.4252599  0.00    0.0033690   -0.0169093    0.0031187
    27
 Energy =       0.2081286887
c    -1.1053685    2.9634431    0.3821779  0.00   -0.0031471    0.0013475    0.0002941
c    -1.1787430    1.6065035    0.2576736  0.00   -0.0040814   -0.0016930    0.0001239
c    -0.0384632    0.9232966    0.0105380  0.00   -0.0022107   -0.0049104   -0.0000717
c     0.1001843    3.6028681    0.2644677  0.00   -0.0007503    0.0036854    0.0002469
c     1.2406052    2.8889165    0.0203851  0.00    0.0022503    0.0026407   -0.0003742
c     1.1442592    1.5381065   -0.1135803  0.00    0.0021477    0.0016156   -0.0001479
n     0.1004695   -0.4826370   -0.1278897  0.00    0.0014940    0.0016611    0.0002462
c     2.0995758    0.6133591   -0.3455495  0.00    0.0043412   -0.0017884    0.0004817
c     1.5111757   -0.6009208   -0.3476024  0.00   -0.0008725   -0.0031314    0.0001905
h    -0.6308105   -1.2293563   -0.0729242  0.00   -0.0007539   -0.0007979    0.0000883
c     3.5952979    0.8401983   -0.5079660  0.00    0.0008592    0.0015801    0.0011943
c     4.0732265    1.1391586   -1.9590474  0.00    0.0076379    0.0008162    0.0067987
h     4.1318513   -0.0672924   -0.1480575  0.00    0.0009379   -0.0013048    0.0003369
h     3.9186909    1.6642218    0.1659708  0.00    0.0001548    0.0005140    0.0005275
c     3.6650790    2.5354836   -2.4548836  0.00   -0.0074761    0.0000741   -0.0003043