    27
 Energy =       0.4355261152
c    -1.4235396    2.6054793   -0.0667700  0.00   -0.0465537    0.0383315    0.0028321
c    -1.3072796    1.2134697   -0.1072300  0.00   -0.0851505   -0.0325913    0.0020526
c    -0.0178900    0.6711998   -0.1697000  0.00   -0.0888339   -0.1883011   -0.0012240
c    -0.2940599    3.4190890   -0.0891300  0.00   -0.0219370    0.0690875    0.0031210
c     0.9872197    2.8590292   -0.1560400  0.00    0.0502366    0.0710569    0.0020123
c     1.1340797    1.4562096   -0.1970299  0.00    0.0577072    0.0532468   -0.0043823
n     0.3879399   -0.6395298   -0.2140799  0.00    0.1427739    0.1103052   -0.0030163
c     2.2666594    0.5727398   -0.2659299  0.00    0.1539383   -0.1008088    0.0047804
c     1.7555995   -0.7123598   -0.2706899  0.00   -0.1018062   -0.0973840   -0.0006630
h    -0.2400399   -1.4313496   -0.2047299  0.00    0.0368287    0.0478525   -0.0005801
c     3.7030089    1.0223397   -0.3320099  0.00    0.0075615    0.0246397   -0.0255687
c     3.9341689    2.4461793   -0.8604738  0.00   -0.0804078   -0.0285210    0.0117842
h     4.2453388    0.3150949   -0.9737027  0.00   -0.0037517    0.0134053    0.0106818
h     4.1472888    0.9178277    0.6672218  0.00   -0.0039252   -0.0017972   -0.0131130
c     5.4257385    2.6142793   -1.2047197  0.00    0.2545375   -0.1733723   -0.2095578
n     3.5749390    3.5208790    0.1316430  0.00   -1.0421977    0.0881853   -0.1718481
h     3.3678090    2.6262393   -1.7818095  0.00    0.0012997    0.0095122    0.0242807
h     4.1089188    3.3319090    0.9861927  0.00   -0.0160190    0.0020807   -0.0412559
h     3.9666689    4.4045787   -0.2125809  0.00    0.0203877   -0.0570675    0.0033342
h    -2.4108593    3.0588691   -0.0157800  0.00   -0.0008158    0.0002661    0.0000110
h    -2.1896094    0.5822398   -0.0890100  0.00   -0.0036027    0.0036906    0.0000513
h    -0.4052699    4.5000487   -0.0535400  0.00    0.0009554   -0.0000283    0.0001280
h     1.8590495    3.5066790   -0.1715100  0.00    1.1291348    0.0052698    0.1864863
h     2.2327294   -1.6813195   -0.3062999  0.00   -0.0408151   -0.0111724    0.0023736
o     6.0621083    1.9073495   -1.9683894  0.00   -0.1500401    0.1743079    0.1897704
o     5.9669383    3.6721490   -0.5424658  0.00   -0.1318085   -0.0009916    0.0309838
h     6.9105680    3.7095089   -0.8470498  0.00   -0.0376966   -0.0192025   -0.0034744
    27
 Energy =       0.3377536877
c    -1.4511455    2.5175037   -0.1094590  0.00   -0.0296599    0.0251860    0.0018564
c    -1.2960722    1.1424200   -0.1488007  0.00   -0.0549395   -0.0209530    0.0013654
c    -0.0107768    0.6372271   -0.2175769  0.00   -0.0575283   -0.1200532   -0.0024536
c    -0.3507773    3.3521924   -0.1256222  0.00   -0.0135964    0.0445924    0.0019815
c     0.9303245    2.8280145   -0.1894553  0.00    0.0331358    0.0448606    0.0007436
c     1.1036384    1.4454706   -0.2456532  0.00    0.0368520    0.0350835   -0.0031168
n     0.4051830   -0.6907915   -0.2181148  0.00    0.0883634    0.0693304    0.0005267
c     2.2446465    0.6186203   -0.3081469  0.00    0.0988960   -0.0640268    0.0026958
c     1.7950822   -0.6732447   -0.2984284  0.00   -0.0653176   -0.0580582   -0.0016170
h    -0.1925031   -1.5222615   -0.1824269  0.00    0.0228677    0.0284122    0.0003125
c     3.6966692    1.0550552   -0.3160058  0.00    0.0046073    0.0159713   -0.0169998
c     3.9697312    2.4704179   -0.8430748  0.00   -0.0546469   -0.0198496    0.0072763
h     4.2697360    0.3384459   -0.9311402  0.00   -0.0014397    0.0085043    0.0063710
h     4.0914387    0.9587019    0.7110738  0.00   -0.0023090   -0.0012998   -0.0069309
c     5.4675958    2.6763931   -1.1129323  0.00    0.1629821   -0.1146180   -0.1337985
n     3.5385689    3.5095049    0.1310612  0.00   -0.7337202    0.0522337   -0.1232699
h     3.4469382    2.6383105   -1.8004297  0.00   -0.0000945    0.0065516    0.0147281
h     4.0581512    3.3626224    1.0146650  0.00   -0.0093133    0.0016200   -0.0246952
h     3.8857580    4.4243766   -0.2109496  0.00    0.0150773   -0.0354063    0.0011031
h    -2.4502457    2.9443813   -0.0537866  0.00   -0.0009060    0.0004388    0.0000284
h    -2.1581726    0.4837086   -0.1190425  0.00   -0.0028572    0.0020708    0.0000999
h    -0.4893954    4.4301633   -0.0777504  0.00    0.0006708    0.0004544    0.0001065
h     1.7752548    3.5088268   -0.1680824  0.00    0.7914638    0.0057828    0.1320787
h     2.3674114   -1.5951901   -0.3054489  0.00   -0.0231240   -0.0108614    0.0014416
o     6.1745294    1.9689381   -1.9127085  0.00   -0.0935713    0.1133916    0.1209323
o     5.9944191    3.7707594   -0.4703206  0.00   -0.0907139    0.0017001    0.0231175
h     6.9322356    3.8682621   -0.8070567  0.00   -0.0211784   -0.0110583   -0.0038836
    27
 Energy =       0.3219821944
c    -1.4622429    2.4784312   -0.0711296  0.00   -0.0269605    0.0228900    0.0016549
c    -1.2905804    1.1075574   -0.1103774  0.00   -0.0499721   -0.0190144    0.0011895
c    -0.0028326    0.6185363   -0.1945482  0.00   -0.0522775   -0.1087877   -0.0024375
c    -0.3731594    3.3244892   -0.0981303  0.00   -0.0123260    0.0405770    0.0017767
c     0.9105135    2.8151584   -0.1782346  0.00    0.0302786    0.0406784    0.0006859
c     1.0985613    1.4388399   -0.2430329  0.00    0.0332548    0.0320259   -0.0027208
n     0.4261797   -0.7084005   -0.1908008  0.00    0.0783693    0.0631247    0.0010270
c     2.2458352    0.6314782   -0.3370321  0.00    0.0889044   -0.0577271    0.0023583
c     1.8156967   -0.6646362   -0.3244243  0.00   -0.0579650   -0.0520346   -0.0018198
h    -0.1583854   -1.5507012   -0.1292644  0.00    0.0202619    0.0251149    0.0004044
c     3.6994536    1.0718413   -0.4035977  0.00    0.0027959    0.0153287   -0.0157894
c     3.9646733    2.5127526   -0.8742627  0.00   -0.0496107   -0.0182367    0.0049265
h     4.2348965    0.3850188   -1.0898933  0.00    0.0004719    0.0055165    0.0036380
h     4.1527574    0.9177086    0.5965206  0.00   -0.0006845   -0.0019325   -0.0030616
c     5.4632704    2.7356996   -1.1254185  0.00    0.1468291   -0.1042221   -0.1220116
n     3.5223797    3.5064240    0.1392007  0.00   -0.6704388    0.0464199   -0.1123468
h     3.4447607    2.7149699   -1.8282355  0.00   -0.0002419    0.0059662    0.0127320
h     4.0223457    3.3087899    1.0274239  0.00   -0.0074311    0.0012147   -0.0201397
h     3.8751190    4.4421664   -0.1440110  0.00    0.0145286   -0.0291872    0.0003504
h    -2.4657082    2.8932603   -0.0026296  0.00   -0.0009858    0.0004533    0.0000329
h    -2.1435402    0.4376611   -0.0671155  0.00   -0.0027668    0.0017761    0.0000971
h    -0.5233818    4.4007026   -0.0442072  0.00    0.0005833    0.0005022    0.0001018
h     1.7460398    3.5033622   -0.1553846  0.00    0.7204331    0.0051542    0.1205188
h     2.4080501   -1.5735651   -0.3693353  0.00   -0.0201821   -0.0105275    0.0011922
o     6.1936019    2.0270702   -1.9200534  0.00   -0.0842896    0.1026090    0.1095519
o     5.9919078    3.8105070   -0.4468244  0.00   -0.0845352    0.0018278    0.0221363
h     6.9520121    3.8837065   -0.7308152  0.00   -0.0160433   -0.0095096   -0.0040471
    27
 Energy =       0.3151559094
c    -1.4737492    2.4262735   -0.0240667  0.00   -0.0257555    0.0215517    0.0015392
c    -1.2787177    1.0592654   -0.0410584  0.00   -0.0473541   -0.0183743    0.0010859
c     0.0139918    0.5912041   -0.1463040  0.00   -0.0487993   -0.1009055   -0.0028818
c    -0.4007782    3.2893480   -0.0875102  0.00   -0.0113382    0.0387217    0.0016615
c     0.8879767    2.8008828   -0.1894315  0.00    0.0291127    0.0385496    0.0006445
c     1.0990296    1.4285794   -0.2408096  0.00    0.0316912    0.0307669   -0.0024859
n     0.4660665   -0.7302447   -0.0946446  0.00    0.0700779    0.0584340    0.0020862
c     2.2559348    0.6406020   -0.3598705  0.00    0.0835030   -0.0536798    0.0020990
c     1.8480704   -0.6609696   -0.3135210  0.00   -0.0512127   -0.0478218   -0.0026067
h    -0.0985353   -1.5833386    0.0294887  0.00    0.0169971    0.0206746    0.0009295
c     3.7072489    1.0899627   -0.4927888  0.00    0.0024510    0.0154956   -0.0151650
c     3.9605637    2.5451411   -0.9287048  0.00   -0.0473207   -0.0174041    0.0036178
h     4.2081382    0.4266644   -1.2297822  0.00    0.0016148    0.0041474    0.0019863
h     4.2131487    0.9025785    0.4789174  0.00    0.0003906   -0.0022957   -0.0009391
c     5.4609724    2.7955665   -1.1502948  0.00    0.1374655   -0.0980070   -0.1148399
n     3.4928492    3.5063235    0.1003342  0.00   -0.6319729    0.0432721   -0.1052213
h     3.4493699    2.7618084   -1.8847872  0.00   -0.0002711    0.0055100    0.0118100
h     3.9786580    3.2911911    0.9935820  0.00   -0.0068921    0.0012056   -0.0184318
h     3.8320376    4.4570041   -0.1521475  0.00    0.0139132   -0.0263963    0.0001400
h    -2.4827062    2.8247908    0.0620799  0.00   -0.0012766    0.0004297    0.0000559
h    -2.1181407    0.3748470    0.0418556  0.00   -0.0033870    0.0010125    0.0001695
h    -0.5681072    4.3637228   -0.0443169  0.00    0.0005986    0.0007061    0.0001062
h     1.7078373    3.5059724   -0.1874776  0.00    0.6785578    0.0051054    0.1136343
h     2.4574504   -1.5573834   -0.3808728  0.00   -0.0185262   -0.0101900    0.0010238
o     6.2274865    2.1033777   -1.9363128  0.00   -0.0783739    0.0959333    0.1024088
o     5.9662765    3.8669977   -0.4431988  0.00   -0.0798454    0.0022926    0.0215166
h     6.9358508    3.9486608   -0.6939705  0.00   -0.0140476   -0.0087341   -0.0039437
    27
 Energy =       0.2986658938
c    -1.4952027    2.3338040   -0.0096735  0.00   -0.0228380    0.0191606    0.0014165
c    -1.2628439    0.9759570   -0.0569994  0.00   -0.0413884   -0.0165581    0.0011462
c     0.0383760    0.5450706   -0.1757317  0.00   -0.0424672   -0.0859345   -0.0019503
c    -0.4477055    3.2248136   -0.0570395  0.00   -0.0098594    0.0342263    0.0013668
c     0.8509279    2.7741367   -0.1711664  0.00    0.0254070    0.0336450    0.0003641
c     1.0990489    1.4106266   -0.2561534  0.00    0.0275713    0.0265774   -0.0021902
n     0.5159302   -0.7734670   -0.1839367  0.00    0.0605346    0.0488565    0.0017734
c     2.2724373    0.6573662   -0.4027324  0.00    0.0731065   -0.0458578    0.0018657
c     1.9005337   -0.6531281   -0.3867020  0.00   -0.0435571   -0.0410618   -0.0020506
h    -0.0272087   -1.6488499   -0.0984898  0.00    0.0138890    0.0160897    0.0012649
c     3.7214248    1.1243293   -0.5515547  0.00    0.0004811    0.0128603   -0.0129273
c     3.9683493    2.6004708   -0.9212178  0.00   -0.0419763   -0.0163028    0.0004015
h     4.2094368    0.5010765   -1.3338990  0.00    0.0021178    0.0025684    0.0001734
h     4.2510230    0.8912500    0.3992406  0.00    0.0009271   -0.0026073    0.0003546
c     5.4707702    2.8974592   -1.0808504  0.00    0.1178541   -0.0845758   -0.0999706
n     3.4472708    3.4984012    0.1323107  0.00   -0.5544071    0.0359811   -0.0897297
h     3.4828165    2.8480907   -1.8853581  0.00   -0.0003098    0.0046863    0.0091397
h     3.9123291    3.2590924    1.0328637  0.00   -0.0059226    0.0012335   -0.0149386
h     3.7558159    4.4749574   -0.0687027  0.00    0.0126472   -0.0194988   -0.0003903
h    -2.5146651    2.7029078    0.0879103  0.00   -0.0016391    0.0005722    0.0002359
h    -2.0830881    0.2663725    0.0090388  0.00   -0.0033642    0.0003388    0.0004633
h    -0.6442944    4.2935755    0.0119956  0.00    0.0003532    0.0013846    0.0000942
h     1.6432131    3.5095995   -0.1441361  0.00    0.5929537    0.0053729    0.0995487
h     2.5421896   -1.5250175   -0.4821970  0.00   -0.0153519   -0.0097941    0.0008788
o     6.3005335    2.2360045   -1.8534395  0.00   -0.0650181    0.0817269    0.0868388
o     5.9298616    3.9697200   -0.3337757  0.00   -0.0700436    0.0038632    0.0204956
h     6.9109439    4.0742090   -0.5352173  0.00   -0.0096998   -0.0069526   -0.0036743
    27
 Energy =       0.2953872195
c    -1.5014097    2.3106793   -0.0423224  0.00   -0.0225746    0.0186087    0.0013867
c    -1.2628761    0.9556812   -0.1213058  0.00   -0.0403475   -0.0166604    0.0011149
c     0.0412192    0.5329177   -0.2305598  0.00   -0.0411625   -0.0824992   -0.0018290
c    -0.4571254    3.2066283   -0.0499696  0.00   -0.0092345    0.0337119    0.0013141
c     0.8448052    2.7643493   -0.1525961  0.00    0.0247434    0.0331450    0.0003192
c     1.0998430    1.4040723   -0.2700701  0.00    0.0270622    0.0261117   -0.0021856
n     0.5198646   -0.7853558   -0.2903933  0.00    0.0579382    0.0463775    0.0017245
c     2.2780745    0.6590470   -0.4164803  0.00    0.0714240   -0.0440333    0.0017901
c     1.9112874   -0.6527632   -0.4414843  0.00   -0.0413376   -0.0396709   -0.0020603
h    -0.0237506   -1.6658433   -0.2572429  0.00    0.0123259    0.0137550    0.0012827
c     3.7292838    1.1323094   -0.5314359  0.00    0.0005785    0.0127157   -0.0125587
c     3.9751032    2.6140851   -0.8777210  0.00   -0.0407402   -0.0159849    0.0001343
h     4.2341501    0.5218278   -1.3135448  0.00    0.0021520    0.0024074   -0.0000228
h     4.2424376    0.8890981    0.4259193  0.00    0.0009846   -0.0025336    0.0005385
c     5.4764153    2.9258747   -1.0208060  0.00    0.1145525   -0.0822607   -0.0972389
n     3.4393236    3.4899020    0.1850605  0.00   -0.5396353    0.0348992   -0.0869632
h     3.4961917    2.8741829   -1.8422784  0.00   -0.0002972    0.0045618    0.0087719
h     3.9033518    3.2442082    1.0847701  0.00   -0.0057626    0.0012049   -0.0144740
h     3.7350043    4.4737410   -0.0009577  0.00    0.0123421   -0.0186111   -0.0004254
h    -2.5239946    2.6732277    0.0470693  0.00   -0.0016860    0.0005174    0.0002348
h    -2.0817439    0.2411739   -0.0921591  0.00   -0.0037602   -0.0002164    0.0004644
h    -0.6592784    4.2727547    0.0439409  0.00    0.0004204    0.0017165    0.0001163
h     1.6312444    3.5047353   -0.0872290  0.00    0.5774035    0.0058074    0.0969250
h     2.5603361   -1.5184711   -0.5425956  0.00   -0.0149732   -0.0096527    0.0008668
o     6.3228207    2.2775241   -1.7906512  0.00   -0.0630187    0.0793664    0.0842853
o     5.9180540    4.0032156   -0.2686736  0.00   -0.0681411    0.0039376    0.0200825
h     6.8995917    4.1200262   -0.4618965  0.00   -0.0092561   -0.0067210   -0.0035941
    27
 Energy =       0.2933014995
c    -1.5110441    2.2607010   -0.0728464  0.00   -0.0223485    0.0180401    0.0013558
c    -1.2553754    0.9116292   -0.1858686  0.00   -0.0392138   -0.0167960    0.0010637
c     0.0544690    0.5068549   -0.2886859  0.00   -0.0398333   -0.0790076   -0.0016244
c    -0.4777581    3.1682868   -0.0395762  0.00   -0.0085939    0.0331862    0.0012854
c     0.8302368    2.7444525   -0.1331144  0.00    0.0238448    0.0325639    0.0002773
c     1.1039634    1.3904736   -0.2886306  0.00    0.0264295    0.0253605   -0.0021992
n     0.5455365   -0.8052861   -0.4001540  0.00    0.0556467    0.0437422    0.0015418
c     2.2923591    0.6620803   -0.4414192  0.00    0.0696650   -0.0419611    0.0017716
c     1.9398325   -0.6520700   -0.5090563  0.00   -0.0393489   -0.0383863   -0.0019927
h     0.0101480   -1.6930548   -0.4159960  0.00    0.0108978    0.0115603    0.0011871
c     3.7434689    1.1481523   -0.5335105  0.00    0.0002210    0.0121070   -0.0119672
c     3.9812491    2.6409574   -0.8365992  0.00   -0.0394663   -0.0159346   -0.0008431
h     4.2590641    0.5638981   -1.3291184  0.00    0.0022627    0.0020744   -0.0004045
h     4.2512045    0.8824913    0.4210072  0.00    0.0009916   -0.0025543    0.0007984
c     5.4798364    2.9850976   -0.9451598  0.00    0.1104783   -0.0796647   -0.0941771
n     3.4151007    3.4753675    0.2406443  0.00   -0.5236956    0.0333617   -0.0829822
h     3.5144008    2.9222724   -1.8017310  0.00   -0.0002544    0.0044189    0.0081326
h     3.8741022    3.2178333    1.1401438  0.00   -0.0055933    0.0012214   -0.0137813
h     3.6850161    4.4724294    0.0832096  0.00    0.0120692   -0.0166754   -0.0005320
h    -2.5392048    2.6088370    0.0107790  0.00   -0.0017929    0.0005125    0.0002387
h    -2.0665343    0.1869852   -0.1926992  0.00   -0.0041413   -0.0007969    0.0004382
h    -0.6939865    4.2291872    0.0832943  0.00    0.0004534    0.0022436    0.0001751
h     1.6020223    3.4962388   -0.0229104  0.00    0.5599697    0.0064808    0.0940394
h     2.6014631   -1.5065428   -0.6234820  0.00   -0.0144759   -0.0096392    0.0008283
o     6.3627511    2.3668510   -1.7051039  0.00   -0.0599569    0.0761577    0.0807265
o     5.8816977    4.0707738   -0.1782798  0.00   -0.0661716    0.0046681    0.0202147
h     6.8642047    4.2139317   -0.3507500  0.00   -0.0080434   -0.0062833   -0.0035708
    27
 Energy =       0.2945872657
c    -1.5233802    2.1781392   -0.1049335  0.00   -0.0226107    0.0177106    0.0013445
c    -1.2379957    0.8386094   -0.2535671  0.00   -0.0386510   -0.0172959    0.0009896
c     0.0812105    0.4634245   -0.3516952  0.00   -0.0390455   -0.0766325   -0.0014331
c    -0.5101272    3.1050557   -0.0287273  0.00   -0.0081148    0.0332413    0.0013326
c     0.8072420    2.7115222   -0.1140489  0.00    0.0230870    0.0323939    0.0002536
c     1.1137792    1.3677345   -0.3129600  0.00    0.0261032    0.0246361   -0.0022673
n     0.5977080   -0.8357129   -0.5136529  0.00    0.0543106    0.0415284    0.0013215
c     2.3191483    0.6659685   -0.4780481  0.00    0.0688314   -0.0401462    0.0018695
c     1.9910868   -0.6516788   -0.5896281  0.00   -0.0379414   -0.0377643   -0.0019582
h     0.0801098   -1.7336513   -0.5747492  0.00    0.0096969    0.0095494    0.0010224
c     3.7675423    1.1745926   -0.5600595  0.00   -0.0008909    0.0109879   -0.0112921
c     3.9860970    2.6835853   -0.7967289  0.00   -0.0389531   -0.0166900   -0.0034245
h     4.2872954    0.6336004   -1.3844878  0.00    0.0028102    0.0014013   -0.0014069
h     4.2838037    0.8737374    0.3801740  0.00    0.0010993   -0.0029334    0.0014870
c     5.4778264    3.0827152   -0.8486810  0.00    0.1066080   -0.0780923   -0.0921423
n     3.3707916    3.4523825    0.2990943  0.00   -0.5148313    0.0313254   -0.0779810
h     3.5365645    2.9959647   -1.7614229  0.00   -0.0001256    0.0043282    0.0071644
h     3.8202862    3.1769764    1.1987388  0.00   -0.0055286    0.0013492   -0.0128668
h     3.5978664    4.4679896    0.1861464  0.00    0.0119193   -0.0128816   -0.0006585
h    -2.5599115    2.5025532   -0.0257295  0.00   -0.0021001    0.0005934    0.0002604
h    -2.0342930    0.0978381   -0.2958552  0.00   -0.0046401   -0.0014867    0.0003845
h    -0.7503677    4.1572754    0.1269174  0.00    0.0004192    0.0031152    0.0003102
h     1.5535733    3.4814553    0.0495836  0.00    0.5485926    0.0076619    0.0922268
h     2.6708815   -1.4888395   -0.7252180  0.00   -0.0139565   -0.0099894    0.0007416
o     6.4210152    2.5188158   -1.5873305  0.00   -0.0554319    0.0724276    0.0763306
o     5.8091600    4.1801480   -0.0562723  0.00   -0.0655323    0.0070281    0.0220632
h     6.7913107    4.3686273   -0.1924722  0.00   -0.0051239   -0.0053656   -0.0036716
    27
 Energy =       0.2881423182
c    -1.5156504    2.2588339   -0.0796385  0.00   -0.0227438    0.0174764    0.0013443
c    -1.2591104    0.9108030   -0.2079306  0.00   -0.0383173   -0.0174787    0.0009514
c     0.0509474    0.5075452   -0.3094877  0.00   -0.0384752   -0.0752814   -0.0014099
c    -0.4823270    3.1670785   -0.0307593  0.00   -0.0079443    0.0331779    0.0013781
c     0.8265069    2.7448324   -0.1226599  0.00    0.0226304    0.0321276    0.0002817
c     1.1003127    1.3915369   -0.2931222  0.00    0.0258144    0.0240390   -0.0022670
n     0.5401271   -0.8054929   -0.4436966  0.00    0.0534458    0.0403314    0.0012672
c     2.2886491    0.6646781   -0.4482571  0.00    0.0680571   -0.0390368    0.0019447
c     1.9371197   -0.6494241   -0.5338630  0.00   -0.0370373   -0.0373759   -0.0019691
h     0.0032524   -1.6940586   -0.4807566  0.00    0.0091217    0.0086654    0.0009730
c     3.7416892    1.1477216   -0.5246185  0.00   -0.0018542    0.0100697   -0.0107766
c     3.9854260    2.6435227   -0.8211244  0.00   -0.0390826   -0.0175424   -0.0057008
h     4.2647631    0.5646086   -1.3196339  0.00    0.0034343    0.0007678   -0.0023047
h     4.2393805    0.8762949    0.4351099  0.00    0.0012403   -0.0033477    0.0021833
c     5.4881644    2.9854926   -0.9271185  0.00    0.1031576   -0.0770085   -0.0905555
n     3.4164437    3.4749614    0.2620753  0.00   -0.5093884    0.0299043   -0.0736697
h     3.5227857    2.9293699   -1.7882935  0.00    0.0000009    0.0042261    0.0064724
h     3.8743844    3.2143464    1.1619802  0.00   -0.0054870    0.0015089   -0.0121896
h     3.6879348    4.4764277    0.1092712  0.00    0.0119937   -0.0095816   -0.0008683
h    -2.5448358    2.6057960    0.0028275  0.00   -0.0023593    0.0006809    0.0002808
h    -2.0705353    0.1851214   -0.2293948  0.00   -0.0048885   -0.0018093    0.0003653
h    -0.6994156    4.2276469    0.1036475  0.00    0.0003722    0.0036243    0.0003822
h     1.5980820    3.4986393    0.0003784  0.00    0.5406308    0.0083484    0.0907855
h     2.6018261   -1.5021152   -0.6518731  0.00   -0.0135385   -0.0102051    0.0006820
o     6.3732760    2.3600627   -1.6923115  0.00   -0.0513966    0.0687056    0.0721132
o     5.8961232    4.0723716   -0.1573107  0.00   -0.0653517    0.0096217    0.0242436
h     6.8829036    4.2122277   -0.3290531  0.00   -0.0020348   -0.0046077   -0.0039371
    27
 Energy =       0.2792060435
c    -1.5078986    2.3334400   -0.0682801  0.00   -0.0219828    0.0166907    0.0012978
c    -1.2770858    0.9799634   -0.1842730  0.00   -0.0367120   -0.0169217    0.0008950
c     0.0236248    0.5519290   -0.2856334  0.00   -0.0366575   -0.0716700   -0.0013632
c    -0.4573549    3.2231085   -0.0350477  0.00   -0.0076199    0.0319053    0.0013681
c     0.8429598    2.7751934   -0.1289287  0.00    0.0215502    0.0307641    0.0003247
c     1.0870148    1.4159770   -0.2796218  0.00    0.0246446    0.0227413   -0.0021568
n     0.4867440   -0.7724478   -0.4035407  0.00    0.0509046    0.0381362    0.0011956
c     2.2592201    0.6682015   -0.4233709  0.00    0.0648781   -0.0369046    0.0019143
c     1.8876851   -0.6409911   -0.4938178  0.00   -0.0350457   -0.0357635   -0.0019015
h    -0.0679201   -1.6510711   -0.4300236  0.00    0.0084614    0.0078892    0.0009145
c     3.7171631    1.1265503   -0.4828431  0.00   -0.0025407    0.0090711   -0.0100242
c     3.9870902    2.6074932   -0.8312012  0.00   -0.0381056   -0.0175711   -0.0072146
h     4.2462964    0.5055776   -1.2463234  0.00    0.0039417    0.0001616   -0.0030222
h     4.1916774    0.8821251    0.4962829  0.00    0.0013728   -0.0036120    0.0028123
c     5.4968860    2.8923995   -0.9825777  0.00    0.0965164   -0.0733925   -0.0860008
n     3.4601418    3.4917193    0.2375553  0.00   -0.4880724    0.0279383   -0.0676581
h     3.5138528    2.8714870   -1.7999594  0.00    0.0000990    0.0039745    0.0057660
h     3.9234518    3.2416559    1.1380259  0.00   -0.0052552    0.0015796   -0.0113345
h     3.7730996    4.4772129    0.0516566  0.00    0.0118446   -0.0066317   -0.0011001
h    -2.5302311    2.7003786    0.0143120  0.00   -0.0024701    0.0007307    0.0002864
h    -2.1015868    0.2688193   -0.1950609  0.00   -0.0048421   -0.0019125    0.0003426
h    -0.6539942    4.2895581    0.0846055  0.00    0.0003108    0.0038030    0.0004108
h     1.6361944    3.5118178   -0.0347045  0.00    0.5160906    0.0083877    0.0864519
h     2.5409054   -1.5053662   -0.5945854  0.00   -0.0127214   -0.0099780    0.0006196
o     6.3247941    2.2073756   -1.7686092  0.00   -0.0463858    0.0628412    0.0658774
o     5.9783023    3.9632474   -0.2342341  0.00   -0.0630349    0.0116702    0.0254380
h     6.9671909    4.0534745   -0.4354148  0.00    0.0008313   -0.0039268   -0.0041389
    27
 Energy =       0.2678606641
c    -1.5005825    2.4024582   -0.0690447  0.00   -0.0203657    0.0153177    0.0012026
c    -1.2927884    1.0458530   -0.1785828  0.00   -0.0338053   -0.0156895    0.0008213
c    -0.0015764    0.5959451   -0.2766528  0.00   -0.0335661   -0.0656461   -0.0012439
c    -0.4351862    3.2740472   -0.0425630  0.00   -0.0070720    0.0294499    0.0012981
c     0.8566030    2.8031582   -0.1344372  0.00    0.0198163    0.0283269    0.0003584
c     1.0734388    1.4407071   -0.2715200  0.00    0.0225996    0.0207388   -0.0019556
n     0.4364652   -0.7382850   -0.3864138  0.00    0.0465471    0.0347890    0.0010571
c     2.2303532    0.6757132   -0.4016856  0.00    0.0592510   -0.0336055    0.0017696
c     1.8418758   -0.6278512   -0.4650673  0.00   -0.0318504   -0.0328710   -0.0017282
h    -0.1347424   -1.6070924   -0.4128160  0.00    0.0075776    0.0069836    0.0008247
c     3.6934102    1.1100397   -0.4332538  0.00   -0.0029976    0.0079699   -0.0089997
c     3.9918122    2.5740914   -0.8294820  0.00   -0.0358256   -0.0166956   -0.0081184
h     4.2316711    0.4526962   -1.1607892  0.00    0.0043737   -0.0004967   -0.0036443
h     4.1387751    0.8930435    0.5663832  0.00    0.0015208   -0.0037555    0.0034691
c     5.5054290    2.8024776   -1.0194810  0.00    0.0867624   -0.0671260   -0.0785140
n     3.5029737    3.5045772    0.2222281  0.00   -0.4509780    0.0253017   -0.0600022
h     3.5103557    2.8184594   -1.7999639  0.00    0.0001745    0.0035848    0.0049716
h     3.9705052    3.2651285    1.1240147  0.00   -0.0048242    0.0015738   -0.0101531
h     3.8527053    4.4729084    0.0057491  0.00    0.0114187   -0.0040215   -0.0013274
h    -2.5165553    2.7871529    0.0109916  0.00   -0.0024430    0.0007350    0.0002776
h    -2.1287012    0.3483767   -0.1864220  0.00   -0.0045606   -0.0018754    0.0003117
h    -0.6135727    4.3447155    0.0668993  0.00    0.0002405    0.0037202    0.0004082
h     1.6684589    3.5225755   -0.0600627  0.00    0.4750623    0.0079261    0.0793067
h     2.4869881   -1.5007118   -0.5475624  0.00   -0.0114759   -0.0093376    0.0005527
o     6.2771037    2.0600652   -1.8218026  0.00   -0.0404138    0.0549498    0.0577504
o     6.0574037    3.8538580   -0.2936723  0.00   -0.0585139    0.0130570    0.0255365
h     7.0456009    3.8947214   -0.5206044  0.00    0.0033475   -0.0033037   -0.0042294
    27
 Energy =       0.2544285003
c    -1.4942954    2.4665912   -0.0826901  0.00   -0.0179345    0.0133569    0.0010623
c    -1.3070449    1.1087689   -0.1906678  0.00   -0.0296246   -0.0138256    0.0007393
c    -0.0253901    0.6395467   -0.2820553  0.00   -0.0292401   -0.0572235   -0.0010210
c    -0.4161049    3.3206627   -0.0547075  0.00   -0.0062695    0.0258560    0.0011639
c     0.8671457    2.8291601   -0.1403476  0.00    0.0174528    0.0248499    0.0003632
c     1.0590920    1.4656992   -0.2689174  0.00    0.0197106    0.0180605   -0.0016799
n     0.3885749   -0.7035314   -0.3896845  0.00    0.0403239    0.0302712    0.0008215
c     2.2015660    0.6868454   -0.3824602  0.00    0.0512113   -0.0291083    0.0014839
c     1.7989024   -0.6106496   -0.4460204  0.00   -0.0274294   -0.0287040   -0.0014288
h    -0.1979042   -1.5629092   -0.4249181  0.00    0.0064042    0.0058383    0.0006945
c     3.6696422    1.0976723   -0.3741872  0.00   -0.0032149    0.0068079   -0.0077066
c     4.0004853    2.5421338   -0.8163206  0.00   -0.0321361   -0.0148880   -0.0084876
h     4.2204578    0.4038965   -1.0590050  0.00    0.0047645   -0.0012685   -0.0042020
h     4.0780954    0.9105359    0.6476295  0.00    0.0016952   -0.0037910    0.0042335
c     5.5154813    2.7141230   -1.0382163  0.00    0.0741216   -0.0582528   -0.0682489
n     3.5458835    3.5145089    0.2148715  0.00   -0.3988991    0.0219436   -0.0509282
h     3.5137823    2.7679398   -1.7894392  0.00    0.0002293    0.0030744    0.0040753
h     4.0180894    3.2886169    1.1186746  0.00   -0.0041932    0.0015052   -0.0085761
h     3.9259502    4.4650775   -0.0325045  0.00    0.0106408   -0.0018175   -0.0015181
h    -2.5044093    2.8671265   -0.0080919  0.00   -0.0022887    0.0006902    0.0002555
h    -2.1529443    0.4240570   -0.2025481  0.00   -0.0040851   -0.0017387    0.0002730
h    -0.5781161    4.3943028    0.0483137  0.00    0.0001666    0.0034082    0.0003786
h     1.6948233    3.5318050   -0.0776992  0.00    0.4183967    0.0070555    0.0695341
h     2.4389128   -1.4892710   -0.5085037  0.00   -0.0097954   -0.0083075    0.0004843
o     6.2326759    1.9160782   -1.8517744  0.00   -0.0335628    0.0452975    0.0479849
o     6.1350321    3.7440731   -0.3374438  0.00   -0.0517971    0.0136330    0.0244126
h     7.1198403    3.7359683   -0.5868996  0.00    0.0053530   -0.0027229   -0.0041635
    27
 Energy =       0.2398762191
c    -1.4898007    2.5262909   -0.1122529  0.00   -0.0148862    0.0109232    0.0008916
c    -1.3205858    1.1687956   -0.2229022  0.00   -0.0244665   -0.0114719    0.0006654
c    -0.0482423    0.6825893   -0.3030521  0.00   -0.0239988   -0.0469546   -0.0006982
c    -0.4007362    3.3635231   -0.0739080  0.00   -0.0052355    0.0213873    0.0009737
c     0.8741131    2.8535752   -0.1480283  0.00    0.0146399    0.0205616    0.0003258
c     1.0437058    1.4909229   -0.2726476  0.00    0.0161818    0.0148846   -0.0013592
n     0.3432023   -0.6684263   -0.4123033  0.00    0.0325711    0.0248587    0.0004918
c     2.1727970    0.7011860   -0.3654541  0.00    0.0412809   -0.0236562    0.0010370
c     1.7584639   -0.5900076   -0.4363705  0.00   -0.0220549   -0.0235410   -0.0010123
h    -0.2568990   -1.5188994   -0.4639367  0.00    0.0049737    0.0044646    0.0005256
c     3.6449709    1.0892835   -0.3045223  0.00   -0.0031690    0.0056982   -0.0062334
c     4.0139649    2.5107625   -0.7910868  0.00   -0.0271918   -0.0122740   -0.0083842
h     4.2117562    0.3585184   -0.9377342  0.00    0.0051647   -0.0021832   -0.0046842
h     4.0071015    0.9358639    0.7408653  0.00    0.0018824   -0.0037329    0.0051748
c     5.5289372    2.6258936   -1.0361103  0.00    0.0594877   -0.0473436   -0.0559403