    27
 Energy =       1.4212978023
c    -1.4235396    2.6054793   -0.0667700  0.00   -0.0461665    0.0382475    0.0029254
c    -1.3072796    1.2134697   -0.1072300  0.00   -0.0851553   -0.0327099    0.0021801
c    -0.0178900    0.6711998   -0.1697000  0.00   -0.0881156   -0.1873757   -0.0018433
c    -0.2940599    3.4190890   -0.0891300  0.00   -0.0231090    0.0691111    0.0030733
c     0.9872197    2.8590292   -0.1560400  0.00    0.0102449    0.0647339    0.0011573
c     1.1340797    1.4562096   -0.1970299  0.00    0.0758812    0.0411717    0.0193861
n     0.3879399   -0.6395298   -0.2140799  0.00    0.1433612    0.1075473    0.0002470
c     2.2666594    0.5727398   -0.2659299  0.00    2.7371982    0.1137637    6.0540757
c     1.7555995   -0.7123598   -0.2706899  0.00   -0.0503182   -0.0584354    0.0648512
h    -0.2400399   -1.4313496   -0.2047299  0.00    0.0354748    0.0473735   -0.0018668
c     3.7030089    1.0223397   -0.3320099  0.00   -0.7388459   -0.3849487    1.3750652
c     4.7465686   -0.0024900    0.1378100  0.00   -0.1533731    0.0807590   -0.0644020
h     3.7978489    1.9290294    0.2803699  0.00   -0.0584212   -0.0841484    0.0399823
h     3.9233889    1.3348996   -1.3618196  0.00   -0.0075517   -0.0004112    0.0139078
c     4.2682788   -0.6309508    1.4598596  0.00    0.1685935   -0.2415931    0.2181485
n     6.1061283    0.5956748    0.3870399  0.00    0.1032622   -0.0283187    0.0625870
h     4.8578986   -0.8184518   -0.5859768  0.00    0.0176247    0.0165322    0.0162562
h     6.3010282    0.4926839    1.3882896  0.00   -0.0434537   -0.0234517   -0.0370272
h     6.7998681   -0.0124192   -0.0622002  0.00   -0.0302259    0.0149530    0.0165225
h    -2.4108593    3.0588691   -0.0157800  0.00   -0.0008092    0.0002534   -0.0001047
h    -2.1896094    0.5822398   -0.0890100  0.00   -0.0036963    0.0037817   -0.0001580
h    -0.4052699    4.5000487   -0.0535400  0.00    0.0008302    0.0002510    0.0001402
h     1.8590495    3.5066790   -0.1715100  0.00   -0.0007194    0.0028426    0.0005846
h     2.2327294   -1.6813195   -0.3062999  0.00   -0.0391927   -0.0093344    0.0018108
o     4.8294286   -1.5313296    2.0617994  0.00   -0.1341913    0.2175637   -0.1408177
o     3.1170891   -0.0494250    1.8924795  0.00   -0.0179726    0.0786177   -0.2207299
h     2.8920692    0.6217388    1.1971297  0.00   -1.7711533    0.1532243   -7.4259517
    27
 Energy =       1.3694494473
c    -1.4024232    2.6227423   -0.0257700  0.00   -0.0446671    0.0370070    0.0028304
c    -1.2893579    1.2319636   -0.0695477  0.00   -0.0824011   -0.0316815    0.0021047
c    -0.0029393    0.6869135   -0.1289557  0.00   -0.0851456   -0.1809261   -0.0017356
c    -0.2715044    3.4327159   -0.0454872  0.00   -0.0223615    0.0668718    0.0029710
c     1.0072058    2.8696107   -0.1120028  0.00    0.0099722    0.0625871    0.0011465
c     1.1496975    1.4676557   -0.1531628  0.00    0.0736064    0.0398404    0.0186788
n     0.3944550   -0.6262958   -0.1945873  0.00    0.1386396    0.1037295    0.0001044
c     2.2804714    0.5829596   -0.2246123  0.00    2.6496661    0.1106589    5.8520189
c     1.7643879   -0.7004356   -0.2361710  0.00   -0.0478863   -0.0560945    0.0629063
h    -0.2379119   -1.4163172   -0.2000556  0.00    0.0342009    0.0456810   -0.0018390
c     3.6488247    1.0069059   -0.3216149  0.00   -0.7144157   -0.3711400    1.3188237
c     4.6984010   -0.0254357    0.0868910  0.00   -0.1507158    0.0770607   -0.0644772
h     3.7779572    1.9134486    0.2833556  0.00   -0.0565554   -0.0806120    0.0387513
h     3.8345268    1.3239322   -1.3585577  0.00   -0.0070855   -0.0003409    0.0129316
c     4.2933270   -0.6332108    1.4404161  0.00    0.1622921   -0.2327822    0.2113319
n     6.0792779    0.5565517    0.2433950  0.00    0.1030364   -0.0239573    0.0588685
h     4.7488728   -0.8505497   -0.6359665  0.00    0.0166896    0.0148867    0.0141831
h     6.3307849    0.4927502    1.2367905  0.00   -0.0407077   -0.0223532   -0.0321469
h     6.7340725   -0.0865627   -0.2209533  0.00   -0.0277385    0.0129976    0.0146214
h    -2.3887331    3.0785484    0.0232502  0.00   -0.0007893    0.0002450   -0.0001009
h    -2.1732520    0.6026775   -0.0589171  0.00   -0.0036023    0.0036372   -0.0001555
h    -0.3798842    4.5139647   -0.0091379  0.00    0.0008025    0.0002473    0.0001355
h     1.8806190    3.5151194   -0.1269482  0.00   -0.0006901    0.0027436    0.0005627
h     2.2404064   -1.6695723   -0.2918037  0.00   -0.0377329   -0.0091568    0.0017780
o     4.9034631   -1.5399771    1.9984557  0.00   -0.1286834    0.2080122   -0.1356064
o     3.1676557   -0.0445984    1.9362585  0.00   -0.0197267    0.0749930   -0.2099182
h     2.8889328    0.6262896    1.2507408  0.00   -1.7180009    0.1478452   -7.1687690
    27
 Energy =       1.1777094669
c    -1.3802157    2.6293426   -0.0014454  0.00   -0.0368581    0.0305039    0.0023467
c    -1.2724312    1.2444359   -0.0478675  0.00   -0.0680926   -0.0262298    0.0017716
c     0.0029792    0.6959879   -0.1030126  0.00   -0.0700210   -0.1493358   -0.0010876
c    -0.2484817    3.4306852   -0.0169607  0.00   -0.0185456    0.0552126    0.0024521
c     1.0213854    2.8622823   -0.0799090  0.00    0.0082927    0.0517204    0.0009316
c     1.1493490    1.4681457   -0.1207529  0.00    0.0607286    0.0330145    0.0154225
n     0.3808191   -0.6293407   -0.1834100  0.00    0.1143036    0.0853646   -0.0003796
c     2.2714675    0.5941826   -0.1852119  0.00    2.2353085    0.0961104    4.9233291
c     1.7616431   -0.6871692   -0.2100361  0.00   -0.0385381   -0.0454541    0.0533449
h    -0.2558109   -1.4233229   -0.2031897  0.00    0.0281732    0.0376410   -0.0016604
c     3.6136329    1.0054071   -0.3012649  0.00   -0.6073848   -0.3145292    1.1085169
c     4.6596283   -0.0422089    0.0572684  0.00   -0.1294524    0.0629402   -0.0548720
h     3.7781773    1.9093478    0.3029096  0.00   -0.0471930   -0.0670889    0.0325936
h     3.7781258    1.3265984   -1.3435738  0.00   -0.0058051   -0.0003250    0.0104656
c     4.3217817   -0.6119932    1.4395297  0.00    0.1327907   -0.1915909    0.1763580
n     6.0500035    0.5264495    0.1027573  0.00    0.0888759   -0.0161414    0.0442486
h     4.6407764   -0.8843641   -0.6545871  0.00    0.0129434    0.0105902    0.0099653
h     6.3730780    0.5180771    1.0838918  0.00   -0.0314142   -0.0180853   -0.0206652
h     6.6698240   -0.1449929   -0.3797064  0.00   -0.0218374    0.0094854    0.0107794
h    -2.3645880    3.0895046    0.0446370  0.00   -0.0006706    0.0002008   -0.0000809
h    -2.1578124    0.6171952   -0.0443126  0.00   -0.0029947    0.0029799   -0.0001344
h    -0.3511974    4.5125231    0.0199741  0.00    0.0006548    0.0002210    0.0001125
h     1.8999157    3.5007925   -0.0916115  0.00   -0.0005246    0.0022674    0.0004612
h     2.2607142   -1.6445751   -0.2806503  0.00   -0.0306973   -0.0076797    0.0014584
o     4.9759115   -1.5472422    1.9651845  0.00   -0.1047688    0.1699434   -0.1129896
o     3.2230996   -0.0180700    2.0013833  0.00   -0.0179708    0.0608088   -0.1704147
h     2.8755586    0.6341158    1.3152683  0.00   -1.4493023    0.1274557   -6.0322737
    27
 Energy =       0.6878424104
c    -1.3508139    2.6079838   -0.0201682  0.00   -0.0102533    0.0081876    0.0008605
c    -1.2556859    1.2422932   -0.0838093  0.00   -0.0202754   -0.0082412    0.0013969
c    -0.0139917    0.6875140   -0.1229210  0.00   -0.0191392   -0.0445451    0.0035522
c    -0.2185155    3.3848323   -0.0071977  0.00   -0.0060907    0.0160662    0.0005200
c     1.0242062    2.8032623   -0.0512771  0.00    0.0027750    0.0159538   -0.0002377
c     1.1075907    1.4368179   -0.1029628  0.00    0.0176792    0.0109376    0.0049750
n     0.3129870   -0.6757762   -0.2440871  0.00    0.0318590    0.0237116   -0.0045009
c     2.1996167    0.6066595   -0.1384601  0.00    1.0940828    0.0570271    2.5095086
c     1.7303987   -0.6685405   -0.2263758  0.00   -0.0069022   -0.0059683    0.0272937
h    -0.3287339   -1.4890641   -0.3122112  0.00    0.0075849    0.0099615   -0.0019325
c     3.6146978    1.0340103   -0.2619689  0.00   -0.2865670   -0.1504150    0.5622225
c     4.6497135   -0.0394038    0.0961580  0.00   -0.0517867    0.0193878   -0.0155041
h     3.8058551    1.9417688    0.3449918  0.00   -0.0216221   -0.0317267    0.0173985
h     3.7892849    1.3404557   -1.3146818  0.00   -0.0014925   -0.0002424    0.0032138
c     4.3544003   -0.5387316    1.5017867  0.00    0.0409316   -0.0542295    0.0571632
n     6.0140027    0.5428142   -0.0048680  0.00    0.0270853   -0.0018530    0.0022492
h     4.5581458   -0.9154579   -0.5859927  0.00    0.0018765    0.0000874    0.0016774
h     6.4495012    0.6166282    0.9502886  0.00   -0.0044604   -0.0058107    0.0065940
h     6.6228924   -0.1172514   -0.5384595  0.00   -0.0046388    0.0023071    0.0015968
h    -2.3303661    3.0791028    0.0135631  0.00   -0.0003936    0.0000140    0.0000068
h    -2.1435798    0.6188076   -0.1103202  0.00   -0.0012268    0.0005369   -0.0000685
h    -0.3059956    4.4678628    0.0398014  0.00    0.0001747    0.0002453    0.0000269
h     1.9179178    3.4207300   -0.0383904  0.00    0.0004907    0.0007868    0.0000985
h     2.3193230   -1.5787840   -0.3212133  0.00   -0.0057510   -0.0047892    0.0005655
o     5.0439207   -1.5660183    2.0369897  0.00   -0.0316833    0.0489787   -0.0386693
o     3.2767069    0.0418741    2.1440109  0.00   -0.0073274    0.0197416   -0.0598854
h     2.8338546    0.6474045    1.4430766  0.00   -0.7449293    0.0738899   -3.0801216
    27
 Energy =       0.4840837437
c    -1.3341418    2.6091727    0.0008826  0.00   -0.0044510    0.0034855    0.0003759
c    -1.2459555    1.2473006   -0.0609867  0.00   -0.0087962   -0.0036089    0.0006056
c    -0.0138119    0.6866092   -0.1002754  0.00   -0.0081142   -0.0192020    0.0012074
c    -0.1991795    3.3759785    0.0133062  0.00   -0.0027189    0.0069652    0.0002239
c     1.0344161    2.7866210   -0.0316715  0.00    0.0012747    0.0069428   -0.0001346
c     1.1043449    1.4257445   -0.0827291  0.00    0.0079623    0.0046823    0.0022707
n     0.2980847   -0.6875221   -0.2081057  0.00    0.0124025    0.0104222   -0.0011147
c     2.1874231    0.6044202   -0.1297474  0.00    0.6296587    0.0342568    1.4476549
c     1.7243452   -0.6667811   -0.2410130  0.00   -0.0004203   -0.0010783    0.0129912
h    -0.3475063   -1.5047658   -0.2545858  0.00    0.0030757    0.0040580   -0.0007160
c     3.6021114    1.0438736   -0.2802910  0.00   -0.1681729   -0.0847365    0.3215370
c     4.6535247   -0.0179477    0.0892800  0.00   -0.0246267    0.0086884   -0.0059392
h     3.7943654    1.9637545    0.3122738  0.00   -0.0121060   -0.0169870    0.0095364
h     3.7639270    1.3336965   -1.3417173  0.00   -0.0006813   -0.0000549    0.0011622
c     4.3531188   -0.5621098    1.4789563  0.00    0.0149173   -0.0051800    0.0211871
n     5.9949465    0.6039811   -0.0017455  0.00   -0.0006630    0.0105710    0.0024393
h     4.5835250   -0.8834022   -0.6110824  0.00    0.0004408   -0.0004452    0.0004350
h     6.4809241    0.5792541    0.9365503  0.00    0.0009813   -0.0030339    0.0127818
h     6.5979140    0.0361639   -0.6593287  0.00    0.0084241   -0.0092097   -0.0116803
h    -2.3106304    3.0862980    0.0352415  0.00   -0.0001959    0.0000097    0.0000031
h    -2.1361707    0.6274416   -0.0833276  0.00   -0.0005445    0.0002125   -0.0000280
h    -0.2789224    4.4596309    0.0590692  0.00    0.0000652    0.0001390    0.0000130
h     1.9315640    3.3983831   -0.0233307  0.00    0.0003518    0.0002672    0.0000424
h     2.3280683   -1.5632219   -0.3710080  0.00   -0.0019599   -0.0026131    0.0001234
o     4.9573500   -1.7247714    1.9216155  0.00   -0.0069516    0.0008661   -0.0135933
o     3.3181263    0.0273697    2.1922143  0.00   -0.0058631    0.0097622   -0.0268763
h     2.8355725    0.6466224    1.5268580  0.00   -0.4332889    0.0448208   -1.7745081
    27
 Energy =       0.4058691838
c    -1.3387251    2.6030511    0.0125654  0.00   -0.0030501    0.0023443    0.0002495
c    -1.2537279    1.2417723   -0.0440281  0.00   -0.0059859   -0.0024689    0.0003894
c    -0.0245935    0.6785140   -0.0888630  0.00   -0.0054870   -0.0129977    0.0007655
c    -0.2024206    3.3665364    0.0146121  0.00   -0.0018315    0.0047433    0.0001555
c     1.0281580    2.7741763   -0.0363351  0.00    0.0008902    0.0047187   -0.0000824
c     1.0933425    1.4144698   -0.0823182  0.00    0.0055389    0.0031218    0.0016459
n     0.2822287   -0.6990287   -0.1897455  0.00    0.0082539    0.0070436   -0.0006779
c     2.1721761    0.5942305   -0.1371346  0.00    0.4569038    0.0256614    1.0530521
c     1.7098954   -0.6761994   -0.2407646  0.00    0.0001689   -0.0005473    0.0090880
h    -0.3654065   -1.5165861   -0.2240740  0.00    0.0020029    0.0026640   -0.0004737
c     3.5910544    1.0332305   -0.3027735  0.00   -0.1218454   -0.0612925    0.2329476
c     4.6498013   -0.0171906    0.0822382  0.00   -0.0185315    0.0064166   -0.0044913
h     3.7832487    1.9614034    0.2777698  0.00   -0.0087987   -0.0121765    0.0070082
h     3.7476597    1.3069651   -1.3697925  0.00   -0.0004464    0.0000014    0.0006516
c     4.3909858   -0.5228355    1.4977049  0.00    0.0018330    0.0070322    0.0080800
n     5.9842394    0.6078310   -0.0663852  0.00    0.0002944    0.0086852    0.0001348
h     4.5663231   -0.9047874   -0.5888671  0.00   -0.0000073   -0.0009168   -0.0001298
h     6.4957508    0.6227006    0.8571224  0.00    0.0015248   -0.0021029    0.0103685
h     6.5739938    0.0221458   -0.7154161  0.00    0.0059026   -0.0064357   -0.0083402
h    -2.3138315    3.0826053    0.0513787  0.00   -0.0001498    0.0000056    0.0000017
h    -2.1451716    0.6234833   -0.0572241  0.00   -0.0004065    0.0001176   -0.0000208
h    -0.2790979    4.4505757    0.0562210  0.00    0.0000505    0.0001091    0.0000099
h     1.9264790    3.3840906   -0.0377372  0.00    0.0002922    0.0002020    0.0000307
h     2.3162069   -1.5697715   -0.3741240  0.00   -0.0012503   -0.0017286    0.0001270
o     5.1161031   -1.5975193    2.0090686  0.00    0.0036483   -0.0117405   -0.0022025
o     3.3429326    0.0342291    2.2186156  0.00   -0.0040168    0.0066253   -0.0179244
h     2.8297287    0.6337021    1.5635878  0.00   -0.3154972    0.0329156   -1.2903628
    27
 Energy =       0.3407302048
c    -1.3388554    2.5986882    0.0356780  0.00   -0.0019619    0.0014398    0.0001449
c    -1.2568327    1.2380770   -0.0214600  0.00   -0.0037935   -0.0015276    0.0002238
c    -0.0304200    0.6727250   -0.0783768  0.00   -0.0034184   -0.0081078    0.0004498
c    -0.2014307    3.3593010    0.0263957  0.00   -0.0011623    0.0029888    0.0000923
c     1.0263656    2.7644959   -0.0370159  0.00    0.0006096    0.0029218   -0.0000509
c     1.0874234    1.4058583   -0.0835465  0.00    0.0035756    0.0019038    0.0011274
n     0.2717845   -0.7070469   -0.1805373  0.00    0.0049454    0.0044224   -0.0003571
c     2.1623397    0.5865699   -0.1527844  0.00    0.3139247    0.0175837    0.7265256
c     1.7001395   -0.6826273   -0.2520801  0.00    0.0005353   -0.0000688    0.0059495
h    -0.3773836   -1.5247326   -0.2054346  0.00    0.0011944    0.0016084   -0.0002877
c     3.5858015    1.0271552   -0.3344304  0.00   -0.0828376   -0.0418209    0.1592175
c     4.6471480   -0.0162086    0.0622056  0.00   -0.0118082    0.0030480   -0.0024668
h     3.7800369    1.9617409    0.2358223  0.00   -0.0059505   -0.0081861    0.0048562
h     3.7369653    1.2867068   -1.4062170  0.00   -0.0002752    0.0000328    0.0002880
c     4.4146170   -0.5091271    1.4885734  0.00   -0.0003367    0.0055108    0.0038424
n     5.9761838    0.6078579   -0.1195985  0.00   -0.0177658    0.0171006   -0.0094157
h     4.5557249   -0.9107610   -0.5980163  0.00   -0.0002221   -0.0007214   -0.0001879
h     6.4423297    0.7814537    0.8236695  0.00    0.0094332    0.0020582    0.0264782
h     6.6075325   -0.0678309   -0.6454054  0.00    0.0137290   -0.0172875   -0.0162981
h    -2.3125773    3.0802078    0.0840808  0.00   -0.0001446    0.0000156    0.0000017
h    -2.1493333    0.6212451   -0.0253407  0.00   -0.0002996    0.0000567   -0.0000144
h    -0.2753530    4.4435078    0.0682683  0.00    0.0000303    0.0000734    0.0000065
h     1.9255127    3.3728712   -0.0489340  0.00    0.0002471    0.0001438    0.0000188
h     2.3075851   -1.5735830   -0.3952201  0.00   -0.0007142   -0.0010935    0.0000794
o     5.1884665   -1.5426378    2.0108853  0.00    0.0034076   -0.0092200   -0.0001611
o     3.3728512    0.0315788    2.2329226  0.00   -0.0023723    0.0039081   -0.0107707
h     2.8307120    0.6263092    1.6011981  0.00   -0.2185694    0.0232168   -0.8892916
    27
 Energy =       0.2517351409
c    -1.3507211    2.5710957    0.1231227  0.00   -0.0007674   -0.0000332   -0.0000201
c    -1.2660069    1.2121510    0.0599466  0.00   -0.0009993    0.0001034   -0.0000390
c    -0.0415721    0.6512574   -0.0392933  0.00   -0.0001943   -0.0007357   -0.0000672
c    -0.2166065    3.3342605    0.0783313  0.00   -0.0003010    0.0005698   -0.0000057
c     1.0091510    2.7433957   -0.0276357  0.00    0.0006952   -0.0000409   -0.0000404
c     1.0712584    1.3869550   -0.0801775  0.00    0.0010716   -0.0000455    0.0005965
n     0.2605361   -0.7300170   -0.1503022  0.00   -0.0009991    0.0005350    0.0003001
c     2.1426852    0.5759169   -0.1919903  0.00    0.1220053    0.0059010    0.2964646
c     1.6881733   -0.6940374   -0.2752064  0.00    0.0023010    0.0011032    0.0015522
h    -0.3859717   -1.5519376   -0.1517103  0.00   -0.0002508   -0.0002199    0.0000160
c     3.5726575    1.0275367   -0.4094654  0.00   -0.0276321   -0.0140356    0.0575216
c     4.6453050    0.0054737    0.0157111  0.00   -0.0035014   -0.0001359   -0.0005452
h     3.7660689    1.9768373    0.1380343  0.00   -0.0020498   -0.0026078    0.0022826
h     3.7102348    1.2561426   -1.4908637  0.00   -0.0000841    0.0001554   -0.0005457
c     4.4754698   -0.4623230    1.4657617  0.00   -0.0041975    0.0044682   -0.0046865
n     5.9610254    0.6307778   -0.2321175  0.00   -0.0062431    0.0078800   -0.0054632
h     4.5449077   -0.9090152   -0.6149630  0.00   -0.0002186   -0.0005915   -0.0003953
h     6.4181480    0.9161282    0.6772707  0.00    0.0051240    0.0007260    0.0116344
h     6.6032650   -0.0803776   -0.6688623  0.00    0.0036132   -0.0058227   -0.0064878
h    -2.3241793    3.0495628    0.2051446  0.00   -0.0005954    0.0001632    0.0000358
h    -2.1562232    0.5921089    0.0851360  0.00   -0.0004854   -0.0001214    0.0000101
h    -0.2921570    4.4181398    0.1250674  0.00   -0.0000403    0.0000293    0.0000043
h     1.9052626    3.3550574   -0.0698535  0.00    0.0005337    0.0001457   -0.0000237
h     2.3011994   -1.5771484   -0.4392452  0.00    0.0002818   -0.0001609   -0.0000219
o     5.3472196   -1.4151924    1.9901412  0.00    0.0054186   -0.0076327    0.0045903
o     3.4478117    0.0316389    2.2664483  0.00    0.0004645   -0.0008676    0.0021682
h     2.8403920    0.6174067    1.6968720  0.00   -0.0929492    0.0112709   -0.3588349
    27
 Energy =       0.2348381846
c    -1.3587624    2.5469912    0.1448620  0.00   -0.0006170   -0.0000133   -0.0000083
c    -1.2664071    1.1887732    0.0771115  0.00   -0.0007878    0.0000833   -0.0000213
c    -0.0399048    0.6357261   -0.0374272  0.00   -0.0001026   -0.0005330   -0.0000473
c    -0.2300382    3.3172331    0.0897236  0.00   -0.0002417    0.0004583    0.0000009
c     0.9979309    2.7342057   -0.0311871  0.00    0.0005688   -0.0000424   -0.0000327
c     1.0677237    1.3783250   -0.0883619  0.00    0.0008593   -0.0000682    0.0004484
n     0.2696010   -0.7435845   -0.1531422  0.00   -0.0007579    0.0003515    0.0002109
c     2.1421721    0.5742482   -0.2129755  0.00    0.0886301    0.0039457    0.2154452
c     1.6956362   -0.6984402   -0.2906934  0.00    0.0017447    0.0008115    0.0011674
h    -0.3716384   -1.5695826   -0.1494795  0.00   -0.0002108   -0.0001910    0.0000103
c     3.5704136    1.0351519   -0.4324356  0.00   -0.0194863   -0.0099414    0.0409930
c     4.6457375    0.0191720   -0.0011879  0.00   -0.0021092   -0.0005580    0.0002975
h     3.7584493    1.9874834    0.1112253  0.00   -0.0014019   -0.0018257    0.0016295
h     3.7075899    1.2586203   -1.5148763  0.00   -0.0000636    0.0001148   -0.0003883
c     4.4903674   -0.4506780    1.4506268  0.00   -0.0028865    0.0026037   -0.0033085
n     5.9590679    0.6418278   -0.2569488  0.00   -0.0248857    0.0151591   -0.0163547
h     4.5475547   -0.8953263   -0.6315781  0.00   -0.0004373   -0.0004294   -0.0004073
h     6.3431814    1.0748813    0.6395055  0.00    0.0101159    0.0092670    0.0265844
h     6.6487617   -0.1207818   -0.5361261  0.00    0.0164489   -0.0216546   -0.0111550
h    -2.3340789    3.0192385    0.2388996  0.00   -0.0004954    0.0001459    0.0000304
h    -2.1523340    0.5631446    0.1108517  0.00   -0.0003943   -0.0001021    0.0000088
h    -0.3117464    4.4005224    0.1401407  0.00   -0.0000386    0.0000483    0.0000047
h     1.8894936    3.3516237   -0.0816863  0.00    0.0004256    0.0001215   -0.0000191
h     2.3129917   -1.5779013   -0.4575562  0.00    0.0002030   -0.0001249   -0.0000178
o     5.3735342   -1.3981583    1.9606087  0.00    0.0037716   -0.0052600    0.0031783
o     3.4732640    0.0353788    2.2708691  0.00    0.0004052   -0.0007938    0.0019194
h     2.8487730    0.6237000    1.7265395  0.00   -0.0682565    0.0084270   -0.2601688
    27
 Energy =       0.2006703041
c    -1.3498812    2.5491981    0.2261075  0.00   -0.0006516   -0.0000592    0.0000777
c    -1.2631521    1.1914719    0.1443186  0.00   -0.0008231    0.0002969    0.0001162
c    -0.0436325    0.6371331   -0.0267581  0.00    0.0006830   -0.0001289   -0.0000519
c    -0.2226120    3.3175862    0.1304301  0.00   -0.0003677    0.0003632    0.0000693
c     0.9983491    2.7331550   -0.0451342  0.00    0.0007855   -0.0003645   -0.0000887
c     1.0626232    1.3778040   -0.1169509  0.00    0.0016907   -0.0004921    0.0006262
n     0.2590431   -0.7428905   -0.1541944  0.00   -0.0004513   -0.0001805   -0.0000048
c     2.1270234    0.5723354   -0.2863751  0.00    0.0176779   -0.0002234    0.0489580
c     1.6798333   -0.6994251   -0.3364869  0.00    0.0013228    0.0008295    0.0011835
h    -0.3828263   -1.5679940   -0.1296942  0.00   -0.0001600   -0.0001627   -0.0000077
c     3.5631055    1.0264024   -0.5015563  0.00    0.0010576   -0.0003115    0.0010848
c     4.6280601    0.0150626   -0.0327706  0.00   -0.0001853   -0.0009136    0.0004522
h     3.7497174    1.9883755    0.0244060  0.00    0.0000729    0.0000686    0.0000773
h     3.7125004    1.2243307   -1.5871429  0.00    0.0000554    0.0000518   -0.0001666
c     4.5137923   -0.4510748    1.4297832  0.00    0.0032946   -0.0019484   -0.0020193
n     5.9430458    0.6132471   -0.3192865  0.00   -0.0080104    0.0048200   -0.0045827
h     4.5239445   -0.9094033   -0.6461522  0.00    0.0001770    0.0000338   -0.0000526
h     6.2628261    1.1882571    0.5044613  0.00    0.0025457    0.0026131    0.0082609
h     6.6506454   -0.1603987   -0.4274284  0.00    0.0046588   -0.0072343   -0.0039111
h    -2.3196596    3.0225161    0.3646656  0.00   -0.0007726    0.0002583    0.0000896
h    -2.1480687    0.5670956    0.2124343  0.00   -0.0004835   -0.0000979    0.0000413
h    -0.3000553    4.4005952    0.1926486  0.00   -0.0001316    0.0000630    0.0000182
h     1.8880931    3.3494627   -0.1274461  0.00    0.0003823    0.0000399   -0.0000371
h     2.2931953   -1.5813354   -0.5029040  0.00   -0.0000985    0.0000500    0.0000253
o     5.4155436   -1.4020768    1.8849827  0.00   -0.0005118    0.0013133   -0.0007822
o     3.5522592    0.0273803    2.3260516  0.00    0.0010196   -0.0023740    0.0054431
h     2.8836205    0.6449838    1.8852926  0.00   -0.0227762    0.0036897   -0.0548191
    27
 Energy =       0.1979232143
c    -1.3528225    2.5398629    0.1876610  0.00   -0.0008183   -0.0001026    0.0000928
c    -1.2616864    1.1841114    0.0777113  0.00   -0.0007920   -0.0002271    0.0000733
c    -0.0380262    0.6362120   -0.0826122  0.00    0.0002661   -0.0003302   -0.0000284
c    -0.2256109    3.3128550    0.1301080  0.00    0.0001427    0.0006499    0.0000380
c     0.9996947    2.7349716   -0.0350021  0.00    0.0007646    0.0001687   -0.0000556
c     1.0681911    1.3813174   -0.1352919  0.00    0.0014839   -0.0002690    0.0004487
n     0.2702325   -0.7404132   -0.2335010  0.00   -0.0006256   -0.0002605    0.0000216
c     2.1374305    0.5818694   -0.3012040  0.00    0.0128061    0.0001003    0.0357101
c     1.6945046   -0.6898170   -0.3862927  0.00    0.0009982    0.0003316    0.0008841
h    -0.3700982   -1.5675528   -0.2397634  0.00   -0.0005873   -0.0007148   -0.0000063
c     3.5774037    1.0426191   -0.4723648  0.00    0.0011831   -0.0001767    0.0008834
c     4.6328448    0.0215006   -0.0014267  0.00   -0.0029805    0.0007707   -0.0000887
h     3.7496968    1.9936702    0.0783151  0.00    0.0002356    0.0004047    0.0003249
h     3.7523691    1.2647578   -1.5499447  0.00    0.0001305    0.0001638   -0.0007269
c     4.4708399   -0.5027777    1.4385952  0.00   -0.0001909    0.0010275   -0.0014970
n     5.9552599    0.6348516   -0.2187845  0.00   -0.0060057    0.0046844   -0.0062210
h     4.5555132   -0.8803551   -0.6537941  0.00   -0.0003871   -0.0010024   -0.0009713
h     6.2149703    1.2292651    0.6124592  0.00    0.0026417    0.0035745    0.0082475
h     6.6799945   -0.1290912   -0.2686753  0.00    0.0057291   -0.0067906   -0.0029073
h    -2.3260032    3.0079777    0.3184045  0.00   -0.0006090    0.0001511    0.0000700
h    -2.1463126    0.5562598    0.1157265  0.00   -0.0006930   -0.0003893    0.0000420
h    -0.3065473    4.3943190    0.2145302  0.00    0.0000084    0.0003226    0.0000224
h     1.8894830    3.3550541   -0.0870604  0.00    0.0006304    0.0003547   -0.0000442
h     2.3141049   -1.5668381   -0.5564941  0.00   -0.0000753   -0.0000228    0.0000104
o     5.3067631   -1.5318379    1.8616856  0.00    0.0037573   -0.0044313    0.0019666
o     3.5368333    0.0044953    2.3478758  0.00    0.0012348   -0.0020141    0.0044460
h     2.8983108    0.6645073    1.9244412  0.00   -0.0182476    0.0040269   -0.0407352
    27
 Energy =       0.1956621998
c    -1.3629887    2.5221914    0.1238621  0.00   -0.0011589   -0.0002818    0.0000970
c    -1.2623706    1.1694519   -0.0140211  0.00   -0.0009660   -0.0006225    0.0000431
c    -0.0320329    0.6309865   -0.1536145  0.00   -0.0001443   -0.0005767   -0.0000231
c    -0.2382104    3.3017383    0.1141907  0.00    0.0006193    0.0009754    0.0000336
c     0.9940915    2.7333744   -0.0302643  0.00    0.0009444    0.0005723   -0.0000330
c     1.0718015    1.3824091   -0.1590309  0.00    0.0014332   -0.0000172    0.0003184
n     0.2871450   -0.7407486   -0.3259877  0.00   -0.0011076   -0.0002121    0.0000764
c     2.1492743    0.5918273   -0.3127322  0.00    0.0084940    0.0004397    0.0239269
c     1.7153265   -0.6800696   -0.4373464  0.00    0.0008867   -0.0001047    0.0005225
h    -0.3488370   -1.5706961   -0.3686628  0.00   -0.0010549   -0.0012845   -0.0000313
c     3.5921335    1.0627181   -0.4252242  0.00    0.0015374   -0.0001733    0.0008461
c     4.6390829    0.0334395    0.0489852  0.00   -0.0034109    0.0011676   -0.0002891
h     3.7425290    2.0000994    0.1552420  0.00    0.0004347    0.0008330    0.0006317
h     3.7990405    1.3147131   -1.4912127  0.00    0.0002708    0.0003049   -0.0013951
c     4.4393411   -0.5357536    1.4676534  0.00   -0.0010783    0.0012623   -0.0004171
n     5.9650046    0.6568695   -0.1117013  0.00   -0.0041583    0.0038399   -0.0059306
h     4.5862890   -0.8493204   -0.6318793  0.00   -0.0005122   -0.0012597   -0.0012213
h     6.1750090    1.2681063    0.7202154  0.00    0.0021447    0.0034027    0.0068496
h     6.6989160   -0.0990058   -0.1099221  0.00    0.0053803   -0.0055343   -0.0018969
h    -2.3417142    2.9827179    0.2387731  0.00   -0.0006002    0.0000551    0.0000606
h    -2.1447424    0.5366062   -0.0137583  0.00   -0.0010317   -0.0007025    0.0000333
h    -0.3266386    4.3808266    0.2204632  0.00    0.0001437    0.0005030    0.0000285
h     1.8821196    3.3587234   -0.0443844  0.00    0.0009994    0.0006893   -0.0000433
h     2.3444966   -1.5507109   -0.6058069  0.00   -0.0000330   -0.0000910   -0.0000137
o     5.2378151   -1.6038202    1.8653752  0.00    0.0034858   -0.0043845    0.0022336
o     3.5152189   -0.0280547    2.3854614  0.00    0.0015863   -0.0020546    0.0033404
h     2.9002337    0.6631755    1.9806291  0.00   -0.0131043    0.0032545   -0.0277474
    27
 Energy =       0.1946222949
c    -1.3618580    2.5285148    0.0268568  0.00   -0.0015994   -0.0005703    0.0000752
c    -1.2575626    1.1775726   -0.1248156  0.00   -0.0013962   -0.0005748    0.0000558
c    -0.0232240    0.6399705   -0.2309841  0.00   -0.0003790   -0.0007773   -0.0000391
c    -0.2365058    3.3072107    0.0639249  0.00    0.0007454    0.0011821    0.0000552
c     0.9999698    2.7396780   -0.0467340  0.00    0.0013584    0.0005264   -0.0000499
c     1.0810181    1.3904455   -0.1899433  0.00    0.0015014    0.0001602    0.0002519
n     0.3009382   -0.7297829   -0.4091481  0.00   -0.0019020    0.0000767    0.0001481
c     2.1629971    0.6010723   -0.3165502  0.00    0.0063937    0.0003461    0.0180477
c     1.7327316   -0.6689345   -0.4711914  0.00    0.0012775   -0.0001522    0.0003098
h    -0.3339311   -1.5586102   -0.4836864  0.00   -0.0013341   -0.0015560   -0.0000596
c     3.6097684    1.0724254   -0.3663783  0.00    0.0019926   -0.0002070    0.0008888
c     4.6405786    0.0308866    0.1177038  0.00   -0.0038599    0.0011521   -0.0006355
h     3.7399684    1.9957097    0.2415086  0.00    0.0006472    0.0010894    0.0008755
h     3.8534050    1.3502457   -1.4187803  0.00    0.0003968    0.0004824   -0.0020410
c     4.3952327   -0.5748874    1.5146371  0.00   -0.0014238    0.0011831    0.0002497