    27
 Energy =       2.0501479862
c    -1.4235396    2.6054793   -0.0667700  0.00   -0.0463894    0.0383241    0.0025650
c    -1.3072796    1.2134697   -0.1072300  0.00   -0.0850719   -0.0326936    0.0018192
c    -0.0178900    0.6711998   -0.1697000  0.00   -0.0887044   -0.1876582   -0.0001742
c    -0.2940599    3.4190890   -0.0891300  0.00   -0.0230732    0.0690423    0.0027728
c     0.9872197    2.8590292   -0.1560400  0.00    0.0101303    0.0643650    0.0008965
c     1.1340797    1.4562096   -0.1970299  0.00    0.0551856    0.0496097    0.0017195
n     0.3879399   -0.6395298   -0.2140799  0.00    0.1442260    0.1080134   -0.0074588
c     2.2666594    0.5727398   -0.2659299  0.00    3.6608944   -4.2710894   -3.7077738
c     1.7555995   -0.7123598   -0.2706899  0.00    3.5018144    0.6082480   -2.4079715
h    -0.2400399   -1.4313496   -0.2047299  0.00    0.0360372    0.0478466    0.0009732
c     3.7030089    1.0223397   -0.3320099  0.00   -0.5436694   -1.2787087   -0.7763658
c     4.2197688    1.4064496   -1.7267995  0.00   -0.1027052   -0.0306340    0.1441266
h     4.3261788    0.2093419    0.0639454  0.00   -0.0739784   -0.0223020   -0.0745077
h     3.8370289    1.8640295    0.3610799  0.00   -0.0050685   -0.0140352   -0.0065998
c     3.7734089    0.3331939   -2.7369592  0.00    0.0794286   -0.0419193   -0.3541544
n     5.7205784    1.5052196   -1.8052095  0.00    0.0908060   -0.0297597   -0.0477924
h     3.7949889    2.3605393   -2.0604594  0.00    0.0164168   -0.0124465    0.0048282
h     6.0814483    1.3602996   -0.8566008  0.00   -0.0325980   -0.0058316   -0.0270010
h     6.0587583    0.6873448   -2.3244293  0.00   -0.0467406    0.0205442    0.0175835
h    -2.4108593    3.0588691   -0.0157800  0.00   -0.0006798    0.0001985    0.0001832
h    -2.1896094    0.5822398   -0.0890100  0.00   -0.0035993    0.0038271    0.0003030
h    -0.4052699    4.5000487   -0.0535400  0.00    0.0008793    0.0001248    0.0004433
h     1.8590495    3.5066790   -0.1715100  0.00   -0.0010309    0.0034099    0.0008103
h     2.2327294   -1.6813195   -0.3062999  0.00    0.0671676    0.1404595   -0.1084832
o     3.9573089    0.3724499   -3.9421789  0.00   -0.0429202   -0.0103889    0.2885067
o     3.1342991   -0.6931888   -2.1135494  0.00   -0.1160569    0.1300565    0.3195652
h     3.1158391   -0.4388009   -1.1546097  0.00   -6.4507000    4.6533973    6.7311866
    27
 Energy =       1.7043802472
c    -1.4588278    2.6095765   -0.0875542  0.00   -0.0338768    0.0282709    0.0019280
c    -1.3279712    1.2276446   -0.1366426  0.00   -0.0629441   -0.0243510    0.0012039
c    -0.0497899    0.6869146   -0.1941599  0.00   -0.0601544   -0.1365724    0.0014127
c    -0.3446405    3.4312312   -0.0997981  0.00   -0.0168826    0.0511040    0.0019817
c     0.9309635    2.8884069   -0.1624783  0.00    0.0087646    0.0471448    0.0004015
c     1.0779990    1.5046317   -0.2092329  0.00    0.0403982    0.0393660    0.0010818
n     0.2927389   -0.6776552   -0.2679046  0.00    0.1007740    0.0739213   -0.0072766
c     2.2041303    0.6897034   -0.2747105  0.00    2.7599587   -3.1467126   -2.8280937
c     1.6781623   -0.8231285   -0.2506131  0.00    2.5361284    0.3524778   -1.7468681
h    -0.3901139   -1.4379631   -0.3059580  0.00    0.0227783    0.0324440   -0.0000368
c     3.7706169    1.0414547   -0.3048622  0.00   -0.3685139   -0.9508345   -0.5705129
c     4.2992683    1.3835840   -1.7129920  0.00   -0.0767878   -0.0206324    0.1080259
h     4.3365726    0.1714142    0.0902568  0.00   -0.0540704   -0.0216954   -0.0562801
h     3.9498154    1.8869620    0.3794195  0.00   -0.0040435   -0.0093575   -0.0049193
c     3.9210097    0.2331915   -2.6641877  0.00    0.0574484   -0.0363779   -0.2616714
n     5.7838956    1.5878488   -1.7470764  0.00    0.0681164   -0.0153319   -0.0335458
h     3.8076355    2.2913467   -2.1074994  0.00    0.0091610   -0.0056978    0.0018698
h     6.1426897    1.5078472   -0.7814075  0.00   -0.0226698   -0.0045339   -0.0164160
h     6.2175114    0.8024812   -2.2635246  0.00   -0.0303114    0.0099110    0.0094597
h    -2.4513251    3.0520599   -0.0405370  0.00   -0.0005721    0.0001939    0.0001466
h    -2.2060339    0.5900621   -0.1325900  0.00   -0.0027220    0.0027124    0.0001436
h    -0.4676392    4.5109357   -0.0597074  0.00    0.0006748    0.0001765    0.0003270
h     1.8018089    3.5379610   -0.1707638  0.00   -0.0005434    0.0022082    0.0006083
h     2.1652898   -1.7955370   -0.4179150  0.00    0.0519655    0.0900144   -0.0837991
o     4.0561114    0.2527383   -3.9213836  0.00   -0.0334766   -0.0074562    0.2110667
o     3.2781117   -0.7873299   -2.0240840  0.00   -0.0834655    0.0809252    0.2014595
h     3.0393551   -0.3966698   -1.1373431  0.00   -4.8051338    3.5686832    5.0683034
    27
 Energy =       1.5872900493
c    -1.4012659    2.6025783   -0.0789711  0.00   -0.0334294    0.0277001    0.0018970
c    -1.2955691    1.2195842   -0.1267737  0.00   -0.0617093   -0.0241328    0.0011879
c    -0.0268566    0.6620469   -0.1799540  0.00   -0.0585925   -0.1339459    0.0012801
c    -0.2705472    3.4017795   -0.0896865  0.00   -0.0165719    0.0502338    0.0019486
c     0.9952271    2.8330474   -0.1486943  0.00    0.0091440    0.0461185    0.0002798
c     1.1159174    1.4454942   -0.1924178  0.00    0.0403747    0.0392642    0.0007365
n     0.3094084   -0.6913997   -0.2556355  0.00    0.0981306    0.0702708   -0.0067742
c     2.2303579    0.5983169   -0.2512909  0.00    2.6868878   -3.0728981   -2.7524834
c     1.6960483   -0.8005456   -0.2436643  0.00    2.4286745    0.3446078   -1.6747722
h    -0.3646612   -1.4605696   -0.2883170  0.00    0.0221788    0.0316350   -0.0000273
c     3.7375864    1.0138561   -0.3014880  0.00   -0.3583976   -0.9154392   -0.5489980
c     4.2029657    1.4111263   -1.7202877  0.00   -0.0759107   -0.0189327    0.1047997
h     4.3646825    0.1730762    0.0658525  0.00   -0.0514747   -0.0232086   -0.0537442
h     3.8895712    1.8584802    0.3917824  0.00   -0.0042079   -0.0085355   -0.0048646
c     3.8613073    0.2545240   -2.6862933  0.00    0.0566554   -0.0350647   -0.2560055
n     5.6744803    1.6981492   -1.7914521  0.00    0.0690878   -0.0123748   -0.0342831
h     3.6488824    2.2985106   -2.0837651  0.00    0.0076815   -0.0034081    0.0011665
h     6.0674421    1.6497187   -0.8359927  0.00   -0.0203888   -0.0045643   -0.0147598
h     6.1429015    0.9447724   -2.3269360  0.00   -0.0278974    0.0083221    0.0086032
h    -2.3854249    3.0640554   -0.0351960  0.00   -0.0007733    0.0002839    0.0001527
h    -2.1836162    0.5956897   -0.1257780  0.00   -0.0027854    0.0025530    0.0001430
h    -0.3721153    4.4839955   -0.0513574  0.00    0.0006388    0.0004203    0.0003274
h     1.8781352    3.4661256   -0.1551381  0.00   -0.0001871    0.0021283    0.0005704
h     2.1806930   -1.7839498   -0.3397465  0.00    0.0511460    0.0835800   -0.0811453
o     4.0260885    0.2972332   -3.9425860  0.00   -0.0326471   -0.0074009    0.2056116
o     3.2537099   -0.8050791   -2.0669515  0.00   -0.0814752    0.0744875    0.1917670
h     3.0819962   -0.4609042   -1.1445112  0.00   -4.6441517    3.4783003    4.9073861
    27
 Energy =       1.4535259642
c    -1.3250906    2.5828991   -0.0411209  0.00   -0.0314447    0.0257811    0.0017743
c    -1.2454015    1.2007524   -0.0876844  0.00   -0.0575617   -0.0227841    0.0010897
c     0.0109689    0.6252564   -0.1440248  0.00   -0.0543752   -0.1249272    0.0009003
c    -0.1786631    3.3574952   -0.0566022  0.00   -0.0155197    0.0469718    0.0018303
c     1.0743648    2.7621275   -0.1200213  0.00    0.0094502    0.0427614    0.0000626
c     1.1669464    1.3723254   -0.1629421  0.00    0.0386479    0.0371085    0.0002184
n     0.3328192   -0.7206490   -0.2204329  0.00    0.0905735    0.0639799   -0.0058581
c     2.2690574    0.4978876   -0.2329846  0.00    2.4972941   -2.8705467   -2.5599137
c     1.7224637   -0.8046235   -0.2458888  0.00    2.2256514    0.3308595   -1.5340148
h    -0.3388934   -1.4948435   -0.2326431  0.00    0.0204052    0.0291618    0.0000204
c     3.7145773    0.9790669   -0.3143074  0.00   -0.3358965   -0.8362342   -0.4997074
c     4.0911402    1.4625205   -1.7296663  0.00   -0.0695890   -0.0144870    0.0959521
h     4.4198538    0.1758934    0.0036744  0.00   -0.0446666   -0.0248568   -0.0480002
h     3.8467504    1.8074504    0.4048316  0.00   -0.0046984   -0.0070132   -0.0044567
c     3.7350893    0.3545572   -2.7434645  0.00    0.0518927   -0.0316406   -0.2353594
n     5.5516042    1.7916351   -1.8496819  0.00    0.0646057   -0.0106066   -0.0340583
h     3.4966414    2.3555555   -2.0181799  0.00    0.0048880   -0.0002220    0.0005121
h     5.9921067    1.7529991   -0.9127473  0.00   -0.0173562   -0.0043164   -0.0120468
h     6.0255067    1.0680458   -2.4241289  0.00   -0.0247824    0.0064645    0.0070003
h    -2.2999602    3.0638205    0.0050751  0.00   -0.0009477    0.0003622    0.0001527
h    -2.1435106    0.5911963   -0.0837164  0.00   -0.0027210    0.0022634    0.0001325
h    -0.2575359    4.4418856   -0.0197376  0.00    0.0005722    0.0006663    0.0003140
h     1.9686047    3.3787626   -0.1320721  0.00    0.0004243    0.0017333    0.0003415
h     2.1898737   -1.7998162   -0.3090476  0.00    0.0484448    0.0759147   -0.0751990
o     3.9738389    0.4559863   -3.9968382  0.00   -0.0279072   -0.0058637    0.1863879
o     3.1282142   -0.7448213   -2.1853572  0.00   -0.0802511    0.0570821    0.1247102
h     3.1359779   -0.5436527   -1.1555401  0.00   -4.2851328    3.2323879    4.5872151
    27
 Energy =       1.2827994820
c    -1.2769161    2.5815437   -0.0307885  0.00   -0.0273143    0.0221566    0.0015226
c    -1.2181627    1.2029440   -0.0891066  0.00   -0.0496182   -0.0199425    0.0010200
c     0.0254023    0.6127538   -0.1397479  0.00   -0.0464810   -0.1069365    0.0010444
c    -0.1190298    3.3344251   -0.0323300  0.00   -0.0133965    0.0405764    0.0015413
c     1.1213038    2.7181786   -0.0908646  0.00    0.0088689    0.0366928   -0.0001965
c     1.1898718    1.3294413   -0.1427385  0.00    0.0338209    0.0321333   -0.0004480
n     0.3287378   -0.7302654   -0.2483828  0.00    0.0776029    0.0536010   -0.0054465
c     2.2819225    0.4394856   -0.2112332  0.00    2.1708341   -2.5091610   -2.2211424
c     1.7238039   -0.7966432   -0.2462044  0.00    1.9188978    0.3039537   -1.3225834
h    -0.3436196   -1.5075079   -0.2855700  0.00    0.0171938    0.0246988   -0.0001325
c     3.6876570    0.9693859   -0.3166191  0.00   -0.2957697   -0.7197758   -0.4299554
c     4.0159599    1.4683742   -1.7448414  0.00   -0.0630701   -0.0124044    0.0828517
h     4.4319339    0.1990147   -0.0086590  0.00   -0.0378055   -0.0220315   -0.0407929
h     3.8087276    1.8028208    0.4007115  0.00   -0.0045992   -0.0055576   -0.0040268
c     3.7247842    0.3270348   -2.7445595  0.00    0.0439327   -0.0262549   -0.2031895
n     5.4480019    1.9024416   -1.8726150  0.00    0.0578895   -0.0042282   -0.0287048
h     3.3555867    2.3162620   -2.0373417  0.00    0.0023271    0.0022017   -0.0001438
h     5.9042876    1.9117522   -0.9396517  0.00   -0.0128362   -0.0035739   -0.0090529
h     5.9792522    1.2240398   -2.4584263  0.00   -0.0178452    0.0032223    0.0041086
h    -2.2441972    3.0780909    0.0108144  0.00   -0.0009842    0.0003595    0.0001379
h    -2.1245232    0.6054897   -0.1025597  0.00   -0.0025514    0.0017616    0.0001214
h    -0.1792717    4.4199151    0.0117806  0.00    0.0004838    0.0007872    0.0002747
h     2.0239233    3.3222454   -0.0912998  0.00    0.0008789    0.0012414    0.0002899
h     2.1963140   -1.7887743   -0.2309014  0.00    0.0414999    0.0620030   -0.0630523
o     3.9658832    0.4304793   -4.0128534  0.00   -0.0240444   -0.0052644    0.1601808
o     3.1865398   -0.8110744   -2.1837391  0.00   -0.0711455    0.0442289    0.1084970
h     3.1631713   -0.5921411   -1.1675223  0.00   -3.7067690    2.8055124    3.9672775
    27
 Energy =       1.0298364683
c    -1.2216695    2.5875685    0.0305957  0.00   -0.0198066    0.0156569    0.0010114
c    -1.1877705    1.2152854   -0.0320082  0.00   -0.0354884   -0.0144397    0.0006263
c     0.0359288    0.6048945   -0.0940280  0.00   -0.0329508   -0.0756616    0.0004545
c    -0.0528662    3.3135711    0.0218970  0.00   -0.0098041    0.0290577    0.0010457
c     1.1682688    2.6737230   -0.0494147  0.00    0.0070319    0.0260703   -0.0002769
c     1.2067657    1.2893978   -0.1068277  0.00    0.0240630    0.0229751   -0.0006409
n     0.2989439   -0.7473377   -0.2135510  0.00    0.0538368    0.0379215   -0.0032716
c     2.2842687    0.3946114   -0.2036139  0.00    1.6321374   -1.8979205   -1.6646958
c     1.7022433   -0.8156137   -0.2696535  0.00    1.4375145    0.2390831   -0.9916405
h    -0.3878924   -1.5199849   -0.2289760  0.00    0.0117271    0.0172353    0.0000648
c     3.6744232    0.9743247   -0.3532215  0.00   -0.2236208   -0.5320060   -0.3195892
c     3.9532902    1.4692449   -1.7990764  0.00   -0.0486371   -0.0097860    0.0591287
h     4.4527138    0.2364462   -0.0509584  0.00   -0.0272150   -0.0162522   -0.0294570
h     3.7994615    1.8166036    0.3558441  0.00   -0.0039404   -0.0032870   -0.0030211
c     3.7266250    0.2945718   -2.7714193  0.00    0.0299033   -0.0178262   -0.1448603
n     5.3457289    2.0088081   -1.9333724  0.00    0.0429825    0.0019383   -0.0194797
h     3.2288534    2.2635287   -2.1005927  0.00   -0.0003736    0.0039836   -0.0010838
h     5.8180305    2.0688880   -1.0062040  0.00   -0.0069625   -0.0021704   -0.0049660
h     5.9330801    1.3827929   -2.5322698  0.00   -0.0087615    0.0001080    0.0006907
h    -2.1789701    3.1023987    0.0810019  0.00   -0.0009562    0.0003499    0.0001024
h    -2.1039347    0.6328709   -0.0406790  0.00   -0.0019554    0.0011118    0.0000764
h    -0.0906697    4.4001323    0.0683188  0.00    0.0002939    0.0008315    0.0002085
h     2.0790720    3.2643715   -0.0609596  0.00    0.0014405    0.0004105    0.0002977
h     2.1620397   -1.8120656   -0.2396271  0.00    0.0294138    0.0453081   -0.0452486
o     3.9708971    0.3911511   -4.0671853  0.00   -0.0170250   -0.0042582    0.1137253
o     3.2569783   -0.8760727   -2.2059474  0.00   -0.0539891    0.0272948    0.0804699
h     3.1835048   -0.6443981   -1.2033210  0.00   -2.7788581    2.1042714    2.9703291
    27
 Energy =       0.8402870875
c    -1.1711355    2.5867124    0.1574318  0.00   -0.0142667    0.0110189    0.0005538
c    -1.1557126    1.2202135    0.0795794  0.00   -0.0251506   -0.0100257    0.0002575
c     0.0519263    0.5942749   -0.0120621  0.00   -0.0237176   -0.0514175    0.0005547
c     0.0040710    3.2931950    0.1314029  0.00   -0.0073055    0.0206058    0.0006206
c     1.2093212    2.6380110    0.0264324  0.00    0.0052588    0.0181644   -0.0002659
c     1.2274779    1.2571063   -0.0451171  0.00    0.0156521    0.0166365   -0.0004389
n     0.2760004   -0.7644096   -0.1739209  0.00    0.0353203    0.0268158   -0.0018689
c     2.2941998    0.3644184   -0.2007883  0.00    1.2117465   -1.4111323   -1.2301303
c     1.6811763   -0.8465702   -0.3057800  0.00    1.0636083    0.1760953   -0.7360032
h    -0.4264870   -1.5285519   -0.1736308  0.00    0.0077081    0.0117859    0.0001073
c     3.6785739    0.9940838   -0.4208990  0.00   -0.1622528   -0.3846440   -0.2344117
c     3.8909016    1.4710756   -1.8869934  0.00   -0.0375611   -0.0085650    0.0407974
h     4.4934915    0.2890460   -0.1335955  0.00   -0.0184197   -0.0117095   -0.0205142
h     3.8218057    1.8458483    0.2746141  0.00   -0.0030506   -0.0016082   -0.0018974
c     3.7242110    0.2606563   -2.8222596  0.00    0.0188783   -0.0113768   -0.1008599
n     5.2358935    2.1107194   -2.0515155  0.00    0.0326058    0.0057423   -0.0142253
h     3.1026836    2.2051201   -2.1900281  0.00   -0.0025810    0.0052402   -0.0021677
h     5.7283731    2.2276411   -1.1368313  0.00   -0.0022699   -0.0009048   -0.0013926
h     5.8631268    1.5288137   -2.6588286  0.00   -0.0032185   -0.0008992   -0.0007212
h    -2.1202477    3.1140493    0.2312275  0.00   -0.0010333    0.0004204    0.0000828
h    -2.0793644    0.6497599    0.0787893  0.00   -0.0014960    0.0007020    0.0000353
h    -0.0172528    4.3798482    0.1866146  0.00    0.0001321    0.0007700    0.0001618
h     2.1220507    3.2235144   -0.0097330  0.00    0.0019845   -0.0000714    0.0001733
h     2.1134912   -1.8596309   -0.3281968  0.00    0.0207736    0.0296978   -0.0317251
o     3.9825836    0.3310389   -4.1378576  0.00   -0.0114875   -0.0041376    0.0786873
o     3.3189853   -0.9280883   -2.2384302  0.00   -0.0399168    0.0158213    0.0581981
h     3.2072004   -0.6881833   -1.2448738  0.00   -2.0599407    1.5569755    2.1963925
    27
 Energy =       0.7655247556
c    -1.1381432    2.5755286    0.2871498  0.00   -0.0123880    0.0094758    0.0004203
c    -1.1295537    1.2124517    0.1901254  0.00   -0.0215965   -0.0082119    0.0001820
c     0.0707607    0.5824168    0.0618716  0.00   -0.0207598   -0.0422315    0.0007559
c     0.0376731    3.2758875    0.2409036  0.00   -0.0066244    0.0176699    0.0005117
c     1.2353055    2.6176240    0.0960028  0.00    0.0046186    0.0151956   -0.0002552
c     1.2476607    1.2377962    0.0067323  0.00    0.0121433    0.0145130   -0.0002005
n     0.2747946   -0.7744604   -0.1445283  0.00    0.0281862    0.0227415   -0.0013641
c     2.3084855    0.3491887   -0.2079255  0.00    1.0357080   -1.2070323   -1.0489684
c     1.6748319   -0.8606344   -0.3424331  0.00    0.9087492    0.1496349   -0.6291041
h    -0.4335943   -1.5350512   -0.1339169  0.00    0.0063305    0.0098545    0.0000996
c     3.6808633    1.0145785   -0.4896067  0.00   -0.1364167   -0.3246224   -0.1989303
c     3.8388829    1.4731553   -1.9687988  0.00   -0.0334407   -0.0082504    0.0342225
h     4.5232760    0.3346758   -0.2182421  0.00   -0.0147270   -0.0099704   -0.0168417
h     3.8409394    1.8731255    0.1933611  0.00   -0.0024614   -0.0010980   -0.0012999
c     3.7215638    0.2350037   -2.8741115  0.00    0.0142387   -0.0091153   -0.0832576
n     5.1441681    2.1827783   -2.1655987  0.00    0.0291198    0.0073274   -0.0129328
h     3.0052676    2.1583225   -2.2689740  0.00   -0.0036583    0.0057644   -0.0026436
h     5.6474596    2.3476873   -1.2626832  0.00   -0.0002585   -0.0002745    0.0002668
h     5.7952405    1.6267434   -2.7732400  0.00   -0.0015550   -0.0010425   -0.0009850
h    -2.0832282    3.1057984    0.3899806  0.00   -0.0012675    0.0005725    0.0001046
h    -2.0556161    0.6460185    0.1998806  0.00   -0.0013588    0.0006016    0.0000310
h     0.0222564    4.3619819    0.3086466  0.00    0.0000244    0.0007561    0.0001559
h     2.1439452    3.2064578    0.0360678  0.00    0.0021858   -0.0000872   -0.0000044
h     2.0820945   -1.8848035   -0.4243382  0.00    0.0179903    0.0224362   -0.0264187
o     4.0241023    0.2720936   -4.1904834  0.00   -0.0090084   -0.0045197    0.0643368
o     3.3516522   -0.9561584   -2.2701568  0.00   -0.0340594    0.0119592    0.0490309
h     3.2262565   -0.7084939   -1.2809346  0.00   -1.7597143    1.3279536    1.8730883
    27
 Energy =       0.7208628842
c    -1.1113896    2.5584785    0.4148030  0.00   -0.0113756    0.0086050    0.0003688
c    -1.1054956    1.1984536    0.2979740  0.00   -0.0196232   -0.0070093    0.0001855
c     0.0895795    0.5692352    0.1304822  0.00   -0.0190926   -0.0366523    0.0009592
c     0.0623181    3.2578055    0.3470908  0.00   -0.0063654    0.0160113    0.0004889
c     1.2542793    2.6014684    0.1602655  0.00    0.0043154    0.0133578   -0.0002752
c     1.2654165    1.2225521    0.0518963  0.00    0.0098791    0.0132862    0.0000302
n     0.2791413   -0.7832136   -0.1175284  0.00    0.0235154    0.0204010   -0.0009297
c     2.3203636    0.3405160   -0.2208339  0.00    0.9251990   -1.0790040   -0.9353618
c     1.6707013   -0.8671571   -0.3794987  0.00    0.8123884    0.1332919   -0.5621761
h    -0.4313326   -1.5428706   -0.0962104  0.00    0.0054813    0.0086860    0.0001003
c     3.6769903    1.0366602   -0.5592869  0.00   -0.1199855   -0.2874446   -0.1768348
c     3.7911357    1.4738809   -2.0488949  0.00   -0.0312897   -0.0083131    0.0308733
h     4.5419619    0.3795877   -0.3004938  0.00   -0.0124530   -0.0089114   -0.0145874
h     3.8512550    1.9024469    0.1099171  0.00   -0.0019208   -0.0008389   -0.0008731
c     3.7318096    0.2094452   -2.9245567  0.00    0.0100309   -0.0080287   -0.0691907
n     5.0549696    2.2495510   -2.2721129  0.00    0.0270890    0.0090005   -0.0121731
h     2.9171674    2.1082888   -2.3499706  0.00   -0.0047508    0.0063027   -0.0030488
h     5.5598781    2.4625543   -1.3789873  0.00    0.0012993    0.0003167    0.0015711
h     5.7316965    1.7182051   -2.8748431  0.00   -0.0002984   -0.0012866   -0.0013340
h    -2.0535103    3.0877624    0.5487337  0.00   -0.0015695    0.0007525    0.0001496
h    -2.0317606    0.6326555    0.3203360  0.00   -0.0013277    0.0005569    0.0000384
h     0.0491114    4.3430511    0.4286494  0.00   -0.0000764    0.0007809    0.0001638
h     2.1561823    3.1968527    0.0780566  0.00    0.0022914    0.0000076   -0.0001851
h     2.0530795   -1.8975955   -0.5219858  0.00    0.0166046    0.0174061   -0.0232811
o     4.1165084    0.2075956   -4.2280230  0.00   -0.0063174   -0.0053186    0.0519359
o     3.3772079   -0.9772109   -2.3023632  0.00   -0.0302656    0.0098100    0.0430565
h     3.2400802   -0.7192866   -1.3178646  0.00   -1.5713822    1.1842342    1.6703295
    27
 Energy =       0.7014354895
c    -1.0989448    2.5421524    0.5049669  0.00   -0.0109229    0.0081772    0.0003591
c    -1.0922086    1.1841930    0.3746475  0.00   -0.0187333   -0.0064367    0.0002085
c     0.1000833    0.5588070    0.1778082  0.00   -0.0182867   -0.0341740    0.0010478
c     0.0712134    3.2440103    0.4204156  0.00   -0.0062392    0.0152465    0.0004939
c     1.2600113    2.5923510    0.2025545  0.00    0.0042006    0.0124888   -0.0003070
c     1.2732141    1.2140996    0.0806231  0.00    0.0088779    0.0126855    0.0001354
n     0.2822421   -0.7893485   -0.0974934  0.00    0.0212605    0.0194096   -0.0006714
c     2.3238329    0.3390305   -0.2337226  0.00    0.8716901   -1.0170054   -0.8805643
c     1.6653471   -0.8675018   -0.4063551  0.00    0.7660606    0.1256236   -0.5298708
h    -0.4273049   -1.5501692   -0.0669124  0.00    0.0050686    0.0081298    0.0001057
c     3.6665032    1.0563705   -0.6129615  0.00   -0.1119652   -0.2698195   -0.1663023
c     3.7604845    1.4706836   -2.1105227  0.00   -0.0307940   -0.0084895    0.0302828
h     4.5448195    0.4160778   -0.3565291  0.00   -0.0114851   -0.0084271   -0.0135867
h     3.8476292    1.9300861    0.0427896  0.00   -0.0015764   -0.0007103   -0.0006832
c     3.7651760    0.1832824   -2.9579452  0.00    0.0048235   -0.0075733   -0.0557303
n     4.9873142    2.3024994   -2.3452565  0.00    0.0259888    0.0105373   -0.0114731
h     2.8565601    2.0576670   -2.4225075  0.00   -0.0057002    0.0067612   -0.0033673
h     5.4820340    2.5564387   -1.4563529  0.00    0.0022896    0.0007685    0.0024803
h     5.6920538    1.7942568   -2.9367372  0.00    0.0007395   -0.0017306   -0.0018571
h    -2.0395155    3.0681499    0.6621436  0.00   -0.0017309    0.0008399    0.0001802
h    -2.0170190    0.6164885    0.4078514  0.00   -0.0013360    0.0005343    0.0000469
h     0.0572142    4.3285040    0.5118015  0.00   -0.0001228    0.0007900    0.0001692
h     2.1550695    3.1947489    0.1045576  0.00    0.0023055    0.0000987   -0.0002876
h     2.0288782   -1.8992566   -0.5949169  0.00    0.0160658    0.0150080   -0.0218999
o     4.2752615    0.1384001   -4.2271669  0.00   -0.0016320   -0.0064163    0.0379074
o     3.3942464   -0.9919183   -2.3240636  0.00   -0.0284169    0.0088199    0.0404057
h     3.2431489   -0.7203904   -1.3459657  0.00   -1.4804292    1.1148640    1.5727782
    27
 Energy =       0.6934366691
c    -1.0880543    2.5438913    0.5046679  0.00   -0.0107671    0.0080577    0.0003544
c    -1.0839438    1.1862428    0.3717129  0.00   -0.0184606   -0.0063474    0.0002056
c     0.1071527    0.5589454    0.1750223  0.00   -0.0180180   -0.0336777    0.0010343
c     0.0836335    3.2434956    0.4231037  0.00   -0.0061453    0.0150270    0.0004864
c     1.2712610    2.5898086    0.2057278  0.00    0.0041451    0.0123095   -0.0003109
c     1.2814557    1.2120264    0.0808542  0.00    0.0087525    0.0124968    0.0001261
n     0.2872266   -0.7893529   -0.1015645  0.00    0.0209309    0.0191278   -0.0006598
c     2.3307964    0.3356263   -0.2323311  0.00    0.8589444   -1.0021482   -0.8677786
c     1.6714775   -0.8694609   -0.4054614  0.00    0.7548461    0.1238207   -0.5221203
h    -0.4237879   -1.5490308   -0.0739901  0.00    0.0049874    0.0080031    0.0001042
c     3.6754379    1.0496785   -0.6044650  0.00   -0.1102257   -0.2657986   -0.1636906
c     3.7573062    1.4781933   -2.0983684  0.00   -0.0307810   -0.0084646    0.0304828
h     4.5544851    0.4060527   -0.3579116  0.00   -0.0112802   -0.0083497   -0.0133806
h     3.8598727    1.9182264    0.0576894  0.00   -0.0015398   -0.0006600   -0.0006556
c     3.7207783    0.2037651   -2.9634540  0.00    0.0023839   -0.0073041   -0.0471467
n     4.9986323    2.2852431   -2.3412052  0.00    0.0255105    0.0109064   -0.0111016
h     2.8621331    2.0883370   -2.3919802  0.00   -0.0059924    0.0068725   -0.0034407
h     5.5090432    2.5217907   -1.4559985  0.00    0.0025282    0.0008822    0.0027869
h     5.6837384    1.7656387   -2.9465135  0.00    0.0010970   -0.0020602   -0.0022000
h    -2.0277295    3.0714850    0.6616887  0.00   -0.0017070    0.0008282    0.0001780
h    -2.0098927    0.6202858    0.4027960  0.00   -0.0013198    0.0005233    0.0000465
h     0.0717913    4.3278137    0.5167615  0.00   -0.0001195    0.0007835    0.0001669
h     2.1682238    3.1899937    0.1107530  0.00    0.0022819    0.0001007   -0.0002911
h     2.0359066   -1.9014018   -0.5897065  0.00    0.0158380    0.0147789   -0.0215807
o     4.1165084    0.1934228   -4.2790474  0.00    0.0012233   -0.0062215    0.0275422
o     3.3917200   -0.9851114   -2.3291055  0.00   -0.0282560    0.0080381    0.0407555
h     3.2521721   -0.7258926   -1.3449242  0.00   -1.4588570    1.0984758    1.5500873
    27
 Energy =       0.6684360341
c    -1.0599822    2.5332379    0.5722128  0.00   -0.0101335    0.0076444    0.0003392
c    -1.0591361    1.1778294    0.4237005  0.00   -0.0173651   -0.0058667    0.0002093
c     0.1277642    0.5513437    0.2039958  0.00   -0.0168815   -0.0312786    0.0010379
c     0.1109747    3.2318682    0.4832036  0.00   -0.0059079    0.0141534    0.0004770
c     1.2941375    2.5794192    0.2423357  0.00    0.0039318    0.0114982   -0.0002904
c     1.3012399    1.2032348    0.1007131  0.00    0.0080060    0.0117072    0.0001737
n     0.2993919   -0.7935321   -0.0947214  0.00    0.0193216    0.0177773   -0.0005776
c     2.3445026    0.3308077   -0.2423480  0.00    0.8037660   -0.9378080   -0.8118643
c     1.6781864   -0.8710215   -0.4252472  0.00    0.7060795    0.1159209   -0.4883341
h    -0.4125951   -1.5527621   -0.0651169  0.00    0.0046421    0.0074625    0.0000962
c     3.6814679    1.0541785   -0.6312834  0.00   -0.1029136   -0.2481515   -0.1526788
c     3.7318020    1.4879665   -2.1245103  0.00   -0.0290291   -0.0079333    0.0285140
h     4.5702768    0.4172442   -0.4008839  0.00   -0.0103248   -0.0078504   -0.0124035
h     3.8754742    1.9205669    0.0305216  0.00   -0.0013636   -0.0006391   -0.0005408
c     3.6708303    0.2204656   -2.9956424  0.00    0.0011849   -0.0063805   -0.0379362
n     4.9693648    2.2915555   -2.3903187  0.00    0.0236288    0.0103965   -0.0104652
h     2.8326043    2.1020966   -2.3955169  0.00   -0.0058218    0.0064962   -0.0032944
h     5.5001564    2.5226005   -1.5155022  0.00    0.0025945    0.0009276    0.0029657
h     5.6384837    1.7729237   -3.0144403  0.00    0.0013349   -0.0021781   -0.0023754
h    -1.9968754    3.0601674    0.7473787  0.00   -0.0017359    0.0008738    0.0001923
h    -1.9853839    0.6127012    0.4597293  0.00   -0.0012564    0.0004981    0.0000469
h     0.1017294    4.3151200    0.5892541  0.00   -0.0001568    0.0008162    0.0001710
h     2.1886569    3.1816824    0.1417608  0.00    0.0021126    0.0001318   -0.0002855
h     2.0290970   -1.9025733   -0.6377342  0.00    0.0148830    0.0132181   -0.0201290
o     3.9577553    0.2384500   -4.3444886  0.00    0.0028414   -0.0049291    0.0174044
o     3.3981801   -0.9818851   -2.3560575  0.00   -0.0268478    0.0062444    0.0396607
h     3.2692410   -0.7339734   -1.3662438  0.00   -1.3645892    1.0272486    1.4498871
    27
 Energy =       0.6324826981
c    -1.0180264    2.5104012    0.6964469  0.00   -0.0093843    0.0071765    0.0003562
c    -1.0207188    1.1590575    0.5214697  0.00   -0.0160157   -0.0049794    0.0002847
c     0.1591532    0.5369384    0.2580919  0.00   -0.0153275   -0.0274739    0.0011845
c     0.1496680    3.2101211    0.5901753  0.00   -0.0058628    0.0130618    0.0005410
c     1.3252580    2.5628928    0.3045900  0.00    0.0037751    0.0102132   -0.0002847
c     1.3293137    1.1896536    0.1345757  0.00    0.0065932    0.0106210    0.0003822
n     0.3175298   -0.8010164   -0.0791236  0.00    0.0162560    0.0158415   -0.0002435
c     2.3615845    0.3267979   -0.2642896  0.00    0.7222352   -0.8428653   -0.7286958
c     1.6842563   -0.8704192   -0.4632137  0.00    0.6341981    0.1044651   -0.4382426
h    -0.3942826   -1.5609688   -0.0426161  0.00    0.0040655    0.0066288    0.0000938
c     3.6827128    1.0688187   -0.6879551  0.00   -0.0916076   -0.2214851   -0.1363249
c     3.6883774    1.4998832   -2.1821856  0.00   -0.0264135   -0.0072672    0.0250257
h     4.5872739    0.4461853   -0.4776191  0.00   -0.0087489   -0.0070658   -0.0108515
h     3.8905810    1.9360180   -0.0325918  0.00   -0.0008675   -0.0007026   -0.0003065
c     3.6200851    0.2328370   -3.0499028  0.00    0.0007981   -0.0049374   -0.0305149