    13
 Energy =       0.1164428389
c    -3.7133889    1.6950595    0.3173519  0.00   -0.1072511    0.0600989    0.0016326
c    -2.4962693    2.6345192    0.2419999  0.00    0.3736441   -0.0206042    0.1101032
c    -4.9565486    2.3924193   -0.2155699  0.00    0.0513331    0.0327195    0.0017773
h    -5.8072983    1.7014095   -0.2223689  0.00    0.0124485    0.0082589   -0.0028455
h    -4.8071186    2.7393792   -1.2437896  0.00   -0.0005477   -0.0028551    0.0185147
h    -5.2375685    3.2516891    0.4029209  0.00   -0.0016442   -0.0152745   -0.0110745
n    -3.4097890    0.4519539   -0.4549189  0.00    0.0245771   -0.0707823   -0.0071983
h    -3.8575589    1.4177196    1.3669296  0.00    0.0049336   -0.0130327   -0.0266467
h    -3.2072391   -0.2948399    0.2179739  0.00   -0.0177687    0.0298918   -0.0197925
h    -4.2689788    0.1396900   -0.9176007  0.00    0.0233872    0.0225488    0.0245652
o    -1.4040496    2.4172293    0.7380088  0.00   -0.2661609    0.0522085   -0.1151936
o    -2.7835192    3.7545589   -0.4737969  0.00   -0.0693668   -0.0671573    0.0018866
h    -2.2118794    3.7013989   -1.2803496  0.00   -0.0275842   -0.0160201    0.0242716
    13
 Energy =       0.0842300822
c    -3.6945760    1.6961103    0.3216865  0.00   -0.0380181    0.0209237    0.0023603
c    -2.5366614    2.6835718    0.2430924  0.00    0.1374907   -0.0099442    0.0343274
c    -4.9790537    2.3383230   -0.2042323  0.00    0.0282680    0.0132826    0.0002135
h    -5.8382394    1.6419549   -0.0733909  0.00   -0.0015694   -0.0033084    0.0012240
h    -4.8607869    2.5859346   -1.2815438  0.00    0.0043503    0.0006479    0.0013065
h    -5.2011097    3.2840748    0.3411001  0.00    0.0004058    0.0015132   -0.0007545
n    -3.3725866    0.4722600   -0.4513314  0.00    0.0171544   -0.0222863    0.0034495
h    -3.8192429    1.4410584    1.3931781  0.00    0.0020201   -0.0051141   -0.0095704
h    -3.1742898   -0.3026349    0.2133433  0.00   -0.0074288    0.0104030   -0.0067804
h    -4.1880018    0.1529914   -1.0222425  0.00    0.0012169    0.0054482    0.0020032
o    -1.3570342    2.4305031    0.7925733  0.00   -0.0984409    0.0179139   -0.0420972
o    -2.7689914    3.8652468   -0.4275973  0.00   -0.0542400   -0.0081581    0.0484868
h    -2.3706325    3.7127925   -1.3678452  0.00    0.0087909   -0.0213214   -0.0341688
    13
 Energy =       0.0791750161
c    -3.6910238    1.6713398    0.3004154  0.00   -0.0251626    0.0143216    0.0029458
c    -2.5716297    2.7063525    0.2759741  0.00    0.0879262   -0.0079395    0.0205303
c    -5.0105043    2.2837342   -0.1858566  0.00    0.0186640    0.0093043    0.0009635
h    -5.8384988    1.5443467   -0.0886455  0.00   -0.0023801   -0.0034196    0.0014103
h    -4.9096677    2.5982259   -1.2500631  0.00    0.0035616    0.0013508   -0.0013674
h    -5.2690426    3.1894770    0.4126956  0.00   -0.0006036    0.0032449    0.0007464
n    -3.3262115    0.4991206   -0.5329775  0.00    0.0163354   -0.0124150    0.0013886
h    -3.8032936    1.3608216    1.3633784  0.00    0.0006324   -0.0039043   -0.0044757
h    -3.1521316   -0.3226231    0.0886568  0.00   -0.0044904    0.0034978   -0.0021629
h    -4.1014625    0.2108943   -1.1802031  0.00   -0.0031910   -0.0002198   -0.0034773
o    -1.3794518    2.4695584    0.8610697  0.00   -0.0621781    0.0125218   -0.0258412
o    -2.8113212    3.9193931   -0.3450500  0.00   -0.0433062   -0.0003327    0.0499439
h    -2.2969672    3.8715456   -1.2426037  0.00    0.0141924   -0.0160102   -0.0406043
    13
 Energy =       0.0775682517
c    -3.7086912    1.6801707    0.3066591  0.00   -0.0186274    0.0148464    0.0059950
c    -2.6091182    2.7379016    0.3147572  0.00    0.0695362   -0.0069765    0.0157994
c    -5.0135808    2.2355001   -0.2960581  0.00    0.0106048    0.0068484   -0.0006708
h    -5.8262188    1.4758937   -0.2309908  0.00   -0.0029550   -0.0028648    0.0008484
h    -4.8486560    2.5161140   -1.3638160  0.00    0.0028530    0.0013003   -0.0037828
h    -5.3403073    3.1531058    0.2539424  0.00   -0.0018858    0.0051626    0.0025346
n    -3.2640131    0.4770351   -0.4469504  0.00    0.0224086   -0.0098137   -0.0027054
h    -3.8861149    1.4193387    1.3776387  0.00    0.0002573   -0.0029551   -0.0000675
h    -3.1689244   -0.3266302    0.2218452  0.00   -0.0025333   -0.0017758    0.0040666
h    -3.9660534    0.1762847   -1.1753758  0.00   -0.0091710   -0.0020865   -0.0098787
o    -1.4208631    2.5156477    0.9334621  0.00   -0.0482481    0.0102162   -0.0197473
o    -2.8517785    3.9625818   -0.2854348  0.00   -0.0388429    0.0011425    0.0485784
h    -2.2568867    3.9792429   -1.1328884  0.00    0.0166037   -0.0130440   -0.0409698
    13
 Energy =       0.0757367563
c    -3.7109566    1.6923906    0.3087167  0.00   -0.0170455    0.0122877    0.0067744
c    -2.6039304    2.7422529    0.2598837  0.00    0.0633522   -0.0091433    0.0152290
c    -5.0312098    2.2465767   -0.2611034  0.00    0.0091258    0.0060939   -0.0002861
h    -5.8494536    1.4972514   -0.1532621  0.00   -0.0034384   -0.0031489    0.0008065
h    -4.8983828    2.5015459   -1.3403225  0.00    0.0027035    0.0012914   -0.0042740
h    -5.3298254    3.1794369    0.2786751  0.00   -0.0017812    0.0050543    0.0026823
n    -3.2985336    0.4771073   -0.4415069  0.00    0.0298095    0.0057967   -0.0046512
h    -3.8571735    1.4493044    1.3891048  0.00    0.0000653   -0.0026279    0.0006383
h    -3.0745209   -0.2892903    0.2533432  0.00    0.0009469   -0.0112806    0.0146637
h    -4.0750879    0.1056005   -1.0676877  0.00   -0.0205482   -0.0071542   -0.0190833
o    -1.4246433    2.5516574    0.9143377  0.00   -0.0424666    0.0082659   -0.0166901
o    -2.8260865    3.9288018   -0.4268164  0.00   -0.0379858    0.0067748    0.0440405
h    -2.1814020    3.9195510   -1.2365718  0.00    0.0172624   -0.0122099   -0.0398499
    13
 Energy =       0.0737320147
c    -3.7224023    1.7005932    0.3099178  0.00   -0.0141684    0.0099088    0.0072788
c    -2.5880028    2.7188592    0.2303796  0.00    0.0510402   -0.0114722    0.0122457
c    -5.0400356    2.2836951   -0.2372292  0.00    0.0071000    0.0048023   -0.0003263
h    -5.8742336    1.5558156   -0.1092485  0.00   -0.0033188   -0.0029253    0.0006791
h    -4.9222398    2.5283585   -1.3201918  0.00    0.0022939    0.0010756   -0.0037380
h    -5.3036879    3.2272701    0.3009481  0.00   -0.0016213    0.0047518    0.0025542
n    -3.3565577    0.4694199   -0.4361665  0.00    0.0259204    0.0041493   -0.0041782
h    -3.8543127    1.4714087    1.3952980  0.00   -0.0000153   -0.0020509    0.0007544
h    -3.1288246   -0.2939117    0.2581999  0.00    0.0007492   -0.0094366    0.0122693
h    -4.1534040    0.1073987   -1.0380322  0.00   -0.0176326   -0.0064534   -0.0165369
o    -1.4499365    2.5537146    0.9764340  0.00   -0.0310301    0.0039476   -0.0088443
o    -2.7449199    3.8593329   -0.5559190  0.00   -0.0399751    0.0147550    0.0380813
h    -2.0226489    3.8202317   -1.2975995  0.00    0.0206580   -0.0110521   -0.0402391
    13
 Energy =       0.0734180347
c    -3.7149693    1.7018341    0.3071617  0.00   -0.0130896    0.0088027    0.0063559
c    -2.6234307    2.7674922    0.2380206  0.00    0.0352606   -0.0108460    0.0035256
c    -5.0540946    2.2333289   -0.2425468  0.00    0.0055763    0.0045622   -0.0006744
h    -5.8615388    1.4763336   -0.1113582  0.00   -0.0033940   -0.0029525    0.0006415
h    -4.9458204    2.4773432   -1.3261891  0.00    0.0019123    0.0009758   -0.0032137
h    -5.3514261    3.1693666    0.2906003  0.00   -0.0015379    0.0045595    0.0023492
n    -3.2980413    0.4881587   -0.4403377  0.00    0.0232012    0.0030248   -0.0041183
h    -3.8440732    1.4642771    1.3911506  0.00   -0.0001779   -0.0017282    0.0007325
h    -3.0367284   -0.2658733    0.2511149  0.00    0.0008334   -0.0088976    0.0108078
h    -4.0813906    0.0937728   -1.0366249  0.00   -0.0156659   -0.0058767   -0.0145319
o    -1.5328031    2.7124678    1.0866402  0.00   -0.0142432    0.0023831    0.0026113
o    -2.7863656    3.8608861   -0.6140950  0.00   -0.0375950    0.0160013    0.0309258
h    -2.0305240    3.8227989   -1.3167463  0.00    0.0189197   -0.0100085   -0.0354112
    13
 Energy =       0.0717107920
c    -3.7437187    1.6998430    0.3019950  0.00   -0.0135219    0.0078879    0.0069404
c    -2.5970442    2.7109710    0.2504261  0.00    0.0307776   -0.0108617    0.0011713
c    -5.0456188    2.2942893   -0.2778294  0.00    0.0046115    0.0060543   -0.0009813
h    -5.8922134    1.5767671   -0.1604203  0.00   -0.0046251   -0.0038691    0.0009416
h    -4.9025375    2.5280207   -1.3603091  0.00    0.0020073    0.0013142   -0.0037924
h    -5.3095251    3.2464368    0.2455001  0.00   -0.0019110    0.0052199    0.0024413
n    -3.3712279    0.4665093   -0.4371132  0.00    0.0251101    0.0029727   -0.0041035
h    -3.9060262    1.4690721    1.3832982  0.00   -0.0003729   -0.0022292    0.0011990
h    -3.0837556   -0.2738494    0.2593071  0.00    0.0010088   -0.0091008    0.0114077
h    -4.1850013    0.0655667   -0.9887034  0.00   -0.0170624   -0.0072926   -0.0157802
o    -1.4800352    2.5537146    1.0582929  0.00   -0.0074617    0.0016182    0.0069995
o    -2.7150511    3.8406396   -0.5632578  0.00   -0.0387378    0.0177519    0.0299809
h    -1.9294513    3.8242057   -1.2343957  0.00    0.0201775   -0.0094656   -0.0364243
    13
 Energy =       0.0706031908
c    -3.7822377    1.6918766    0.2856894  0.00   -0.0123299    0.0048537    0.0060790
c    -2.6045816    2.6728687    0.3262556  0.00    0.0278730   -0.0111301    0.0013035
c    -5.0324404    2.3332864   -0.3611551  0.00    0.0022474    0.0068909   -0.0009816
h    -5.9083235    1.6427535   -0.2948976  0.00   -0.0060306   -0.0045798    0.0011213
h    -4.8228756    2.5694237   -1.4340083  0.00    0.0021178    0.0018176   -0.0056185
h    -5.2947809    3.2891852    0.1552705  0.00   -0.0019801    0.0048813    0.0022387
n    -3.4017583    0.4691268   -0.4637479  0.00    0.0249630    0.0067392   -0.0053267
h    -4.0168622    1.4370860    1.3508004  0.00   -0.0010332   -0.0028363    0.0038917
h    -3.0438501   -0.2513872    0.2237865  0.00    0.0026597   -0.0112288    0.0132981
h    -4.2348804    0.0311752   -0.9573970  0.00   -0.0189601   -0.0083627   -0.0163642
o    -1.5160387    2.4360224    1.1583867  0.00   -0.0030627    0.0005937    0.0093850
o    -2.6563949    3.8447838   -0.4365502  0.00   -0.0359009    0.0207387    0.0255876
h    -1.8461820    3.8359855   -1.0756426  0.00    0.0194366   -0.0083774   -0.0346138
    13
 Energy =       0.0681634955
c    -3.7733754    1.7002959    0.2956087  0.00   -0.0137516    0.0053961    0.0059726
c    -2.5755316    2.6603816    0.2447040  0.00    0.0244599   -0.0096438   -0.0007436
c    -5.0448330    2.3432291   -0.3079438  0.00    0.0016062    0.0061168   -0.0008692
h    -5.9242287    1.6620698   -0.1964766  0.00   -0.0066335   -0.0048388    0.0010865
h    -4.8767743    2.5618143   -1.3925832  0.00    0.0021706    0.0018124   -0.0063755
h    -5.2761922    3.3091495    0.2047043  0.00   -0.0019756    0.0050138    0.0025300
n    -3.4503445    0.4479205   -0.4341473  0.00    0.0244414    0.0048807   -0.0066581
h    -3.9585122    1.4830275    1.3801833  0.00   -0.0015717   -0.0026136    0.0057457
h    -3.1050561   -0.2722358    0.2593766  0.00    0.0026134   -0.0109648    0.0125729
h    -4.3018798    0.0292075   -0.9118859  0.00   -0.0185535   -0.0083761   -0.0158136
o    -1.4311835    2.4096992    0.9996336  0.00    0.0025671    0.0005758    0.0111694
o    -2.6487656    3.8158364   -0.5416070  0.00   -0.0393306    0.0209127    0.0265476
h    -1.7945294    3.8517911   -1.1227763  0.00    0.0239578   -0.0082711   -0.0351647
    13
 Energy =       0.0635334175
c    -3.7791191    1.7081408    0.2935198  0.00   -0.0119433    0.0054939    0.0058367
c    -2.5503553    2.6211838    0.1673404  0.00    0.0135744   -0.0050523   -0.0023810
c    -5.0517826    2.3755729   -0.2753149  0.00    0.0008658    0.0039586   -0.0005546
h    -5.9448649    1.7226188   -0.1234912  0.00   -0.0056911   -0.0040056    0.0007779
h    -4.9153427    2.5693571   -1.3679999  0.00    0.0017671    0.0012800   -0.0052249
h    -5.2371525    3.3556629    0.2272161  0.00   -0.0016325    0.0043975    0.0024307
n    -3.5318200    0.4274551   -0.4139256  0.00    0.0214792    0.0034512   -0.0063569
h    -3.9272674    1.5265799    1.3894932  0.00   -0.0016138   -0.0016554    0.0053067
h    -3.1426943   -0.2726421    0.2739246  0.00    0.0023020   -0.0083861    0.0105231
h    -4.4199775    0.0058224   -0.8130018  0.00   -0.0173375   -0.0085037   -0.0139597
o    -1.3654403    2.3168080    0.8408805  0.00    0.0085822    0.0002358    0.0094686
o    -2.6099082    3.7656891   -0.6318383  0.00   -0.0457983    0.0133110    0.0268195
h    -1.6854813    3.8799379   -1.0900125  0.00    0.0354458   -0.0045248   -0.0326860
    13
 Energy =       0.0591006645
c    -3.8044380    1.7087457    0.2731156  0.00   -0.0064320    0.0022486    0.0052942
c    -2.5393618    2.5644555    0.1448896  0.00    0.0038684   -0.0021848   -0.0014118
c    -5.0460762    2.4235696   -0.2992513  0.00    0.0003287    0.0027389   -0.0008360
h    -5.9656824    1.8167837   -0.1320146  0.00   -0.0038208   -0.0025542    0.0006464
h    -4.9082894    2.5889826   -1.3939545  0.00    0.0010859    0.0006879   -0.0027168
h    -5.1830575    3.4191099    0.1848018  0.00   -0.0011906    0.0032044    0.0016469
n    -3.6208582    0.4201645   -0.4283058  0.00    0.0246904    0.0193875   -0.0107336
h    -3.9597149    1.5359388    1.3664699  0.00   -0.0009865   -0.0010297    0.0024127
h    -3.0916689   -0.2383253    0.2161304  0.00    0.0103647   -0.0128387    0.0178343
h    -4.5563608   -0.0451345   -0.6542487  0.00   -0.0311513   -0.0144126   -0.0139756
o    -1.3612559    2.1809408    0.7879209  0.00    0.0078722   -0.0007957    0.0060628
o    -2.5443113    3.7236968   -0.6317829  0.00   -0.0365781    0.0051787    0.0186327
h    -1.5801309    3.9032585   -0.9569799  0.00    0.0319490    0.0003699   -0.0228561
    13
 Energy =       0.0556439255
c    -3.8278495    1.7091249    0.2537191  0.00   -0.0027936    0.0004619    0.0032151
c    -2.5279072    2.5087735    0.1388004  0.00    0.0002878   -0.0011690   -0.0004024
c    -5.0312385    2.4669181   -0.3387481  0.00   -0.0001412    0.0016449   -0.0006970
h    -5.9758474    1.9044648   -0.1683026  0.00   -0.0022257   -0.0014186    0.0005011
h    -4.8805019    2.6056511   -1.4339676  0.00    0.0005493    0.0003875   -0.0012455
h    -5.1273183    3.4749003    0.1256464  0.00   -0.0007539    0.0019706    0.0008478
n    -3.6983188    0.4110122   -0.4338698  0.00    0.0146485    0.0103640   -0.0048327
h    -4.0020482    1.5504010    1.3448367  0.00   -0.0004931   -0.0007723    0.0009320
h    -3.1103827   -0.2278875    0.1663539  0.00    0.0051002   -0.0058976    0.0093414
h    -4.6409553   -0.0588814   -0.5483272  0.00   -0.0178231   -0.0083936   -0.0078094
o    -1.3741217    2.0610520    0.7806876  0.00    0.0050236   -0.0011423    0.0032293
o    -2.4744002    3.6828953   -0.6118114  0.00   -0.0270580    0.0006043    0.0101464
h    -1.4903164    3.9137622   -0.7982268  0.00    0.0256791    0.0033601   -0.0132260
    13
 Energy =       0.0536411349
c    -3.8537225    1.7082913    0.2324672  0.00   -0.0013110   -0.0007085    0.0025796
c    -2.5216915    2.4566744    0.1500347  0.00   -0.0007760   -0.0010341    0.0000495
c    -5.0144295    2.5115477   -0.3804791  0.00   -0.0004390    0.0012675   -0.0008354
h    -5.9825026    1.9877208   -0.2253236  0.00   -0.0014972   -0.0007989    0.0003306
h    -4.8416966    2.6390015   -1.4731481  0.00    0.0001930    0.0002448   -0.0006092
h    -5.0769615    3.5234652    0.0784001  0.00   -0.0003887    0.0010466    0.0003017
n    -3.7725983    0.4106889   -0.4581659  0.00    0.0113893    0.0116582   -0.0071609
h    -4.0536553    1.5508073    1.3188152  0.00   -0.0002588   -0.0008011    0.0004247
h    -3.1015815   -0.2088898    0.0721550  0.00    0.0074280   -0.0056130    0.0083724
h    -4.7135895   -0.0741324   -0.4357583  0.00   -0.0178400   -0.0075075   -0.0030838
o    -1.4016589    1.9539513    0.8090498  0.00    0.0035335   -0.0013437    0.0021326
o    -2.4072035    3.6441809   -0.5717827  0.00   -0.0168985    0.0000699    0.0037816
h    -1.4199150    3.8988795   -0.6394737  0.00    0.0168656    0.0035198   -0.0062833
    13
 Energy =       0.0525692046
c    -3.8810949    1.7118162    0.2128245  0.00   -0.0003269   -0.0008485    0.0008546
c    -2.5194297    2.4071696    0.1709226  0.00   -0.0006380   -0.0002050   -0.0002862
c    -4.9919398    2.5560830   -0.4309594  0.00   -0.0004895    0.0007802   -0.0001983
h    -5.9814005    2.0678440   -0.3030558  0.00   -0.0007117   -0.0003260    0.0001352
h    -4.7858777    2.6734758   -1.5188303  0.00    0.0000220    0.0001796   -0.0004747
h    -5.0286522    3.5696966    0.0244303  0.00   -0.0000817    0.0001442   -0.0000657
n    -3.8434146    0.4114369   -0.4731570  0.00    0.0032377    0.0033456   -0.0026071
h    -4.1147487    1.5652723    1.2939630  0.00   -0.0001412   -0.0005693    0.0003408
h    -3.1179247   -0.1947832   -0.0136291  0.00    0.0024261   -0.0014996    0.0025111
h    -4.7620991   -0.0806212   -0.3393840  0.00   -0.0054293   -0.0018587   -0.0001678
o    -1.4486097    1.8699962    0.8813266  0.00    0.0023317   -0.0013121    0.0014318
o    -2.3323252    3.5868658   -0.5469403  0.00   -0.0103459   -0.0001705   -0.0014786
h    -1.3536895    3.8579344   -0.4807206  0.00    0.0101468    0.0023401    0.0000050
    13
 Energy =       0.0524356593
c    -3.8891474    1.7108362    0.2075117  0.00   -0.0000867    0.0002874    0.0003015
c    -2.5200141    2.3893783    0.1798034  0.00   -0.0001130   -0.0001427    0.0001678
c    -4.9872212    2.5781884   -0.4229062  0.00   -0.0000645   -0.0002066   -0.0001157
h    -5.9813015    2.0982374   -0.3065644  0.00    0.0000686   -0.0000268   -0.0000306
h    -4.7775608    2.7107491   -1.5079878  0.00   -0.0000303   -0.0000065   -0.0000385
h    -5.0134737    3.5840774    0.0500307  0.00    0.0000317    0.0001836    0.0000921
n    -3.8713806    0.4211371   -0.4994025  0.00   -0.0006172    0.0011564   -0.0015139
h    -4.1249970    1.5517232    1.2860708  0.00    0.0000705    0.0000360    0.0000119
h    -3.1144550   -0.1842141   -0.0942765  0.00    0.0017328   -0.0013517    0.0009869
h    -4.7719553   -0.0833749   -0.3186925  0.00   -0.0010169   -0.0001167    0.0002289
o    -1.4717272    1.8531026    0.9207570  0.00    0.0001676   -0.0002280    0.0001670
o    -2.3035737    3.5511439   -0.5565177  0.00    0.0011385    0.0008275   -0.0000577
h    -1.3343988    3.8212021   -0.4610355  0.00   -0.0012812   -0.0004117   -0.0001998
    13
 Energy =       0.0524295276
c    -3.8918438    1.7105390    0.2075829  0.00   -0.0000080    0.0000604   -0.0000102
c    -2.5210291    2.3858095    0.1872279  0.00   -0.0003133   -0.0002777    0.0001175
c    -4.9862480    2.5858681   -0.4179043  0.00   -0.0000272   -0.0000047   -0.0000067
h    -5.9820408    2.1081851   -0.3063161  0.00   -0.0000112   -0.0000105    0.0000003
h    -4.7745786    2.7253108   -1.5017942  0.00   -0.0000007    0.0000074   -0.0000251
h    -5.0100334    3.5883221    0.0618960  0.00    0.0000082    0.0000296    0.0000093
n    -3.8762231    0.4264056   -0.5089630  0.00   -0.0000264   -0.0000402   -0.0000719
h    -4.1303516    1.5436624    1.2844807  0.00    0.0000034   -0.0000069    0.0000345
h    -3.1190583   -0.1812911   -0.1115376  0.00    0.0000306   -0.0000294    0.0000369
h    -4.7753918   -0.0800409   -0.3300155  0.00   -0.0000062   -0.0000028    0.0000039
o    -1.4862355    1.8639277    0.9573094  0.00    0.0004680   -0.0004583    0.0004922
o    -2.2884421    3.5273258   -0.5757500  0.00   -0.0002228    0.0007450   -0.0006335
h    -1.3197301    3.7981625   -0.4694257  0.00    0.0001055   -0.0000119    0.0000527
    13
 Energy =       0.0524289701
c    -3.8913006    1.7091708    0.2069688  0.00    0.0000069    0.0000151    0.0000068
c    -2.5208955    2.3851870    0.1873188  0.00    0.0000013    0.0000018   -0.0000007
c    -4.9871828    2.5871805   -0.4120681  0.00   -0.0000112    0.0000008    0.0000017
h    -5.9825656    2.1085454   -0.3010227  0.00   -0.0000007   -0.0000004    0.0000010
h    -4.7775802    2.7320601   -1.4956496  0.00    0.0000022    0.0000027   -0.0000163
h    -5.0105094    3.5871959    0.0727635  0.00   -0.0000021    0.0000140    0.0000058
n    -3.8764559    0.4286780   -0.5160206  0.00   -0.0000064   -0.0000130   -0.0000238
h    -4.1277618    1.5368060    1.2834454  0.00   -0.0000026   -0.0000017    0.0000168
h    -3.1180199   -0.1805282   -0.1234212  0.00    0.0000142   -0.0000160    0.0000074
h    -4.7749209   -0.0792194   -0.3376690  0.00   -0.0000017   -0.0000028    0.0000016
o    -1.4864883    1.8642836    0.9577714  0.00    0.0000004   -0.0000009   -0.0000003
o    -2.2880345    3.5258141   -0.5759861  0.00   -0.0000004    0.0000007   -0.0000000
h    -1.3194910    3.7970127   -0.4696402  0.00    0.0000002   -0.0000001    0.0000001
    13
 Energy =       0.0524289687
c    -3.8913055    1.7091641    0.2069765  0.00   -0.0000000    0.0000000   -0.0000000
c    -2.5209219    2.3852198    0.1873837  0.00   -0.0000001   -0.0000000    0.0000000
c    -4.9871975    2.5871813   -0.4119897  0.00   -0.0000000   -0.0000000    0.0000000
h    -5.9825705    2.1085174   -0.3009876  0.00   -0.0000000   -0.0000000    0.0000000
h    -4.7775947    2.7321429   -1.4955453  0.00    0.0000000   -0.0000000   -0.0000000
h    -5.0105427    3.5871472    0.0729096  0.00    0.0000000    0.0000000    0.0000000
n    -3.8764282    0.4287440   -0.5161021  0.00    0.0000000   -0.0000000   -0.0000000
h    -4.1277701    1.5367099    1.2834226  0.00   -0.0000000    0.0000000    0.0000000
h    -3.1179887   -0.1804618   -0.1235443  0.00    0.0000000   -0.0000000    0.0000000
h    -4.7748849   -0.0791860   -0.3378093  0.00   -0.0000000   -0.0000000    0.0000000
o    -1.4866454    1.8645849    0.9581923  0.00    0.0000001   -0.0000001    0.0000001
o    -2.2879371    3.5255845   -0.5762745  0.00   -0.0000000    0.0000001   -0.0000001
h    -1.3194191    3.7968384   -0.4698415  0.00    0.0000000   -0.0000000    0.0000000
