    27
 Energy =      66.5106288225
c    -1.4235396    2.6054793   -0.0667700  0.00   -0.0461545    0.0384330    0.0027415
c    -1.3072796    1.2134697   -0.1072300  0.00   -0.0852950   -0.0325296    0.0020011
c    -0.0178900    0.6711998   -0.1697000  0.00   -0.0888295   -0.1884588   -0.0012119
c    -0.2940599    3.4190890   -0.0891300  0.00   -0.0235280    0.0690987    0.0028897
c     0.9872197    2.8590292   -0.1560400  0.00    0.0387537    0.0662787    0.0072211
c     1.1340797    1.4562096   -0.1970299  0.00    0.0586450    0.0538935    0.0032772
n     0.3879399   -0.6395298   -0.2140799  0.00    0.1424695    0.1096729   -0.0033980
c     2.2666594    0.5727398   -0.2659299  0.00    0.1514740   -0.0946395   -0.0293961
c     1.7555995   -0.7123598   -0.2706899  0.00   -0.1014576   -0.0977531    0.0039973
h    -0.2400399   -1.4313496   -0.2047299  0.00    0.0370945    0.0477948   -0.0005064
c     3.7030089    1.0223397   -0.3320099  0.00    0.0042671    0.0459932    0.0000769
c     4.0547688    2.2615794    0.5049969  0.00   -0.0153555   -0.0125822    0.0203726
h     3.9407589    1.2278196   -1.3843196  0.00    0.0021289    0.0016346    0.0221379
h     4.3455988    0.1801669   -0.0411573  0.00   -0.0130973    0.0104445   -0.0031937
c     5.4270085    2.7951492    0.0535521  0.00    0.1428804    0.0852090   -0.3071586
n     4.1412688    1.9836494    1.9826994  0.00    1.1863990    0.3853512    0.0067622
h     3.3277791    3.0673291    0.3491609  0.00   -0.4918706    0.1165943   -0.1584002
h     3.8646489    1.0062597    2.1215594  0.00    0.0279453    0.0439838   -0.0292674
h     5.1335385    1.9976794    2.2436094  0.00  611.8012357  506.7202588 -342.4979054
h    -2.4108593    3.0588691   -0.0157800  0.00   -0.0004908    0.0001032    0.0000140
h    -2.1896094    0.5822398   -0.0890100  0.00   -0.0036385    0.0039318    0.0000747
h    -0.4052699    4.5000487   -0.0535400  0.00    0.0001571    0.0000785    0.0002996
h     1.8590495    3.5066790   -0.1715100  0.00    0.4773876   -0.1418653    0.1697337
h     2.2327294   -1.6813195   -0.3062999  0.00   -0.0409695   -0.0109485    0.0026090
o     5.7255984    3.1121091   -1.0858697  0.00   -0.0655166   -0.0767774    0.2684703
o     6.2915882    2.8764792    1.1006697  0.00   -0.3399727   -0.2213002    0.2837928
h     5.7821484    2.5348793    1.8806595  0.00 -612.7546619 -506.9219000  342.2339661
    27
 Energy =       5.1445466801
c    -1.4235336    2.6054743   -0.0667703  0.00   -0.0461249    0.0384084    0.0027546
c    -1.3072686    1.2134739   -0.1072302  0.00   -0.0852650   -0.0325408    0.0020123
c    -0.0178785    0.6712243   -0.1696998  0.00   -0.0888080   -0.1883232   -0.0012461
c    -0.2940569    3.4190801   -0.0891303  0.00   -0.0235029    0.0690614    0.0029074
c     0.9872147    2.8590206   -0.1560409  0.00    0.0387857    0.0662537    0.0072522
c     1.1340721    1.4562026   -0.1970304  0.00    0.0585876    0.0538397    0.0032287
n     0.3879214   -0.6395440   -0.2140795  0.00    0.1424758    0.1096172   -0.0032915
c     2.2666397    0.5727521   -0.2659261  0.00    0.1514121   -0.0946124   -0.0293801
c     1.7556127   -0.7123471   -0.2706904  0.00   -0.1013639   -0.0977062    0.0040057
h    -0.2400447   -1.4313558   -0.2047299  0.00    0.0370770    0.0477938   -0.0005404
c     3.7030084    1.0223337   -0.3320099  0.00    0.0042426    0.0459203    0.0006808
c     4.0547708    2.2615810    0.5049942  0.00   -0.0392885   -0.0137401    0.0083481
h     3.9407586    1.2278194   -1.3843225  0.00    0.0022160    0.0017124    0.0219990
h     4.3456005    0.1801656   -0.0411569  0.00   -0.0130470    0.0103801   -0.0034759
c     5.4269899    2.7951382    0.0535919  0.00    0.1507119    0.0929237   -0.3248300
n     4.1411149    1.9835995    1.9826986  0.00    0.6958163    0.2074202    0.0432542
h     3.3278429    3.0673140    0.3491814  0.00   -0.4911802    0.1168591   -0.1586326
h     3.8646453    1.0062540    2.1215632  0.00    0.0374582    0.0398365   -0.0245472
h     5.0541814    1.9319524    2.2880350  0.00   35.3491050   29.3653501  -19.9330340
h    -2.4108592    3.0588691   -0.0157800  0.00   -0.0005082    0.0001162    0.0000053
h    -2.1896089    0.5822393   -0.0890100  0.00   -0.0036647    0.0039288    0.0000653
h    -0.4052699    4.5000487   -0.0535400  0.00    0.0001502    0.0001098    0.0002842
h     1.8589875    3.5066974   -0.1715320  0.00    0.4768234   -0.1416918    0.1695262
h     2.2327347   -1.6813181   -0.3063003  0.00   -0.0409942   -0.0109914    0.0025647
o     5.7256069    3.1121191   -1.0859045  0.00   -0.0660897   -0.0764881    0.2677931
o     6.2916323    2.8765079    1.1006329  0.00   -0.3128664   -0.1863218    0.2942594
h     5.8616292    2.6006324    1.8362681  0.00  -35.8321580  -29.4271155   19.6480366
    27
 Energy =       3.7435230778
c    -1.4019876    2.6034938   -0.0669725  0.00   -0.0297463    0.0245676    0.0018877
c    -1.2782423    1.2258410   -0.1063573  0.00   -0.0554021   -0.0215077    0.0013112
c    -0.0059982    0.6923542   -0.1678073  0.00   -0.0567113   -0.1227033   -0.0001821
c    -0.2831617    3.4153506   -0.0972060  0.00   -0.0154288    0.0444945    0.0020836
c     0.9885197    2.8657873   -0.1664936  0.00    0.0251668    0.0429542    0.0050723
c     1.1259049    1.4738884   -0.1945290  0.00    0.0376064    0.0356145    0.0023580
n     0.3706502   -0.6432719   -0.2262833  0.00    0.0913093    0.0702743   -0.0030820
c     2.2410377    0.6120144   -0.2536860  0.00    0.0986341   -0.0611435   -0.0192966
c     1.7596226   -0.6678886   -0.2683237  0.00   -0.0662887   -0.0613342    0.0029991
h    -0.2554216   -1.4523123   -0.2283927  0.00    0.0246021    0.0306981   -0.0006773
c     3.6909510    1.0165240   -0.3349348  0.00    0.0032282    0.0296511    0.0001729
c     4.0684879    2.2410154    0.5094446  0.00   -0.0238762   -0.0084718    0.0053537
h     3.9198413    1.2215899   -1.3964675  0.00    0.0013830    0.0015045    0.0142310
h     4.3260658    0.1603941   -0.0463147  0.00   -0.0084043    0.0068700   -0.0022691
c     5.4256371    2.7715404    0.0775631  0.00    0.0981291    0.0613620   -0.2096677
n     4.1234116    1.9558371    1.9738127  0.00    0.4819886    0.1634150    0.0153616
h     3.3493134    3.0467918    0.3411648  0.00   -0.3473501    0.0798546   -0.1122983
h     3.7058922    1.0157508    2.1544034  0.00    0.0169692    0.0111502   -0.0136389
h     5.0640402    1.8933670    2.3454377  0.00   25.0910663   20.8288676  -14.1290353
h    -2.3918540    3.0509010   -0.0134258  0.00   -0.0004963   -0.0003769    0.0002549
h    -2.1544340    0.5859954   -0.0881686  0.00   -0.0022531    0.0021028    0.0001475
h    -0.4001694    4.4958952   -0.0673058  0.00   -0.0002243   -0.0001134    0.0003666
h     1.8539308    3.5366633   -0.1949528  0.00    0.3375656   -0.0958301    0.1192899
h     2.3030414   -1.6036275   -0.3202803  0.00   -0.0248398   -0.0083285    0.0014263
o     5.7100449    3.0859966   -1.1284493  0.00   -0.0445795   -0.0507982    0.1731826
o     6.3245955    2.8660795    1.0995269  0.00   -0.2144035   -0.1283169    0.1989529
h     5.8927241    2.5799634    1.8810790  0.00  -25.4176444  -20.8744566   13.9456957
    27
 Energy =       2.0431050962
c    -1.3601972    2.7096534   -0.1768241  0.00   -0.0098110    0.0074215    0.0011264
c    -1.2697635    1.3456994   -0.1766740  0.00   -0.0173299   -0.0070319    0.0008447
c    -0.0344219    0.7797217   -0.1873430  0.00   -0.0150838   -0.0347402   -0.0021642
c    -0.2262452    3.4782943   -0.1853749  0.00   -0.0063980    0.0141545    0.0009630
c     1.0154699    2.8939717   -0.1935089  0.00    0.0103000    0.0143402    0.0010046
c     1.0996399    1.5142177   -0.1939596  0.00    0.0112923    0.0127997   -0.0004352
n     0.2593856   -0.5998104   -0.1820475  0.00    0.0293946    0.0177200   -0.0005419
c     2.1666545    0.6402894   -0.1928530  0.00    0.0296048   -0.0202523   -0.0085391
c     1.6749383   -0.6188912   -0.1951715  0.00   -0.0197843   -0.0195422   -0.0001517
h    -0.4045155   -1.3995219   -0.1729897  0.00    0.0067672    0.0091266    0.0002014
c     3.6527488    0.9297920   -0.2748389  0.00    0.0026073    0.0091603    0.0001590
c     4.1129378    2.1405981    0.5538171  0.00   -0.0055234   -0.0030346    0.0040858
h     3.9023651    1.0871816   -1.3502809  0.00    0.0025083    0.0007127    0.0032595
h     4.2351007    0.0345434    0.0423924  0.00   -0.0019340   -0.0004665    0.0001702
c     5.4542033    2.6488550    0.0874136  0.00    0.0288907    0.0188475   -0.0607669
n     4.1522818    1.8605908    2.0154054  0.00    0.2304807    0.0860610    0.0001643
h     3.4498807    2.9854076    0.3492837  0.00   -0.1702569    0.0391093   -0.0619537
h     3.6327223    0.9699334    2.2567352  0.00   -0.0039706   -0.0054946   -0.0019087
h     5.1281589    1.8204041    2.3909863  0.00   12.7982181   10.6116018   -7.1905407
h    -2.3388284    3.1870404   -0.1721789  0.00   -0.0014287    0.0007015   -0.0003277
h    -2.1604229    0.7260257   -0.1700460  0.00   -0.0006534    0.0004410   -0.0001261
h    -0.3101903    4.5636484   -0.1854309  0.00   -0.0002084    0.0010918   -0.0006419
h     1.8843384    3.5569954   -0.1774225  0.00    0.1665073   -0.0422524    0.0612177
h     2.2594696   -1.5349733   -0.2227454  0.00   -0.0062689   -0.0023697    0.0006576
o     5.6743801    2.9483307   -1.2161934  0.00   -0.0164407   -0.0163413    0.0484320
o     6.4216608    2.8344599    1.0442953  0.00   -0.0801550   -0.0501594    0.0761806
h     6.0006920    2.5434771    1.9016352  0.00  -12.9613243  -10.6416044    7.1296309
    27
 Energy =       1.6530809932
c    -1.3437161    2.8002347   -0.2155675  0.00   -0.0083128    0.0054310    0.0006866
c    -1.2863584    1.4364009   -0.2174889  0.00   -0.0139345   -0.0055491    0.0004668
c    -0.0673301    0.8411333   -0.1913610  0.00   -0.0106862   -0.0260764   -0.0016187
c    -0.1917660    3.5399435   -0.1872565  0.00   -0.0047696    0.0113874    0.0006645
c     1.0342054    2.9261624   -0.1627826  0.00    0.0087923    0.0111618    0.0007510
c     1.0832930    1.5460848   -0.1658579  0.00    0.0092562    0.0098512   -0.0004087
n     0.1862669   -0.5481327   -0.1996408  0.00    0.0212803    0.0127675   -0.0008912
c     2.1259425    0.6481022   -0.1515883  0.00    0.0225501   -0.0148942   -0.0064022
c     1.6044525   -0.5980124   -0.1762842  0.00   -0.0138625   -0.0149977   -0.0000281
h    -0.4994511   -1.3321627   -0.2159539  0.00    0.0043432    0.0060591   -0.0002637
c     3.6210732    0.8900987   -0.2479472  0.00    0.0021021    0.0064125   -0.0005675
c     4.1392223    2.0805364    0.5794515  0.00   -0.0041218   -0.0020310    0.0041578
h     3.8582899    1.0427536   -1.3273375  0.00    0.0020124    0.0003609    0.0024907
h     4.1804264   -0.0257444    0.0541451  0.00   -0.0010703   -0.0008468    0.0004435
c     5.4865151    2.5559016    0.0829685  0.00    0.0211219    0.0145798   -0.0433815
n     4.1934471    1.7887489    2.0379204  0.00    0.1782889    0.0668307    0.0007417
h     3.4975729    2.9450004    0.3943133  0.00   -0.1322994    0.0299873   -0.0481844
h     3.6895819    0.8907923    2.2813533  0.00   -0.0032025   -0.0041965   -0.0010261
h     5.1793315    1.7550841    2.3923978  0.00   10.0127452    8.3012377   -5.6251879
h    -2.3106542    3.3011129   -0.2407479  0.00   -0.0018928    0.0007198   -0.0005339
h    -2.1920524    0.8379738   -0.2454031  0.00   -0.0013526   -0.0001631   -0.0004868
h    -0.2493362    4.6271046   -0.1856696  0.00   -0.0002126    0.0011759   -0.0005391
h     1.9150580    3.5717528   -0.1208183  0.00    0.1294701   -0.0316497    0.0477851
h     2.1717578   -1.5251742   -0.2193767  0.00   -0.0046316   -0.0022099    0.0004403
o     5.7032965    2.7895776   -1.2444424  0.00   -0.0117259   -0.0122144    0.0334812
o     6.4749111    2.7686432    1.0151943  0.00   -0.0600198   -0.0380818    0.0574892
h     6.0684636    2.4920182    1.8938618  0.00  -10.1398677   -8.3250521    5.5799215
    27
 Energy =       1.3103364276
c    -1.3348664    2.8664090   -0.2235006  0.00   -0.0071468    0.0035171    0.0001316
c    -1.2989054    1.5035556   -0.2560493  0.00   -0.0107527   -0.0046142    0.0000794
c    -0.0924259    0.8887205   -0.2039225  0.00   -0.0072353   -0.0182742   -0.0010407
c    -0.1733879    3.5854795   -0.1351118  0.00   -0.0024481    0.0091546    0.0002934
c     1.0395028    2.9515258   -0.0864987  0.00    0.0069796    0.0088616    0.0004499
c     1.0669360    1.5733098   -0.1317994  0.00    0.0072242    0.0073364   -0.0004126
n     0.1361845   -0.5058245   -0.2555030  0.00    0.0150234    0.0081919   -0.0011065
c     2.0947314    0.6626923   -0.1345262  0.00    0.0163071   -0.0091065   -0.0044698
c     1.5557423   -0.5739776   -0.2067752  0.00   -0.0099788   -0.0109206    0.0002292
h    -0.5621319   -1.2796423   -0.3106526  0.00    0.0021005    0.0033896   -0.0005979
c     3.5941352    0.8800321   -0.2596753  0.00    0.0007162    0.0039325   -0.0014857
c     4.1637605    2.0204378    0.6076229  0.00   -0.0017685   -0.0005230    0.0023930
h     3.8040349    1.0773439   -1.3389327  0.00    0.0014820   -0.0001026    0.0006729
h     4.1441658   -0.0607855   -0.0161186  0.00    0.0002597   -0.0024236    0.0011388
c     5.5043020    2.5042257    0.0966138  0.00    0.0149130    0.0089327   -0.0283905
n     4.2380321    1.6596938    2.0508414  0.00    0.1341207    0.0511611    0.0027603
h     3.5418253    2.9098641    0.4730550  0.00   -0.0990960    0.0233235   -0.0371950
h     3.7740467    0.7320392    2.2627098  0.00   -0.0037192   -0.0051461    0.0009720
h     5.2272504    1.6595611    2.4023354  0.00    7.6068992    6.3057477   -4.2722692
h    -2.2922265    3.3836083   -0.2711428  0.00   -0.0018129    0.0006564   -0.0008433
h    -2.2127548    0.9203405   -0.3332579  0.00   -0.0021505   -0.0007806   -0.0008653
h    -0.2129123    4.6733520   -0.1042471  0.00    0.0001953    0.0015631   -0.0006061
h     1.9235137    3.5831816    0.0139750  0.00    0.0972512   -0.0219876    0.0365692
h     2.1139206   -1.5049264   -0.2918406  0.00   -0.0033050   -0.0026929    0.0003294
o     5.6833751    2.7957173   -1.2325632  0.00   -0.0081027   -0.0079985    0.0215713
o     6.5112774    2.7278881    1.0080031  0.00   -0.0429852   -0.0265085    0.0404559
h     6.1353178    2.4121128    1.8930426  0.00   -7.7029701   -6.3246892    4.2412365
    27
 Energy =       0.7049027420
c    -1.3718526    2.8563011   -0.2607734  0.00   -0.0025166    0.0004766   -0.0005163
c    -1.3378086    1.4950887   -0.3029832  0.00   -0.0039772    0.0000891   -0.0006875
c    -0.1383072    0.8785683   -0.1804530  0.00    0.0009382   -0.0023450   -0.0002839
c    -0.2140603    3.5652437   -0.1036757  0.00    0.0007017    0.0031695    0.0001726
c     0.9831496    2.9177524   -0.0042084  0.00    0.0081910    0.0006991    0.0015684
c     1.0075406    1.5615214   -0.0501615  0.00    0.0050500    0.0029962   -0.0001243
n     0.1053512   -0.5140935   -0.2622794  0.00    0.0006796    0.0010224   -0.0020488
c     2.0469378    0.6915107   -0.0416997  0.00    0.0019427    0.0033178    0.0003282
c     1.5329996   -0.5512195   -0.1668964  0.00   -0.0018255   -0.0002429    0.0005592
h    -0.5810255   -1.2982374   -0.3566891  0.00   -0.0009613    0.0002380   -0.0019173
c     3.5363948    0.9609859   -0.2385137  0.00   -0.0024105   -0.0015055    0.0001990
c     4.2053594    2.0692475    0.6332559  0.00   -0.0025832   -0.0089340    0.0035541
h     3.6704156    1.1970965   -1.3246999  0.00    0.0001679   -0.0011789   -0.0031078
h     4.1112591    0.0148323   -0.0769382  0.00    0.0022337   -0.0036336    0.0017014
c     5.5816986    2.4309740    0.0727986  0.00    0.0045433    0.0026950   -0.0012062
n     4.2829694    1.6636320    2.0670116  0.00    0.0404526    0.0193642    0.0021974
h     3.7005785    3.0677240    0.5418294  0.00   -0.0349040    0.0267154   -0.0140033
h     3.8156103    0.7352039    2.2540463  0.00   -0.0009079   -0.0021756    0.0011063
h     5.2992307    1.6183804    2.3939085  0.00    3.5140046    2.8937808   -1.9578321
h    -2.3213349    3.3806275   -0.3607269  0.00   -0.0014983    0.0012904   -0.0011005
h    -2.2466466    0.9166679   -0.4482105  0.00   -0.0026618   -0.0001585   -0.0018628
h    -0.2430303    4.6525635   -0.0663541  0.00    0.0005570    0.0009061    0.0001959
h     1.8687256    3.4941962    0.1204459  0.00    0.0245574   -0.0181918    0.0125614
h     2.1198158   -1.4582757   -0.3155019  0.00   -0.0005772   -0.0032490   -0.0008676
o     5.7534830    2.6392542   -1.2867859  0.00    0.0011669   -0.0014479    0.0000023
o     6.6438932    2.6416380    0.9286006  0.00   -0.0024689   -0.0076448    0.0026589
h     6.2610969    2.4187503    1.8517357  0.00   -3.5478944   -2.9060527    1.9587534
    27
 Energy =       0.5881959691
c    -1.3955406    2.8314699   -0.1934692  0.00   -0.0023090    0.0012429   -0.0005936
c    -1.3410012    1.4732721   -0.2931967  0.00   -0.0031444   -0.0011777   -0.0008917
c    -0.1344915    0.8689055   -0.1898064  0.00    0.0004294   -0.0018137   -0.0003269
c    -0.2506124    3.5506027    0.0045449  0.00    0.0009283    0.0035422    0.0001905
c     0.9557317    2.9179294    0.0842309  0.00    0.0058869    0.0019088    0.0012906
c     1.0015895    1.5623085   -0.0265469  0.00    0.0035267    0.0017721   -0.0002013
n     0.1266001   -0.5172239   -0.3286900  0.00    0.0010920   -0.0005524   -0.0018829
c     2.0525498    0.7037096   -0.0586988  0.00    0.0018214    0.0032602    0.0006010
c     1.5540580   -0.5395955   -0.2362118  0.00   -0.0017927   -0.0011035    0.0002746
h    -0.5488257   -1.3068965   -0.4562015  0.00   -0.0013223   -0.0006013   -0.0018827
c     3.5374804    0.9926252   -0.2641810  0.00   -0.0019643   -0.0012197    0.0002487
c     4.2129365    2.0740722    0.6323982  0.00   -0.0022494   -0.0065973    0.0025885
h     3.6549179    1.2655023   -1.3436789  0.00    0.0003187   -0.0008193   -0.0029509
h     4.1212950    0.0463347   -0.1417206  0.00    0.0019821   -0.0034733    0.0015217
c     5.5721190    2.4702485    0.0537645  0.00    0.0026940    0.0011055    0.0010715
n     4.3151289    1.6218034    2.0511071  0.00    0.0305227    0.0147023    0.0032129
h     3.6974480    3.0641448    0.5802247  0.00   -0.0260730    0.0205498   -0.0107949
h     3.8388536    0.6944843    2.2193196  0.00   -0.0008235   -0.0020393    0.0010989
h     5.3350896    1.5561467    2.3607018  0.00    2.7390572    2.2542911   -1.5243035
h    -2.3518315    3.3456072   -0.2774699  0.00   -0.0011674    0.0013675   -0.0010983
h    -2.2397438    0.8875392   -0.4683879  0.00   -0.0022912   -0.0005333   -0.0018588
h    -0.2974193    4.6355961    0.0923990  0.00    0.0005351    0.0022316    0.0002969
h     1.8277641    3.5099072    0.2521385  0.00    0.0186029   -0.0124960    0.0102435
h     2.1527191   -1.4312860   -0.4279137  0.00   -0.0000439   -0.0035136   -0.0009337
o     5.6989209    2.7565827   -1.2994017  0.00    0.0010684   -0.0000668   -0.0047838
o     6.6623681    2.6396099    0.8840444  0.00   -0.0004738   -0.0053975    0.0018977
h     6.3143393    2.3725341    1.8067825  0.00   -2.7648107   -2.2645693    1.5279662
    27
 Energy =       0.5553412023
c    -1.4198857    2.7877410   -0.0779630  0.00   -0.0033710    0.0007707   -0.0006636
c    -1.3504312    1.4299459   -0.1747306  0.00   -0.0041527   -0.0008859   -0.0009048
c    -0.1313197    0.8430640   -0.1194996  0.00    0.0002164   -0.0021417   -0.0002546
c    -0.2767564    3.5238917    0.0682200  0.00    0.0008372    0.0039697    0.0002561
c     0.9417477    2.9086500    0.0991852  0.00    0.0065799    0.0014894    0.0012492
c     1.0011359    1.5533876   -0.0064950  0.00    0.0039662    0.0018818   -0.0000282
n     0.1444941   -0.5398970   -0.2639002  0.00   -0.0007223   -0.0001231   -0.0017336
c     2.0626231    0.7105674   -0.0786623  0.00    0.0025750    0.0028984    0.0008593
c     1.5762626   -0.5406357   -0.2314870  0.00   -0.0000976   -0.0011483    0.0003330
h    -0.5242011   -1.3402209   -0.3602146  0.00   -0.0018933   -0.0011816   -0.0018203
c     3.5354654    1.0244017   -0.3316020  0.00   -0.0011844   -0.0007467    0.0005790
c     4.2205719    2.0992242    0.5643915  0.00   -0.0020875   -0.0060983    0.0025042
h     3.6158049    1.3190243   -1.4093101  0.00    0.0003785   -0.0004981   -0.0035670
h     4.1365761    0.0847948   -0.2424505  0.00    0.0024052   -0.0036634    0.0015135
c     5.5782617    2.4922245   -0.0191336  0.00    0.0024579    0.0009737    0.0009824
n     4.3251243    1.6425096    1.9807572  0.00    0.0282430    0.0137342    0.0029246
h     3.7057996    3.0898700    0.5166000  0.00   -0.0239460    0.0189797   -0.0100003
h     3.8611609    0.7080703    2.1437798  0.00   -0.0008653   -0.0020483    0.0010218
h     5.3438719    1.5856696    2.2906649  0.00    2.5329119    2.0846290   -1.4096351
h    -2.3868444    3.2879863   -0.1234879  0.00   -0.0020157    0.0014870   -0.0010773
h    -2.2480201    0.8308249   -0.3096348  0.00   -0.0030237   -0.0008083   -0.0018309
h    -0.3350262    4.6085174    0.1524286  0.00    0.0005203    0.0021665    0.0002860
h     1.8146273    3.5131891    0.2224238  0.00    0.0181782   -0.0111025    0.0095721
h     2.1807621   -1.4244036   -0.4404813  0.00    0.0001788   -0.0033493   -0.0008998
o     5.7015944    2.7689196   -1.3744557  0.00    0.0009910   -0.0000509   -0.0044770
o     6.6700449    2.6716342    0.8076756  0.00   -0.0003800   -0.0049686    0.0017629
h     6.3289995    2.4069837    1.7334631  0.00   -2.5566998   -2.0941650    1.4130483
    27
 Energy =       0.5154224954
c    -1.4405951    2.7425826    0.0417341  0.00   -0.0040638    0.0004902   -0.0006470
c    -1.3548262    1.3860670   -0.0594355  0.00   -0.0048677   -0.0005331   -0.0008382
c    -0.1252734    0.8172746   -0.0530243  0.00    0.0000995   -0.0022824   -0.0001700
c    -0.3028963    3.4955072    0.1434382  0.00    0.0005114    0.0041957    0.0002963
c     0.9257328    2.8985156    0.1253037  0.00    0.0069801    0.0010492    0.0011442
c     1.0004435    1.5443857    0.0160858  0.00    0.0041230    0.0018765    0.0001029
n     0.1659010   -0.5614473   -0.2093574  0.00   -0.0021866    0.0001633   -0.0014910
c     2.0711675    0.7180806   -0.0989681  0.00    0.0031240    0.0022843    0.0010092
c     1.5988299   -0.5402018   -0.2341280  0.00    0.0014025   -0.0011237    0.0003155
h    -0.4939301   -1.3720221   -0.2801828  0.00   -0.0021977   -0.0015171   -0.0016751
c     3.5303338    1.0569941   -0.3972201  0.00   -0.0004601   -0.0003471    0.0008202
c     4.2262709    2.1251498    0.4970615  0.00   -0.0018835   -0.0054729    0.0023469
h     3.5739978    1.3720279   -1.4716260  0.00    0.0003995   -0.0001929   -0.0040018
h     4.1468979    0.1245932   -0.3413737  0.00    0.0027035   -0.0037224    0.0014415
c     5.5804171    2.5171317   -0.0947180  0.00    0.0021757    0.0008310    0.0008756
n     4.3368993    1.6630519    1.9103727  0.00    0.0254010    0.0123681    0.0026199
h     3.7114737    3.1155095    0.4555138  0.00   -0.0212735    0.0170146   -0.0090243
h     3.8794668    0.7250399    2.0704000  0.00   -0.0008173   -0.0018912    0.0009033
h     5.3554934    1.6075919    2.2151249  0.00    2.2801234    1.8766233   -1.2690478
h    -2.4165531    3.2284083    0.0352652  0.00   -0.0027275    0.0016077   -0.0009895
h    -2.2484744    0.7737549   -0.1591641  0.00   -0.0034540   -0.0009404   -0.0017055
h    -0.3740302    4.5789972    0.2307004  0.00    0.0004202    0.0020568    0.0002660
h     1.7956543    3.5159147    0.2117409  0.00    0.0169399   -0.0096668    0.0086620
h     2.2092538   -1.4146572   -0.4638522  0.00    0.0004417   -0.0031552   -0.0008626
o     5.6945930    2.7902367   -1.4513347  0.00    0.0008953   -0.0000414   -0.0040656
o     6.6777401    2.7017550    0.7242832  0.00   -0.0002515   -0.0044241    0.0015239
h     6.3484555    2.4356929    1.6534418  0.00   -2.3015577   -1.8852499    1.2721911
    27
 Energy =       0.4744276304
c    -1.4570198    2.6959114    0.1618761  0.00   -0.0044188    0.0004170   -0.0005749
c    -1.3544877    1.3415438    0.0489315  0.00   -0.0052907   -0.0002038   -0.0007235
c    -0.1167446    0.7912969    0.0071138  0.00    0.0000760   -0.0022755   -0.0000898
c    -0.3274543    3.4652209    0.2275993  0.00    0.0000436    0.0042678    0.0003292
c     0.9091659    2.8871022    0.1613013  0.00    0.0071052    0.0006784    0.0010036
c     0.9999280    1.5349083    0.0400390  0.00    0.0040495    0.0017533    0.0001918
n     0.1896525   -0.5821291   -0.1674024  0.00   -0.0031821    0.0002735   -0.0012214
c     2.0783137    0.7257024   -0.1193061  0.00    0.0034757    0.0015473    0.0010535
c     1.6209692   -0.5387596   -0.2446608  0.00    0.0025824   -0.0010722    0.0002437
h    -0.4599131   -1.4024410   -0.2193090  0.00   -0.0022735   -0.0016413   -0.0014948
c     3.5229261    1.0893163   -0.4587128  0.00    0.0001382   -0.0000659    0.0009520
c     4.2297075    2.1523315    0.4319178  0.00   -0.0016728   -0.0048290    0.0021484
h     3.5320554    1.4216546   -1.5288926  0.00    0.0003882    0.0000551   -0.0042052
h     4.1530167    0.1645953   -0.4335774  0.00    0.0028431   -0.0036438    0.0013329
c     5.5791965    2.5440715   -0.1701979  0.00    0.0018740    0.0006911    0.0007699
n     4.3484214    1.6863511    1.8424500  0.00    0.0223647    0.0109056    0.0023128
h     3.7146655    3.1419545    0.3959952  0.00   -0.0184216    0.0149588   -0.0080218
h     3.8910717    0.7485671    2.0028322  0.00   -0.0007447   -0.0016785    0.0007561
h     5.3677490    1.6251282    2.1378546  0.00    2.0203181    1.6627774   -1.1244845
h    -2.4401972    3.1669281    0.1940183  0.00   -0.0032673    0.0017276   -0.0008593
h    -2.2420445    0.7163622   -0.0217573  0.00   -0.0036096   -0.0009558   -0.0015301
h    -0.4119422    4.5468376    0.3245213  0.00    0.0002620    0.0019673    0.0002498
h     1.7732607    3.5174430    0.2197238  0.00    0.0151805   -0.0083322    0.0076981
h     2.2370165   -1.4027064   -0.4979463  0.00    0.0007168   -0.0029825   -0.0008377
o     5.6808419    2.8170680   -1.5276038  0.00    0.0007950   -0.0000273   -0.0036686
o     6.6845556    2.7304793    0.6383042  0.00   -0.0000898   -0.0038491    0.0012532
h     6.3697329    2.4611963    1.5709694  0.00   -2.0392421   -1.6704634    1.1274164
    27
 Energy =       0.4352684474
c    -1.4691428    2.6463760    0.2822820  0.00   -0.0045480    0.0005241   -0.0004688
c    -1.3499164    1.2951210    0.1504213  0.00   -0.0055036    0.0000552   -0.0005855
c    -0.1059782    0.7641650    0.0607557  0.00    0.0001212   -0.0021816   -0.0000203
c    -0.3495842    3.4318581    0.3199140  0.00   -0.0004982    0.0042628    0.0003705
c     0.8931437    2.8734846    0.2061434  0.00    0.0070349    0.0004145    0.0008507
c     1.0000483    1.5241785    0.0648157  0.00    0.0038304    0.0015295    0.0002477
n     0.2151320   -0.6027826   -0.1380609  0.00   -0.0037656    0.0002181   -0.0009668
c     2.0845813    0.7329396   -0.1400547  0.00    0.0036992    0.0007781    0.0010159
c     1.6426020   -0.5368430   -0.2633301  0.00    0.0034744   -0.0010349    0.0001359
h    -0.4233037   -1.4324200   -0.1773232  0.00   -0.0022034   -0.0016345   -0.0013101
c     3.5141661    1.1210571   -0.5161242  0.00    0.0006119    0.0001045    0.0009852
c     4.2306679    2.1818121    0.3683053  0.00   -0.0014531   -0.0042164    0.0019302
h     3.4914102    1.4666428   -1.5818437  0.00    0.0003576    0.0002403   -0.0042035
h     4.1565319    0.2045897   -0.5176643  0.00    0.0028414   -0.0034531    0.0012124
c     5.5752395    2.5729732   -0.2449056  0.00    0.0015775    0.0005654    0.0006688
n     4.3577398    1.7156220    1.7772239  0.00    0.0193635    0.0095479    0.0020034
h     3.7153304    3.1704605    0.3351360  0.00   -0.0155646    0.0129691   -0.0070734
h     3.8948407    0.7815215    1.9420942  0.00   -0.0007088   -0.0015215    0.0006040
h     5.3781566    1.6430905    2.0608251  0.00    1.7726582    1.4588332   -0.9865907
h    -2.4579538    3.1019763    0.3527714  0.00   -0.0036743    0.0018540   -0.0007032
h    -2.2298281    0.6572458    0.1029659  0.00   -0.0035758   -0.0009003   -0.0013384
h    -0.4473851    4.5107876    0.4327542  0.00    0.0000676    0.0019435    0.0002473
h     1.7494492    3.5168457    0.2445780  0.00    0.0131436   -0.0071246    0.0067798
h     2.2637699   -1.3890169   -0.5429000  0.00    0.0009968   -0.0028613   -0.0008361
o     5.6633434    2.8461751   -1.6030030  0.00    0.0006971   -0.0000104   -0.0032992
o     6.6894437    2.7601438    0.5520284  0.00    0.0000718   -0.0032980    0.0009998
h     6.3899391    2.4879303    1.4882764  0.00   -1.7890515   -1.4656036    0.9893444
    27
 Energy =       0.3967158923
c    -1.4806860    2.5768987    0.4025960  0.00   -0.0046074    0.0007953   -0.0003272
c    -1.3395055    1.2304093    0.2453052  0.00   -0.0056244    0.0001628   -0.0004354
c    -0.0889756    0.7251002    0.1077599  0.00    0.0002053   -0.0020834    0.0000399
c    -0.3757673    3.3831928    0.4189299  0.00   -0.0010773    0.0042960    0.0004380
c     0.8736673    2.8509827    0.2580194  0.00    0.0068632    0.0003139    0.0006892
c     1.0020549    1.5062460    0.0893842  0.00    0.0035675    0.0012089    0.0002740
n     0.2518756   -0.6326699   -0.1207475  0.00   -0.0040722   -0.0000329   -0.0007371
c     2.0946304    0.7387847   -0.1619692  0.00    0.0038913    0.0000211    0.0009123
c     1.6733588   -0.5373425   -0.2901131  0.00    0.0041974   -0.0010946   -0.0000109
h    -0.3714052   -1.4740043   -0.1528806  0.00   -0.0021055   -0.0016521   -0.0011271
c     3.5076114    1.1572942   -0.5695835  0.00    0.0010390    0.0002483    0.0008956
c     4.2262921    2.2246852    0.3042076  0.00   -0.0011400   -0.0035945    0.0016316
h     3.4554177    1.5092715   -1.6319100  0.00    0.0003274    0.0003945   -0.0039858
h     4.1657260    0.2525479   -0.5902820  0.00    0.0027229   -0.0031742    0.0011003
c     5.5663715    2.6167418   -0.3180963  0.00    0.0012836    0.0004581    0.0005754