    27
 Energy =       0.2957012313
c    -1.4235396    2.6054793   -0.0667700  0.00   -0.0462420    0.0382430    0.0026483
c    -1.3072796    1.2134697   -0.1072300  0.00   -0.0854053   -0.0325263    0.0019194
c    -0.0178900    0.6711998   -0.1697000  0.00   -0.0893903   -0.1875711   -0.0007404
c    -0.2940599    3.4190890   -0.0891300  0.00   -0.0232520    0.0690615    0.0028201
c     0.9872197    2.8590292   -0.1560400  0.00    0.0106047    0.0639402    0.0007943
c     1.1340797    1.4562096   -0.1970299  0.00    0.0526162    0.0523763    0.0023800
n     0.3879399   -0.6395298   -0.2140799  0.00    0.1490822    0.1078681   -0.0055109
c     2.2666594    0.5727398   -0.2659299  0.00    0.1520479   -0.0652601   -0.0157057
c     1.7555995   -0.7123598   -0.2706899  0.00   -0.0835126   -0.0970800    0.0018389
h    -0.2400399   -1.4313496   -0.2047299  0.00    0.0361555    0.0479698    0.0000238
c     3.7030089    1.0223397   -0.3320099  0.00    0.0087657   -0.0486798   -0.0438192
c     4.7465686   -0.0024900    0.1378100  0.00   -0.0190396    0.1512962   -0.0507557
h     3.7978489    1.9290294    0.2803699  0.00   -0.0053257   -0.0077206   -0.0109773
h     3.9233889    1.3348996   -1.3618196  0.00   -0.0002150   -0.0160745    0.0110577
c     4.8964886   -1.0916697   -0.9404947  0.00    0.2234268   -0.3125009   -0.0542312
n     4.3764788   -0.6892298    1.4261196  0.00    0.0055573   -0.0548544    0.0709487
h     5.7313184    0.4619039    0.2668599  0.00   -0.0155436   -0.0181798    0.0156274
h     5.1527685   -0.5416468    2.0793394  0.00   -0.0267221    0.0065963   -0.0280440
h     3.5998490   -0.1655630    1.8450295  0.00    0.0240822   -0.0059454   -0.0297221
h    -2.4108593    3.0588691   -0.0157800  0.00   -0.0009975    0.0003505    0.0001039
h    -2.1896094    0.5822398   -0.0890100  0.00   -0.0036566    0.0037284    0.0001541
h    -0.4052699    4.5000487   -0.0535400  0.00    0.0008828    0.0004551    0.0003621
h     1.8590495    3.5066790   -0.1715100  0.00   -0.0005207    0.0026414    0.0008084
h     2.2327294   -1.6813195   -0.3062999  0.00   -0.0423414   -0.0101989    0.0026121
o     5.6946284   -2.0136594   -0.9120977  0.00   -0.1989890    0.2156327    0.0019668
o     4.0108389   -0.9035257   -1.9557794  0.00   -0.0179817    0.0816267    0.0856987
h     4.5703787   -0.8110888   -2.7700092  0.00   -0.0040862    0.0148056    0.0377418
    27
 Energy =       0.2662612641
c    -1.4097981    2.5848938   -0.0079140  0.00   -0.0363144    0.0301070    0.0020623
c    -1.2973946    1.2006261   -0.0576920  0.00   -0.0673559   -0.0258546    0.0014963
c    -0.0206244    0.6570041   -0.1145481  0.00   -0.0697394   -0.1454897    0.0008770
c    -0.2811426    3.3902471   -0.0250016  0.00   -0.0184040    0.0543874    0.0021638
c     0.9900021    2.8266557   -0.0934197  0.00    0.0084121    0.0504745    0.0005329
c     1.1215573    1.4340209   -0.1357529  0.00    0.0409925    0.0416202    0.0018202
n     0.3625645   -0.6675458   -0.2169368  0.00    0.1167358    0.0825939   -0.0063802
c     2.2426080    0.5692617   -0.2197253  0.00    0.1179633   -0.0518356   -0.0119666
c     1.7455880   -0.7140289   -0.2373925  0.00   -0.0654364   -0.0747565    0.0028256
h    -0.2677184   -1.4674102   -0.2455792  0.00    0.0278632    0.0369253   -0.0005109
c     3.6777121    1.0267699   -0.3651670  0.00    0.0079985   -0.0395737   -0.0352162
c     4.7556371    0.0168276    0.0683523  0.00   -0.0150989    0.1209752   -0.0433090
h     3.8063583    1.9486891    0.2241234  0.00   -0.0036810   -0.0053942   -0.0080922
h     3.8376584    1.3133767   -1.4187778  0.00    0.0000043   -0.0127928    0.0062420
c     4.8582315   -1.0962523   -0.9853351  0.00    0.1791519   -0.2455018   -0.0434790
n     4.4705839   -0.6175647    1.4020059  0.00   -0.0011158   -0.0485646    0.0586133
h     5.7458536    0.5003259    0.1081068  0.00   -0.0088519   -0.0125840    0.0119086
h     5.2731275   -0.3988805    2.0161185  0.00   -0.0162646    0.0065251   -0.0184950
h     3.6793314   -0.1245291    1.8413052  0.00    0.0181470   -0.0040111   -0.0230624
h    -2.3956974    3.0414441    0.0397845  0.00   -0.0008036    0.0002675    0.0000837
h    -2.1805471    0.5701100   -0.0581455  0.00   -0.0030152    0.0028153    0.0000852
h    -0.3877923    4.4716153    0.0127008  0.00    0.0006876    0.0003714    0.0002820
h     1.8661711    3.4681007   -0.1107595  0.00   -0.0003511    0.0020598    0.0006167
h     2.2546297   -1.6663187   -0.3071506  0.00   -0.0326404   -0.0089075    0.0016966
o     5.6766855   -2.0457963   -0.9367074  0.00   -0.1572717    0.1700993    0.0011085
o     3.9367117   -0.9751084   -1.9873493  0.00   -0.0307378    0.0605595    0.0813585
h     4.4779972   -0.7367403   -2.8032945  0.00    0.0091260    0.0154848    0.0167381
    27
 Energy =       0.2688708082
c    -1.3604734    2.6769900   -0.0107473  0.00   -0.0363943    0.0300216    0.0020691
c    -1.2800476    1.2921345   -0.0828724  0.00   -0.0672030   -0.0263206    0.0013251
c    -0.0163082    0.7193188   -0.1258410  0.00   -0.0674826   -0.1400593    0.0015205
c    -0.2122381    3.4548609   -0.0011293  0.00   -0.0180419    0.0544753    0.0021450
c     1.0469284    2.8615171   -0.0595466  0.00    0.0087419    0.0503350    0.0005215
c     1.1462482    1.4662587   -0.1159260  0.00    0.0408588    0.0420163    0.0018918
n     0.3255123   -0.6080109   -0.3015807  0.00    0.1101353    0.0796269   -0.0068149
c     2.2459350    0.5704481   -0.1943954  0.00    0.1169592   -0.0511474   -0.0114001
c     1.7088219   -0.6998109   -0.2220866  0.00   -0.0579536   -0.0730756    0.0031630
h    -0.3341724   -1.3825542   -0.4043323  0.00    0.0238684    0.0323055   -0.0011416
c     3.6961012    0.9813151   -0.3714828  0.00    0.0083535   -0.0386618   -0.0340643
c     4.7525525   -0.0496643    0.0691693  0.00   -0.0145448    0.1201851   -0.0427584
h     3.8627554    1.9181112    0.1862387  0.00   -0.0034841   -0.0042344   -0.0074162
h     3.8486792    1.2263110   -1.4379167  0.00    0.0004200   -0.0123218    0.0053142
c     4.8103094   -1.1928015   -0.9591511  0.00    0.1805736   -0.2433014   -0.0402876
n     4.4716873   -0.6442162    1.4217134  0.00   -0.0014521   -0.0488381    0.0585328
h     5.7580628    0.4050861    0.0801770  0.00   -0.0079578   -0.0119855    0.0115224
h     5.2825291   -0.4178423    2.0225957  0.00   -0.0159606    0.0065217   -0.0180470
h     3.6919883   -0.1269993    1.8550871  0.00    0.0175489   -0.0036996   -0.0224555
h    -2.3362471    3.1565100    0.0263455  0.00   -0.0011889    0.0003696    0.0000924
h    -2.1786163    0.6830511   -0.1204206  0.00   -0.0038549    0.0021313    0.0000182
h    -0.2933307    4.5383129    0.0495576  0.00    0.0007087    0.0008111    0.0002964
h     1.9387796    3.4820248   -0.0553196  0.00    0.0001283    0.0024029    0.0006097
h     2.1867166   -1.6712774   -0.2702388  0.00   -0.0312287   -0.0094925    0.0009129
o     5.6259204   -2.1466099   -0.9166766  0.00   -0.1559256    0.1681816    0.0008282
o     3.8308582   -1.1158085   -1.9141122  0.00   -0.0362862    0.0577464    0.0797721
h     4.3193417   -0.8668612   -2.7612599  0.00    0.0106624    0.0160073    0.0138503
    27
 Energy =       0.2614216736
c    -1.3915167    2.6107496   -0.0147463  0.00   -0.0349590    0.0288468    0.0019876
c    -1.2906591    1.2269383   -0.0731170  0.00   -0.0645077   -0.0254637    0.0011833
c    -0.0198898    0.6731727   -0.1235665  0.00   -0.0639109   -0.1321646    0.0013374
c    -0.2558336    3.4058804   -0.0199497  0.00   -0.0171737    0.0523695    0.0020662
c     1.0099762    2.8315851   -0.0831199  0.00    0.0085695    0.0482702    0.0005162
c     1.1280002    1.4394527   -0.1315122  0.00    0.0391044    0.0406389    0.0018363
n     0.3436726   -0.6591710   -0.2489614  0.00    0.1024956    0.0753945   -0.0060605
c     2.2410585    0.5683778   -0.2125041  0.00    0.1117700   -0.0489355   -0.0107201
c     1.7354633   -0.7120558   -0.2391164  0.00   -0.0520985   -0.0692982    0.0027597
h    -0.2997816   -1.4555108   -0.2994656  0.00    0.0210684    0.0287357   -0.0011555
c     3.6828734    1.0147759   -0.3597241  0.00    0.0082206   -0.0369915   -0.0321056
c     4.7532568   -0.0051078    0.0726593  0.00   -0.0138285    0.1151381   -0.0407854
h     3.8214542    1.9385483    0.2289959  0.00   -0.0032291   -0.0032839   -0.0066234
h     3.8459862    1.2956424   -1.4162143  0.00    0.0006762   -0.0114796    0.0044662
c     4.8428580   -1.1274561   -0.9742503  0.00    0.1742194   -0.2329484   -0.0371602
n     4.4687221   -0.6246061    1.4127417  0.00   -0.0013855   -0.0471772    0.0560469
h     5.7495602    0.4707159    0.1019052  0.00   -0.0072548   -0.0112257    0.0109253
h     5.2725904   -0.4023651    2.0254571  0.00   -0.0151733    0.0062890   -0.0171195
h     3.6760750   -0.1294117    1.8506041  0.00    0.0164011   -0.0033282   -0.0211781
h    -2.3742420    3.0756065    0.0280489  0.00   -0.0012910    0.0004019    0.0000927
h    -2.1799358    0.6029834   -0.0879802  0.00   -0.0040328    0.0017818    0.0000035
h    -0.3530094    4.4884693    0.0229356  0.00    0.0006881    0.0009479    0.0002902
h     1.8926528    3.4653303   -0.0911598  0.00    0.0002971    0.0024227    0.0005848
h     2.2438853   -1.6668038   -0.3083358  0.00   -0.0291890   -0.0096790    0.0005603
o     5.6692897   -2.0789057   -0.9228907  0.00   -0.1492338    0.1607903    0.0007198
o     3.9043155   -1.0289330   -1.9700268  0.00   -0.0396149    0.0527046    0.0791804
h     4.4214717   -0.7081081   -2.7808583  0.00    0.0133724    0.0172439    0.0083514
    27
 Energy =       0.2598693945
c    -1.4015176    2.5809343   -0.0160465  0.00   -0.0338532    0.0279392    0.0019244
c    -1.2934120    1.1981611   -0.0707447  0.00   -0.0624665   -0.0246691    0.0011356
c    -0.0209254    0.6512435   -0.1231710  0.00   -0.0618496   -0.1278176    0.0012595
c    -0.2705353    3.3816714   -0.0253463  0.00   -0.0166130    0.0507202    0.0020030
c     0.9970145    2.8140563   -0.0898343  0.00    0.0083253    0.0467338    0.0005037
c     1.1209603    1.4237256   -0.1358505  0.00    0.0378458    0.0393874    0.0017835
n     0.3501764   -0.6819924   -0.2359433  0.00    0.0990307    0.0729209   -0.0057977
c     2.2380204    0.5623900   -0.2173854  0.00    0.1082018   -0.0473746   -0.0103554
c     1.7439496   -0.7211696   -0.2431082  0.00   -0.0502168   -0.0670378    0.0026180
h    -0.2867991   -1.4852282   -0.2735088  0.00    0.0202683    0.0276505   -0.0011117
c     3.6759662    1.0222360   -0.3586966  0.00    0.0079744   -0.0358996   -0.0311452
c     4.7552610    0.0094016    0.0684289  0.00   -0.0134644    0.1113987   -0.0394927
h     3.8052321    1.9411658    0.2403440  0.00   -0.0031269   -0.0030874   -0.0063636
h     3.8381063    1.3172076   -1.4110422  0.00    0.0008337   -0.0114776    0.0039313
c     4.8540592   -1.1111211   -0.9791182  0.00    0.1690909   -0.2252545   -0.0362783
n     4.4773701   -0.6120402    1.4081994  0.00   -0.0012909   -0.0457636    0.0542199
h     5.7474228    0.4946652    0.0965103  0.00   -0.0069799   -0.0108369    0.0105710
h     5.2805697   -0.3850144    2.0208041  0.00   -0.0146680    0.0060970   -0.0165636
h     3.6793257   -0.1269277    1.8487424  0.00    0.0157892   -0.0031695   -0.0204582
h    -2.3865779    3.0406611    0.0282952  0.00   -0.0012667    0.0003963    0.0000903
h    -2.1791418    0.5691310   -0.0796574  0.00   -0.0039352    0.0017030    0.0000027
h    -0.3732947    4.4638326    0.0153892  0.00    0.0006674    0.0009368    0.0002817
h     1.8764628    3.4521981   -0.1012514  0.00    0.0003084    0.0023551    0.0005659
h     2.2636032   -1.6695376   -0.3166677  0.00   -0.0281996   -0.0094382    0.0005233
o     5.6942930   -2.0552358   -0.9233315  0.00   -0.1443349    0.1556905    0.0005461
o     3.9271946   -1.0152655   -1.9866179  0.00   -0.0492024    0.0420884    0.0911362
h     4.4255097   -0.5493550   -2.7535430  0.00    0.0231320    0.0258085   -0.0055295
    27
 Energy =       0.2442787415
c    -1.4228322    2.5202169    0.0002390  0.00   -0.0287592    0.0238043    0.0016181
c    -1.2962244    1.1415205   -0.0326271  0.00   -0.0531083   -0.0212895    0.0007663
c    -0.0224511    0.6124808   -0.0973344  0.00   -0.0515042   -0.1053972   -0.0000280
c    -0.3049239    3.3341278   -0.0357427  0.00   -0.0137955    0.0432524    0.0017590
c     0.9645003    2.7832430   -0.1099996  0.00    0.0073818    0.0396796    0.0005280
c     1.1007011    1.3998355   -0.1403568  0.00    0.0320428    0.0340594    0.0015718
n     0.3644194   -0.7283582   -0.1458348  0.00    0.0795789    0.0602215   -0.0028779
c     2.2246317    0.5679381   -0.2275080  0.00    0.0921551   -0.0400373   -0.0086330
c     1.7650134   -0.7232901   -0.2417773  0.00   -0.0375408   -0.0550909    0.0007810
h    -0.2550634   -1.5524132   -0.1147556  0.00    0.0145677    0.0199071   -0.0005027
c     3.6529817    1.0596665   -0.3564241  0.00    0.0067036   -0.0303063   -0.0261591
c     4.7508003    0.0553033    0.0481757  0.00   -0.0110371    0.0943276   -0.0332144
h     3.7661320    1.9647488    0.2691470  0.00   -0.0026859   -0.0021489   -0.0051128
h     3.8103165    1.3833833   -1.4030264  0.00    0.0008668   -0.0097391    0.0027733
c     4.8708663   -1.0389574   -1.0189927  0.00    0.1444357   -0.1908266   -0.0294879
n     4.4915313   -0.5835677    1.3802856  0.00   -0.0000143   -0.0400857    0.0453181
h     5.7329949    0.5638579    0.0760636  0.00   -0.0056765   -0.0090142    0.0088549
h     5.2868465   -0.3396356    2.0001132  0.00   -0.0121139    0.0053386   -0.0139160
h     3.6690326   -0.1425780    1.8295077  0.00    0.0116578   -0.0019150   -0.0164820
h    -2.4133061    2.9670804    0.0541210  0.00   -0.0012362    0.0003543    0.0000778
h    -2.1721076    0.4987052   -0.0074629  0.00   -0.0039225    0.0009779    0.0000118
h    -0.4213201    4.4154227   -0.0088629  0.00    0.0006179    0.0009998    0.0002462
h     1.8362427    3.4313599   -0.1441397  0.00    0.0005564    0.0021777    0.0004799
h     2.3224177   -1.6488752   -0.3374878  0.00   -0.0228383   -0.0086563   -0.0001360
o     5.7162935   -2.0028738   -0.9490461  0.00   -0.1222819    0.1316499    0.0008745
o     3.9884142   -0.9216630   -2.0678094  0.00   -0.0455659    0.0336320    0.0781726
h     4.5323867   -0.5068846   -2.8326161  0.00    0.0215159    0.0241249   -0.0072834
    27
 Energy =       0.2309389941
c    -1.4088156    2.5267107    0.0430867  0.00   -0.0229434    0.0187240    0.0012708
c    -1.2848038    1.1519973    0.0361199  0.00   -0.0420807   -0.0172155    0.0003936
c    -0.0200044    0.6208139   -0.0406916  0.00   -0.0403801   -0.0823532   -0.0009938
c    -0.2919488    3.3345803   -0.0279670  0.00   -0.0106435    0.0344136    0.0014957
c     0.9699139    2.7796508   -0.1153019  0.00    0.0060130    0.0316264    0.0005806
c     1.0963086    1.4017084   -0.1216357  0.00    0.0254408    0.0272311    0.0013602
n     0.3557625   -0.7291409   -0.0445568  0.00    0.0614574    0.0469048   -0.0009594
c     2.2106415    0.5779385   -0.2173454  0.00    0.0730030   -0.0313287   -0.0066873
c     1.7584419   -0.7118977   -0.2001090  0.00   -0.0282520   -0.0430143   -0.0002498
h    -0.2629387   -1.5556280    0.0385199  0.00    0.0101983    0.0140159   -0.0000037
c     3.6380910    1.0672062   -0.3886257  0.00    0.0055913   -0.0242260   -0.0208756
c     4.7462707    0.0601865   -0.0104978  0.00   -0.0088393    0.0751391   -0.0275107
h     3.7741716    1.9758487    0.2294041  0.00   -0.0020143   -0.0015006   -0.0038444
h     3.7667349    1.3791163   -1.4452180  0.00    0.0008929   -0.0081119    0.0013176
c     4.8370581   -1.0429496   -1.0673232  0.00    0.1146420   -0.1494949   -0.0240833
n     4.5370947   -0.5484192    1.3411916  0.00   -0.0010703   -0.0340228    0.0362889
h     5.7294921    0.5722427   -0.0312039  0.00   -0.0035014   -0.0066419    0.0068119
h     5.3328220   -0.2545053    1.9446486  0.00   -0.0077214    0.0048859   -0.0096843
h     3.6972432   -0.1436389    1.7985424  0.00    0.0079955   -0.0008549   -0.0128053
h    -2.3971414    2.9766537    0.1069470  0.00   -0.0010694    0.0002376    0.0000598
h    -2.1598156    0.5100481    0.0952430  0.00   -0.0035497    0.0003668    0.0000285
h    -0.4048313    4.4165924   -0.0200869  0.00    0.0005661    0.0009987    0.0002013
h     1.8436620    3.4230484   -0.1797921  0.00    0.0008237    0.0020217    0.0003681
h     2.3301928   -1.6284230   -0.3027416  0.00   -0.0179903   -0.0069107   -0.0002455
o     5.6769741   -2.0398169   -0.9822162  0.00   -0.0968984    0.1031098    0.0009660
o     3.9506266   -0.9444917   -2.1181333  0.00   -0.0462395    0.0208803    0.0756717
h     4.5170911   -0.6656377   -2.9344087  0.00    0.0265700    0.0251197   -0.0188718
    27
 Energy =       0.2251122105
c    -1.3836206    2.5605691    0.0856590  0.00   -0.0200557    0.0159431    0.0011137
c    -1.2702149    1.1875579    0.1071285  0.00   -0.0362292   -0.0152160    0.0002367
c    -0.0148625    0.6455144    0.0189375  0.00   -0.0345770   -0.0702163   -0.0013262
c    -0.2626833    3.3560701   -0.0239417  0.00   -0.0088066    0.0298496    0.0013291
c     0.9903533    2.7889248   -0.1246419  0.00    0.0053918    0.0275064    0.0005741
c     1.1022612    1.4131961   -0.1029954  0.00    0.0220234    0.0235276    0.0012320
n     0.3447572   -0.7106882    0.0516433  0.00    0.0518707    0.0397547   -0.0002335
c     2.2041166    0.5836933   -0.2072687  0.00    0.0621977   -0.0264639   -0.0055283
c     1.7455605   -0.7015233   -0.1502209  0.00   -0.0237587   -0.0370150   -0.0005820
h    -0.2787941   -1.5309577    0.1792696  0.00    0.0077051    0.0107121    0.0002872
c     3.6321077    1.0562386   -0.4361605  0.00    0.0055045   -0.0208602   -0.0177526
c     4.7436299    0.0443692   -0.0748837  0.00   -0.0078277    0.0654754   -0.0248886
h     3.7997214    1.9768137    0.1583041  0.00   -0.0014518   -0.0006587   -0.0028066
h     3.7286278    1.3414795   -1.5053828  0.00    0.0009593   -0.0068815    0.0001596
c     4.7890993   -1.0878367   -1.1041219  0.00    0.0989163   -0.1275607   -0.0206640
n     4.5843975   -0.5175601    1.3025619  0.00   -0.0029907   -0.0309981    0.0327189
h     5.7307528    0.5478010   -0.1525890  0.00   -0.0016046   -0.0048888    0.0054892
h     5.3866418   -0.1795738    1.8778473  0.00   -0.0048571    0.0048541   -0.0068480
h     3.7418058   -0.1267488    1.7692326  0.00    0.0066475   -0.0005525   -0.0109252
h    -2.3669390    3.0198922    0.1589968  0.00   -0.0010544    0.0001772    0.0000593
h    -2.1482016    0.5532578    0.1999943  0.00   -0.0035096   -0.0001141    0.0000668
h    -0.3662353    4.4391198   -0.0376166  0.00    0.0005734    0.0011605    0.0001667
h     1.8685913    3.4225922   -0.2218495  0.00    0.0011742    0.0021337    0.0002744
h     2.3143732   -1.6202139   -0.2528941  0.00   -0.0155024   -0.0059920   -0.0002376
o     5.6215968   -2.1053605   -1.0054214  0.00   -0.0831228    0.0875842    0.0006840
o     3.8752166   -1.0224420   -2.1371229  0.00   -0.0436146    0.0155670    0.0686650
h     4.4262347   -0.8243909   -2.9866156  0.00    0.0259991    0.0231720   -0.0212641
    27
 Energy =       0.2234476031
c    -1.3534259    2.6060212    0.1253169  0.00   -0.0191291    0.0147353    0.0010887
c    -1.2531577    1.2338777    0.1815335  0.00   -0.0338192   -0.0147535    0.0002232
c    -0.0069051    0.6772507    0.0822150  0.00   -0.0321175   -0.0646582   -0.0015211
c    -0.2271540    3.3862463   -0.0287709  0.00   -0.0076933    0.0282070    0.0012080
c     1.0167308    2.8034486   -0.1431572  0.00    0.0053621    0.0260885    0.0005189
c     1.1137180    1.4286433   -0.0873419  0.00    0.0207380    0.0220887    0.0011379
n     0.3370489   -0.6822894    0.1589959  0.00    0.0470988    0.0362527    0.0002038
c     2.2023494    0.5863855   -0.1992799  0.00    0.0571676   -0.0239846   -0.0049065
c     1.7320808   -0.6920192   -0.0925507  0.00   -0.0216020   -0.0346857   -0.0007802
h    -0.2916621   -1.4914523    0.3380227  0.00    0.0057426    0.0081686    0.0006953
c     3.6290764    1.0342044   -0.4949819  0.00    0.0061311   -0.0193708   -0.0161381
c     4.7407628    0.0180252   -0.1424444  0.00   -0.0073939    0.0619449   -0.0241148
h     3.8309768    1.9717611    0.0638539  0.00   -0.0009152    0.0004425   -0.0018967
h     3.6905761    1.2821800   -1.5776487  0.00    0.0011177   -0.0061182   -0.0011849
c     4.7347373   -1.1511907   -1.1334456  0.00    0.0929239   -0.1183790   -0.0185629
n     4.6297418   -0.4909595    1.2604733  0.00   -0.0048649   -0.0303471    0.0322695
h     5.7313753    0.5058041   -0.2783396  0.00    0.0000158   -0.0036125    0.0046041
h     5.4431181   -0.1174471    1.8001866  0.00   -0.0028645    0.0052058   -0.0049729
h     3.7939271   -0.0978994    1.7381884  0.00    0.0061221   -0.0004587   -0.0098757
h    -2.3303737    3.0773436    0.2080681  0.00   -0.0011575    0.0001439    0.0000734
h    -2.1349171    0.6107487    0.3132004  0.00   -0.0038914   -0.0006826    0.0001590
h    -0.3197013    4.4699601   -0.0685662  0.00    0.0006579    0.0015148    0.0001258
h     1.8994769    3.4248946   -0.2776180  0.00    0.0017027    0.0025082    0.0001651
h     2.2889387   -1.6187871   -0.1910275  0.00   -0.0144441   -0.0057505   -0.0002135
o     5.5635566   -2.1776780   -1.0265070  0.00   -0.0770614    0.0807383    0.0003961
o     3.7790605   -1.1246410   -2.1333457  0.00   -0.0430331    0.0128455    0.0630711
h     4.2983390   -0.9626377   -3.0091812  0.00    0.0252069    0.0219163   -0.0217727
    27
 Energy =       0.2214636754
c    -1.3798012    2.5650174    0.0974073  0.00   -0.0192996    0.0145879    0.0011153
c    -1.2691389    1.1921525    0.1181332  0.00   -0.0335128   -0.0151754    0.0002744
c    -0.0165218    0.6485789    0.0264695  0.00   -0.0317117   -0.0630836   -0.0015211
c    -0.2574440    3.3588865   -0.0151342  0.00   -0.0071458    0.0283145    0.0011431
c     0.9934192    2.7899315   -0.1186681  0.00    0.0056170    0.0263178    0.0004604
c     1.1006642    1.4148254   -0.0973323  0.00    0.0207168    0.0221226    0.0010827
n     0.3368175   -0.7122540    0.0539597  0.00    0.0455195    0.0349988    0.0002921
c     2.1997565    0.5873065   -0.2043501  0.00    0.0559226   -0.0231683   -0.0046839
c     1.7411013   -0.6987301   -0.1494590  0.00   -0.0208637   -0.0345545   -0.0008655
h    -0.2899106   -1.5348370    0.1792696  0.00    0.0041625    0.0060832    0.0009813
c     3.6308019    1.0615155   -0.4344442  0.00    0.0070295   -0.0191444   -0.0155001
c     4.7423523    0.0452851   -0.0830554  0.00   -0.0071477    0.0620476   -0.0241183
h     3.8033648    1.9798421    0.1672431  0.00   -0.0004858    0.0016037   -0.0010543
h     3.7259063    1.3522873   -1.5053373  0.00    0.0013695   -0.0056101   -0.0025887
c     4.7817934   -1.0868509   -1.1165913  0.00    0.0934016   -0.1172515   -0.0172525
n     4.5918080   -0.5134159    1.2988411  0.00   -0.0062893   -0.0312703    0.0330796
h     5.7313248    0.5504737   -0.1694843  0.00    0.0011262   -0.0027758    0.0042127
h     5.3931912   -0.1654766    1.8740884  0.00   -0.0016236    0.0056533   -0.0037794
h     3.7441167   -0.1346284    1.7679848  0.00    0.0058621   -0.0004091   -0.0092937
h    -2.3623918    3.0258399    0.1731748  0.00   -0.0012719    0.0001234    0.0000850
h    -2.1485374    0.5578903    0.2124175  0.00   -0.0044179   -0.0012260    0.0002257
h    -0.3585091    4.4428102   -0.0288511  0.00    0.0007639    0.0019047    0.0001046
h     1.8736421    3.4224666   -0.2184577  0.00    0.0021955    0.0029434    0.0001027
h     2.3142020   -1.6148829   -0.2554780  0.00   -0.0142199   -0.0059286   -0.0002450
o     5.6019991   -2.1213737   -1.0060798  0.00   -0.0757714    0.0794877    0.0004891
o     3.8761678   -1.0186112   -2.1625084  0.00   -0.0462959    0.0115186    0.0606515
h     4.4381197   -0.8842547   -3.0179095  0.00    0.0263704    0.0218903   -0.0233977
    27
 Energy =       0.2172470691
c    -1.4045823    2.5235851    0.0665245  0.00   -0.0181206    0.0134910    0.0010606
c    -1.2822266    1.1521357    0.0543060  0.00   -0.0309629   -0.0144962    0.0003382
c    -0.0247447    0.6219012   -0.0297288  0.00   -0.0292088   -0.0573057   -0.0011983
c    -0.2878802    3.3293006   -0.0070156  0.00   -0.0061892    0.0264812    0.0009923
c     0.9685522    2.7739322   -0.0990110  0.00    0.0055038    0.0247152    0.0003495
c     1.0859202    1.4009355   -0.1092896  0.00    0.0192318    0.0207048    0.0009455
n     0.3385782   -0.7390578   -0.0503852  0.00    0.0408482    0.0315201    0.0001157
c     2.1941490    0.5905763   -0.2087972  0.00    0.0508919   -0.0210019   -0.0041983
c     1.7513935   -0.7010882   -0.2037736  0.00   -0.0186323   -0.0320411   -0.0008166
h    -0.2840227   -1.5734202    0.0205164  0.00    0.0023223    0.0035763    0.0010577
c     3.6267008    1.0900567   -0.3702294  0.00    0.0074522   -0.0177106   -0.0137327
c     4.7394416    0.0735371   -0.0232124  0.00   -0.0062665    0.0577054   -0.0219115
h     3.7684605    1.9853630    0.2753498  0.00   -0.0000418    0.0027412   -0.0000154
h     3.7542597    1.4266164   -1.4257086  0.00    0.0015931   -0.0046232   -0.0038931
c     4.8274924   -1.0192205   -1.0955650  0.00    0.0884377   -0.1082310   -0.0143273
n     4.5562160   -0.5306157    1.3355200  0.00   -0.0066894   -0.0300246    0.0310986
h     5.7235557    0.5963576   -0.0636168  0.00    0.0020126   -0.0018194    0.0036253
h     5.3407721   -0.2002240    1.9447597  0.00   -0.0005209    0.0056502   -0.0025049
h     3.6913288   -0.1771800    1.7952695  0.00    0.0048222   -0.0002484   -0.0078147
h    -2.3925198    2.9740221    0.1350602  0.00   -0.0012941    0.0001009    0.0000896
h    -2.1577558    0.5077557    0.1129705  0.00   -0.0045891   -0.0016281    0.0002547
h    -0.3980927    4.4125468    0.0029325  0.00    0.0008032    0.0021041    0.0000839
h     1.8453670    3.4160564   -0.1660305  0.00    0.0024791    0.0031174    0.0000513
h     2.3451431   -1.6039525   -0.3130717  0.00   -0.0128909   -0.0057053   -0.0003192
o     5.6306982   -2.0726821   -0.9706280  0.00   -0.0691510    0.0727349    0.0010440
o     3.9865396   -0.9040691   -2.1938837  0.00   -0.0504910    0.0096352    0.0560847
h     4.5955501   -0.8433747   -3.0274138  0.00    0.0286504    0.0205576   -0.0264594
    27
 Energy =       0.2116700791
c    -1.4249039    2.4862725    0.0316951  0.00   -0.0155242    0.0114140    0.0009212
c    -1.2908096    1.1181803   -0.0073968  0.00   -0.0261954   -0.0125701    0.0003931
c    -0.0304974    0.6003333   -0.0835628  0.00   -0.0247023   -0.0478883   -0.0006749
c    -0.3148188    3.3010013   -0.0082865  0.00   -0.0049274    0.0226219    0.0007707
c     0.9452346    2.7575971   -0.0886872  0.00    0.0049263    0.0211574    0.0002062
c     1.0713569    1.3887485   -0.1246106  0.00    0.0162685    0.0177199    0.0007373
n     0.3420917   -0.7597975   -0.1420788  0.00    0.0335018    0.0261886   -0.0002146
c     2.1861821    0.5959798   -0.2140519  0.00    0.0423839   -0.0175880   -0.0035510
c     1.7615428   -0.6988444   -0.2503294  0.00   -0.0152277   -0.0271401   -0.0006395
h    -0.2746405   -1.6029043   -0.1173434  0.00    0.0008806    0.0015569    0.0009273
c     3.6174574    1.1161906   -0.3119925  0.00    0.0070308   -0.0150728   -0.0111109
c     4.7327884    0.1005227    0.0322459  0.00   -0.0049163    0.0486802   -0.0176089
h     3.7298178    1.9888601    0.3709364  0.00    0.0002664    0.0033128    0.0007971
h     3.7734325    1.4932251   -1.3507733  0.00    0.0016345   -0.0034330   -0.0044609
c     4.8686564   -0.9590754   -1.0668598  0.00    0.0775139   -0.0909066   -0.0103180
n     4.5263230   -0.5351657    1.3709321  0.00   -0.0054003   -0.0265195    0.0256086
h     5.7097284    0.6394672    0.0283390  0.00    0.0023507   -0.0010547    0.0029238
h     5.2860252   -0.2036487    2.0115313  0.00    0.0004741    0.0052310   -0.0013063
h     3.6364473   -0.2205649    1.8152263  0.00    0.0025273    0.0001737   -0.0054543
h    -2.4174188    2.9274315    0.0929372  0.00   -0.0011915    0.0000792    0.0000852
h    -2.1614223    0.4654608    0.0210432  0.00   -0.0042512   -0.0017262    0.0002465
h    -0.4337651    4.3829198    0.0208096  0.00    0.0007520    0.0020164    0.0000611
h     1.8182679    3.4070718   -0.1273403  0.00    0.0024369    0.0029179    0.0000117
h     2.3774453   -1.5876048   -0.3566934  0.00   -0.0105646   -0.0050063   -0.0003620
o     5.6434556   -2.0429723   -0.9132471  0.00   -0.0572299    0.0600822    0.0023244
o     4.1060138   -0.7989581   -2.2196001  0.00   -0.0551700    0.0087632    0.0505179
h     4.7543033   -0.8499325   -3.0269938  0.00    0.0323531    0.0169903   -0.0308309
    27
 Energy =       0.2063144095
c    -1.4397739    2.4561646   -0.0126938  0.00   -0.0120251    0.0087073    0.0007298
c    -1.2950323    1.0925465   -0.0722563  0.00   -0.0200830   -0.0098015    0.0004164
c    -0.0336601    0.5852401   -0.1390198  0.00   -0.0189794   -0.0364599   -0.0001915
c    -0.3362441    3.2770068   -0.0236344  0.00   -0.0035444    0.0174671    0.0005286
c     0.9257446    2.7432440   -0.0918804  0.00    0.0039911    0.0163273    0.0000718
c     1.0587404    1.3795309   -0.1473061  0.00    0.0124210    0.0137038    0.0005001
n     0.3461844   -0.7739927   -0.2223275  0.00    0.0247944    0.0198615   -0.0004810
c     2.1774994    0.6026815   -0.2243107  0.00    0.0320127   -0.0133368   -0.0028716
c     1.7703336   -0.6933257   -0.2918513  0.00   -0.0112925   -0.0207498   -0.0004226
h    -0.2642750   -1.6230177   -0.2326207  0.00    0.0000446    0.0003469    0.0007062
c     3.6060671    1.1374143   -0.2688198  0.00    0.0057840   -0.0115474   -0.0082123
c     4.7233978    0.1257756    0.0869740  0.00   -0.0034996    0.0368803   -0.0123201
h     3.6910931    1.9952781    0.4364611  0.00    0.0003723    0.0030276    0.0010689
h     3.7883078    1.5387617   -1.2941308  0.00    0.0014077   -0.0024034   -0.0040365
c     4.9054365   -0.9194308   -1.0171844  0.00    0.0621670   -0.0673483   -0.0060107