    27
 Energy =       1.0771174865
c    -1.4235396    2.6054793   -0.0667700  0.00   -0.0456794    0.0388973    0.0029322
c    -1.3072796    1.2134697   -0.1072300  0.00   -0.0854918   -0.0326259    0.0020543
c    -0.0178900    0.6711998   -0.1697000  0.00   -0.0891250   -0.1888563   -0.0013338
c    -0.2940599    3.4190890   -0.0891300  0.00   -0.0115833    0.0701248    0.0051790
c     0.9872197    2.8590292   -0.1560400  0.00    0.3424242    0.0040613    0.1296577
c     1.1340797    1.4562096   -0.1970299  0.00    0.0954450    0.0937539    0.0146793
n     0.3879399   -0.6395298   -0.2140799  0.00    0.1421492    0.1093174   -0.0031827
c     2.2666594    0.5727398   -0.2659299  0.00    0.1533097   -0.0813352   -0.0284406
c     1.7555995   -0.7123598   -0.2706899  0.00   -0.1010392   -0.0976582    0.0040693
h    -0.2400399   -1.4313496   -0.2047299  0.00    0.0368529    0.0478379   -0.0005596
c     3.7030089    1.0223397   -0.3320099  0.00   -0.0392120    0.0295108    0.0197764
c     4.0547688    2.2615794    0.5049969  0.00   -0.0578073   -0.0342296    0.1431826
h     3.9407589    1.2278196   -1.3843196  0.00   -0.0027014   -0.0079925    0.0134879
h     4.3455988    0.1801669   -0.0411573  0.00   -0.0117436    0.0044360   -0.0079347
c     2.9727892    3.3351790    0.2854279  0.00   -0.0898963   -0.2186928   -0.0352510
n     5.3813085    2.8752092    0.1415580  0.00    0.0594076    0.1053221    0.0056075
h     4.0661188    2.0288794    1.5763396  0.00   -0.1336454    0.1275193    0.0396504
h     5.1879785    3.8105889   -0.2309739  0.00   -0.0302860   -0.0408049    0.0300588
h     5.8882183    3.0583491    1.0146997  0.00   -0.0235765   -0.0055200   -0.0256120
h    -2.4108593    3.0588691   -0.0157800  0.00   -0.0007940    0.0000755   -0.0000910
h    -2.1896094    0.5822398   -0.0890100  0.00   -0.0035264    0.0038576    0.0000335
h    -0.4052699    4.5000487   -0.0535400  0.00   -0.0019820   -0.0004977   -0.0005958
h     1.8590495    3.5066790   -0.1715100  0.00    0.0321723    0.4983626    0.3934582
h     2.2327294   -1.6813195   -0.3062999  0.00   -0.0405442   -0.0111230    0.0023954
o     2.7320592    3.8947389   -0.7713858  0.00   -0.0670118   -0.1042029   -0.2390676
o     2.2961393    3.5939090    1.4368496  0.00   -0.2114169   -0.1941987   -0.3133133
h     2.7223592    3.0143291    2.1202394  0.00    0.1853019   -0.1153389   -0.1508404
    27
 Energy =       0.9960319997
c    -1.4159961    2.6355327   -0.0571304  0.00   -0.0411860    0.0351261    0.0025081
c    -1.3150082    1.2452640   -0.0899607  0.00   -0.0773213   -0.0294986    0.0017640
c    -0.0343520    0.6913357   -0.1277254  0.00   -0.0791548   -0.1681004   -0.0006615
c    -0.2760693    3.4306320   -0.0761949  0.00   -0.0106058    0.0632338    0.0044927
c     0.9921314    2.8465492   -0.1287997  0.00    0.3013865    0.0167317    0.1155922
c     1.1194581    1.4638922   -0.1433811  0.00    0.0934688    0.0912660    0.0145210
n     0.3505082   -0.6276379   -0.2212816  0.00    0.1268602    0.0969471   -0.0037604
c     2.2338467    0.5884352   -0.2144993  0.00    0.1365443   -0.0710758   -0.0251777
c     1.7264579   -0.6947951   -0.2339335  0.00   -0.0900436   -0.0868593    0.0045360
h    -0.2871011   -1.4167295   -0.2523196  0.00    0.0320261    0.0421992   -0.0005143
c     3.6539252    1.0397305   -0.3503648  0.00   -0.0351107    0.0260173    0.0188127
c     4.0516377    2.2691563    0.4794994  0.00   -0.0605226   -0.0438806    0.1243275
h     3.8366278    1.2536396   -1.4142597  0.00   -0.0018967   -0.0080012    0.0110131
h     4.3140920    0.1958971   -0.0964002  0.00   -0.0100113    0.0032739   -0.0059004
c     3.0479482    3.4425886    0.3322800  0.00   -0.0538935   -0.1815033   -0.0150851
n     5.4049324    2.7896453    0.0801444  0.00    0.0542980    0.0896819   -0.0013192
h     4.0826573    2.0244410    1.5425909  0.00   -0.1195214    0.1151512    0.0353158
h     5.2839508    3.7412183   -0.2928271  0.00   -0.0263198   -0.0323054    0.0249150
h     5.9832230    2.8995960    0.9290504  0.00   -0.0149927   -0.0030256   -0.0171551
h    -2.3976854    3.1032180   -0.0251886  0.00   -0.0009531    0.0004798   -0.0002806
h    -2.2044012    0.6234018   -0.0939973  0.00   -0.0035999    0.0036103   -0.0000242
h    -0.3670509    4.5141123   -0.0540893  0.00   -0.0017232    0.0000228   -0.0007931
h     1.8803340    3.4345231   -0.1411431  0.00    0.0206111    0.4045967    0.3535025
h     2.2157412   -1.6567675   -0.2978986  0.00   -0.0368738   -0.0106796    0.0027939
o     2.7064729    3.8610183   -0.7516612  0.00   -0.0647447   -0.0794130   -0.2324049
o     2.2935956    3.5833932    1.4829055  0.00   -0.2045728   -0.1699311   -0.2759065
h     2.7459595    3.0022921    2.1593807  0.00    0.1678527   -0.1040638   -0.1351115
    27
 Energy =       0.9633483151
c    -1.4032010    2.6410736   -0.0231331  0.00   -0.0383175    0.0328497    0.0023068
c    -1.3057041    1.2528141   -0.0773796  0.00   -0.0719320   -0.0276161    0.0016322
c    -0.0297943    0.6971086   -0.1246568  0.00   -0.0739627   -0.1545535   -0.0001514
c    -0.2622271    3.4329911   -0.0336141  0.00   -0.0099289    0.0589386    0.0041214
c     1.0022758    2.8469191   -0.0983693  0.00    0.2811330    0.0167913    0.1094542
c     1.1200726    1.4673409   -0.1365768  0.00    0.0865001    0.0853931    0.0134542
n     0.3498380   -0.6231573   -0.2739729  0.00    0.1184916    0.0886654   -0.0038768
c     2.2297498    0.6011317   -0.2462030  0.00    0.1267135   -0.0655158   -0.0223451
c     1.7303836   -0.6814325   -0.2979151  0.00   -0.0841870   -0.0802718    0.0044900
h    -0.2873657   -1.4146046   -0.3254339  0.00    0.0296289    0.0389468   -0.0005797
c     3.6388171    1.0719337   -0.4205964  0.00   -0.0352624    0.0233540    0.0188796
c     4.0390712    2.2471977    0.4844323  0.00   -0.0581323   -0.0401902    0.1152372
h     3.7708169    1.3713100   -1.4766992  0.00   -0.0014281   -0.0061404    0.0057013
h     4.3234994    0.2193090   -0.2551533  0.00   -0.0068197   -0.0002436   -0.0052366
c     3.0631083    3.4492901    0.3688181  0.00   -0.0498400   -0.1673515   -0.0138831
n     5.4134114    2.7522863    0.1482471  0.00    0.0516040    0.0843029   -0.0033936
h     4.0222541    1.9288744    1.5306227  0.00   -0.1110826    0.1054744    0.0357689
h     5.3246529    3.7117511   -0.2177349  0.00   -0.0244624   -0.0292051    0.0228221
h     5.9503432    2.8456738    1.0286955  0.00   -0.0126103   -0.0026109   -0.0138894
h    -2.3836995    3.1107201    0.0158656  0.00   -0.0009057    0.0004775   -0.0002616
h    -2.1962400    0.6326879   -0.0963077  0.00   -0.0034152    0.0032423   -0.0000397
h    -0.3498022    4.5165672    0.0022141  0.00   -0.0016204    0.0001237   -0.0007382
h     1.8926350    3.4275255   -0.1186086  0.00    0.0182667    0.3741889    0.3274775
h     2.2312005   -1.6338231   -0.4161437  0.00   -0.0335885   -0.0113714    0.0024463
o     2.7201589    3.8826286   -0.6985426  0.00   -0.0593167   -0.0730102   -0.2160528
o     2.3136524    3.5929111    1.5232465  0.00   -0.1946645   -0.1523185   -0.2628209
h     2.7079287    2.9365546    2.1776939  0.00    0.1591393   -0.1023496   -0.1205228
    27
 Energy =       0.9084853401
c    -1.3767813    2.7021362    0.0113766  0.00   -0.0323071    0.0278846    0.0018696
c    -1.3060825    1.3178229   -0.0774848  0.00   -0.0603044   -0.0238468    0.0013155
c    -0.0486568    0.7397181   -0.1341790  0.00   -0.0612158   -0.1252805    0.0017515
c    -0.2220745    3.4699184    0.0187522  0.00   -0.0085101    0.0497889    0.0033055
c     1.0261876    2.8602177   -0.0575697  0.00    0.2381249    0.0195977    0.0989511
c     1.1061075    1.4853348   -0.1276173  0.00    0.0721843    0.0720705    0.0112544
n     0.2937469   -0.5873325   -0.3666903  0.00    0.0999507    0.0702345   -0.0051374
c     2.1931353    0.6151719   -0.2709136  0.00    0.1066376   -0.0537136   -0.0182261
c     1.6833106   -0.6558090   -0.3702125  0.00   -0.0704072   -0.0668698    0.0047353
h    -0.3619232   -1.3670334   -0.4656884  0.00    0.0233918    0.0308477   -0.0010536
c     3.6068292    1.0677922   -0.4607340  0.00   -0.0309253    0.0183969    0.0157151
c     4.0363029    2.1930188    0.4936324  0.00   -0.0501749   -0.0344920    0.0965074
h     3.7230984    1.4167018   -1.5059150  0.00   -0.0013777   -0.0048353    0.0034057
h     4.2839769    0.1980810   -0.3436241  0.00   -0.0049069   -0.0012815   -0.0042800
c     3.1116912    3.4410350    0.4171728  0.00   -0.0408819   -0.1375882   -0.0110059
n     5.4347807    2.6369369    0.1947427  0.00    0.0447475    0.0693166   -0.0034208
h     3.9794233    1.8229128    1.5259397  0.00   -0.0941952    0.0879476    0.0320715
h     5.4068909    3.6077704   -0.1628257  0.00   -0.0202308   -0.0216186    0.0179967
h     5.9592084    2.6869207    1.0896066  0.00   -0.0093782   -0.0021576   -0.0101242
h    -2.3481375    3.1901799    0.0566409  0.00   -0.0009799    0.0005143   -0.0002115
h    -2.2079102    0.7147122   -0.1243710  0.00   -0.0032891    0.0022001   -0.0001139
h    -0.2863162    4.5548715    0.0728234  0.00   -0.0013941    0.0005599   -0.0006004
h     1.9313627    3.4066207   -0.0938248  0.00    0.0133174    0.3062570    0.2688134
h     2.1910138   -1.5992784   -0.5355805  0.00   -0.0278427   -0.0106784    0.0019127
o     2.7699586    3.8937092   -0.6203746  0.00   -0.0478516   -0.0584741   -0.1787404
o     2.3776950    3.6119837    1.5784143  0.00   -0.1725669   -0.1142718   -0.2342692
h     2.6689980    2.8594691    2.2012989  0.00    0.1403859   -0.1005078   -0.0924220
    27
 Energy =       0.9056708804
c    -1.3792290    2.6942060    0.0264759  0.00   -0.0317429    0.0277339    0.0018990
c    -1.3072762    1.3125592   -0.0944457  0.00   -0.0592209   -0.0239745    0.0012051
c    -0.0498361    0.7353761   -0.1481024  0.00   -0.0593685   -0.1191301    0.0029231
c    -0.2251279    3.4617108    0.0590913  0.00   -0.0081609    0.0492064    0.0032535
c     1.0232471    2.8535910   -0.0164647  0.00    0.2339913    0.0196362    0.0972298
c     1.1043595    1.4808232   -0.1095408  0.00    0.0711052    0.0714069    0.0111006
n     0.2938251   -0.5782150   -0.4614777  0.00    0.0972955    0.0656819   -0.0060998
c     2.1927918    0.6157724   -0.2641901  0.00    0.1053817   -0.0519169   -0.0177633
c     1.6840476   -0.6514676   -0.4075958  0.00   -0.0675155   -0.0648845    0.0050939
h    -0.3607975   -1.3514537   -0.6244415  0.00    0.0209098    0.0277120   -0.0016323
c     3.6072976    1.0715289   -0.4469062  0.00   -0.0303414    0.0180969    0.0154351
c     4.0374893    2.1956477    0.5084756  0.00   -0.0492877   -0.0338908    0.0947821
h     3.7260719    1.4222635   -1.4913004  0.00   -0.0013509   -0.0047507    0.0033411
h     4.2848872    0.2020728   -0.3298960  0.00   -0.0048075   -0.0012530   -0.0041998
c     3.1110083    3.4416330    0.4423156  0.00   -0.0400393   -0.1351471   -0.0108161
n     5.4337177    2.6416706    0.2037700  0.00    0.0439601    0.0680537   -0.0034077
h     3.9868790    1.8230186    1.5395992  0.00   -0.0924917    0.0863634    0.0314916
h     5.4036970    3.6144513   -0.1493377  0.00   -0.0198719   -0.0212095    0.0176645
h     5.9641804    2.6871249    1.0955213  0.00   -0.0091851   -0.0021214   -0.0098962
h    -2.3512066    3.1813890    0.0676042  0.00   -0.0009947    0.0004767   -0.0002095
h    -2.2085513    0.7114550   -0.1776449  0.00   -0.0037346    0.0016721   -0.0001958
h    -0.2900204    4.5459922    0.1263708  0.00   -0.0013381    0.0006452   -0.0005862
h     1.9267984    3.4012121   -0.0589085  0.00    0.0129791    0.3007152    0.2640121
h     2.1960733   -1.5889218   -0.5933351  0.00   -0.0275359   -0.0108712    0.0017925
o     2.7603239    3.8953161   -0.5891919  0.00   -0.0469510   -0.0573607   -0.1756330
o     2.3891545    3.6136111    1.6101405  0.00   -0.1695950   -0.1120191   -0.2301108
h     2.6720311    2.8512154    2.2262099  0.00    0.1379113   -0.0988708   -0.0906737
    27
 Energy =       0.8982147538
c    -1.3676028    2.7346203    0.0145897  0.00   -0.0311130    0.0274343    0.0019249
c    -1.3098083    1.3499428   -0.0758358  0.00   -0.0579506   -0.0240097    0.0011024
c    -0.0592439    0.7611198   -0.1349999  0.00   -0.0572139   -0.1122414    0.0035717
c    -0.2060185    3.4921373    0.0207829  0.00   -0.0077969    0.0484637    0.0032073
c     1.0356417    2.8711133   -0.0582044  0.00    0.2288254    0.0196825    0.0950108
c     1.1007446    1.4961427   -0.1298148  0.00    0.0696823    0.0703765    0.0108833
n     0.2654775   -0.5757866   -0.3687249  0.00    0.0941154    0.0606793   -0.0064573
c     2.1785606    0.6177505   -0.2749439  0.00    0.1036404   -0.0500049   -0.0172878
c     1.6590539   -0.6497322   -0.3758856  0.00   -0.0640872   -0.0625212    0.0050544
h    -0.4007076   -1.3533922   -0.4656884  0.00    0.0181409    0.0242615   -0.0019210
c     3.5979152    1.0542890   -0.4639528  0.00   -0.0295762    0.0177243    0.0150660
c     4.0400360    2.1707284    0.4946113  0.00   -0.0482921   -0.0333583    0.0926339
h     3.7189398    1.4056273   -1.5079896  0.00   -0.0013240   -0.0046456    0.0032587
h     4.2654976    0.1766179   -0.3487226  0.00   -0.0046331   -0.0012837   -0.0040893
c     3.1326927    3.4321954    0.4184456  0.00   -0.0390016   -0.1318913   -0.0106042
n     5.4451022    2.5921156    0.1999707  0.00    0.0433348    0.0663071   -0.0033431
h     3.9739684    1.7986863    1.5276215  0.00   -0.0903207    0.0841929    0.0308590
h     5.4360714    3.5642421   -0.1568357  0.00   -0.0193520   -0.0203903    0.0171141
h     5.9692607    2.6302595    1.0960659  0.00   -0.0089086   -0.0020723   -0.0095959
h    -2.3346093    3.2311488    0.0619694  0.00   -0.0010710    0.0004619   -0.0002029
h    -2.2175988    0.7534882   -0.1218648  0.00   -0.0042171    0.0011160   -0.0002451
h    -0.2597970    4.5778002    0.0758976  0.00   -0.0012782    0.0007778   -0.0005696
h     1.9482674    3.4035530   -0.0970263  0.00    0.0123424    0.2937250    0.2579768
h     2.1626861   -1.5957111   -0.5438500  0.00   -0.0270927   -0.0110071    0.0016593
o     2.7935942    3.8857931   -0.6157062  0.00   -0.0456445   -0.0558429   -0.1717408
o     2.4025912    3.6165781    1.5800942  0.00   -0.1661096   -0.1088025   -0.2252325
h     2.6551209    2.8422548    2.1927921  0.00    0.1349013   -0.0971316   -0.0880329
    27
 Energy =       0.8783045137
c    -1.3406075    2.8250960    0.0044181  0.00   -0.0288746    0.0254400    0.0018476
c    -1.3169325    1.4389784   -0.0571256  0.00   -0.0533423   -0.0227214    0.0009292
c    -0.0848405    0.8205518   -0.1246548  0.00   -0.0512667   -0.0981108    0.0033521
c    -0.1612464    3.5543195   -0.0166685  0.00   -0.0070905    0.0450105    0.0030056
c     1.0626578    2.9018579   -0.1014846  0.00    0.2096480    0.0197057    0.0877156
c     1.0881922    1.5258546   -0.1534372  0.00    0.0637529    0.0647072    0.0100379
n     0.1988564   -0.5407210   -0.2779104  0.00    0.0849019    0.0515723   -0.0056760
c     2.1405245    0.6212616   -0.2895957  0.00    0.0953166   -0.0450546   -0.0157606
c     1.5947101   -0.6368617   -0.3485067  0.00   -0.0562926   -0.0565697    0.0041519
h    -0.4903777   -1.3088913   -0.3069353  0.00    0.0137783    0.0189564   -0.0017350
c     3.5731535    1.0123506   -0.4837033  0.00   -0.0267832    0.0162319    0.0135529
c     4.0469118    2.1089500    0.4823641  0.00   -0.0448242   -0.0315421    0.0846746
h     3.7043221    1.3661002   -1.5261726  0.00   -0.0012175   -0.0041999    0.0029144
h     4.2151261    0.1142693   -0.3715513  0.00   -0.0039007   -0.0015982   -0.0036589
c     3.1854682    3.4052277    0.3969502  0.00   -0.0350484   -0.1196208   -0.0098764
n     5.4693003    2.4709038    0.2022282  0.00    0.0411619    0.0593508   -0.0030756
h     3.9527343    1.7369984    1.5187084  0.00   -0.0825729    0.0763453    0.0288033
h     5.5095962    3.4435855   -0.1562224  0.00   -0.0172442   -0.0168337    0.0149017
h     5.9881021    2.4832290    1.1033634  0.00   -0.0076298   -0.0018307   -0.0083254
h    -2.2949820    3.3452793    0.0602869  0.00   -0.0013831    0.0005647   -0.0001661
h    -2.2389680    0.8614573   -0.0646588  0.00   -0.0046977    0.0003367   -0.0002444
h    -0.1870668    4.6418554    0.0274824  0.00   -0.0011537    0.0011901   -0.0005068
h     1.9954210    3.3975004   -0.1398234  0.00    0.0100963    0.2672845    0.2349831
h     2.0824320   -1.5952429   -0.4991538  0.00   -0.0248350   -0.0105721    0.0013739
o     2.8622314    3.8602472   -0.6344158  0.00   -0.0407534   -0.0502956   -0.1566193
o     2.4540183    3.6225041    1.5530164  0.00   -0.1545147   -0.0926258   -0.2103725
h     2.6170990    2.8069216    2.1459972  0.00    0.1247693   -0.0951204   -0.0762270
    27
 Energy =       0.8672237278
c    -1.3101410    2.9317069   -0.0047105  0.00   -0.0275986    0.0240324    0.0017771
c    -1.3277194    1.5459963   -0.0583952  0.00   -0.0503908   -0.0216130    0.0008858
c    -0.1172032    0.8910747   -0.1269952  0.00   -0.0478871   -0.0911681    0.0032057
c    -0.1094523    3.6253479   -0.0329453  0.00   -0.0067865    0.0427644    0.0028574
c     1.0932237    2.9352674   -0.1175626  0.00    0.1957064    0.0193953    0.0823035
c     1.0740184    1.5589779   -0.1623455  0.00    0.0593584    0.0603599    0.0094064
n     0.1190279   -0.4821594   -0.2594322  0.00    0.0790214    0.0474200   -0.0053416
c     2.0971142    0.6210362   -0.2881572  0.00    0.0889084   -0.0421238   -0.0146294
c     1.5143430   -0.6204563   -0.3340045  0.00   -0.0520054   -0.0534997    0.0038123
h    -0.5974997   -1.2276279   -0.2760720  0.00    0.0120302    0.0168639   -0.0016237
c     3.5475767    0.9525171   -0.4740890  0.00   -0.0244208    0.0153462    0.0124568
c     4.0587663    2.0353803    0.4879798  0.00   -0.0424379   -0.0305773    0.0788757
h     3.7021290    1.2941898   -1.5180446  0.00   -0.0009652   -0.0036934    0.0024449
h     4.1535205    0.0298521   -0.3498988  0.00   -0.0031039   -0.0023355   -0.0033160
c     3.2471075    3.3645700    0.3844622  0.00   -0.0318012   -0.1109688   -0.0094882
n     5.4954536    2.3347325    0.2129099  0.00    0.0401034    0.0541336   -0.0028956
h     3.9426885    1.6781037    1.5327799  0.00   -0.0766975    0.0704296    0.0273238
h     5.5836562    3.3040446   -0.1502564  0.00   -0.0155565   -0.0140003    0.0132129
h     6.0129809    2.3244759    1.1156337  0.00   -0.0066714   -0.0016148   -0.0074856
h    -2.2488307    3.4804395    0.0521229  0.00   -0.0017824    0.0008004   -0.0001256
h    -2.2665425    0.9953624   -0.0567849  0.00   -0.0048687   -0.0000053   -0.0002270
h    -0.1018485    4.7137910    0.0062536  0.00   -0.0010770    0.0017134   -0.0004518
h     2.0474638    3.3876762   -0.1598933  0.00    0.0079653    0.2488405    0.2191796
h     1.9783033   -1.5941714   -0.4696437  0.00   -0.0229204   -0.0103977    0.0012197
o     2.9353728    3.8152411   -0.6471697  0.00   -0.0366870   -0.0463035   -0.1462534
o     2.5249148    3.6224261    1.5372532  0.00   -0.1460835   -0.0753289   -0.2017743
h     2.5774119    2.7657880    2.0998006  0.00    0.1166483   -0.0984694   -0.0653494
    27
 Energy =       0.8576379618
c    -1.3430783    2.8054103    0.0199101  0.00   -0.0275434    0.0238031    0.0017796
c    -1.3137802    1.4200661   -0.0449815  0.00   -0.0497222   -0.0213925    0.0008958
c    -0.0810336    0.8072928   -0.1228892  0.00   -0.0469951   -0.0880906    0.0032946
c    -0.1666136    3.5389399   -0.0048237  0.00   -0.0067799    0.0424794    0.0028128
c     1.0586292    2.8916973   -0.0993496  0.00    0.1895720    0.0184227    0.0798679
c     1.0854949    1.5181610   -0.1595230  0.00    0.0571759    0.0588704    0.0091677
n     0.2083222   -0.5579125   -0.2722287  0.00    0.0756218    0.0455379   -0.0051578
c     2.1410213    0.6276886   -0.3096819  0.00    0.0859932   -0.0410901   -0.0135553
c     1.6093762   -0.6352684   -0.3688147  0.00   -0.0494162   -0.0527036    0.0037030
h    -0.4749747   -1.3356836   -0.2880707  0.00    0.0105245    0.0150196   -0.0016168
c     3.5699846    1.0393063   -0.5193655  0.00   -0.0225145    0.0154357    0.0122133
c     4.0403011    2.1199411    0.4684000  0.00   -0.0415636   -0.0309096    0.0756470
h     3.6848058    1.4223200   -1.5556988  0.00   -0.0003839   -0.0027569    0.0009995
h     4.2259659    0.1441880   -0.4349185  0.00   -0.0016760   -0.0041950   -0.0031812
c     3.1780097    3.4211625    0.4174615  0.00   -0.0293946   -0.1057751   -0.0086528
n     5.4648687    2.4796787    0.1946054  0.00    0.0408763    0.0512802   -0.0030508
h     3.9411238    1.7190114    1.4936958  0.00   -0.0726990    0.0659049    0.0262009
h     5.5128604    3.4627977   -0.1438166  0.00   -0.0146021   -0.0116927    0.0121135
h     5.9862704    2.4676452    1.0952775  0.00   -0.0063981   -0.0015261   -0.0072100
h    -2.2999222    3.3221532    0.0846954  0.00   -0.0023791    0.0011483   -0.0000774
h    -2.2336221    0.8374893   -0.0454218  0.00   -0.0053396   -0.0003929   -0.0002201
h    -0.1956400    4.6272538    0.0466947  0.00   -0.0010568    0.0024477   -0.0003978
h     1.9902434    3.3953557   -0.1343931  0.00    0.0039415    0.2396867    0.2126176
h     2.1138537   -1.5844599   -0.5339362  0.00   -0.0213804   -0.0114425    0.0009732
o     2.8555502    3.8942139   -0.5984706  0.00   -0.0318235   -0.0428195   -0.1432190
o     2.4494240    3.6322767    1.5810192  0.00   -0.1446488   -0.0615491   -0.2003143
h     2.6183952    2.8028575    2.1774196  0.00    0.1126117   -0.1037003   -0.0556334
    27
 Energy =       0.8299918794
c    -1.3674547    2.6777983    0.0613533  0.00   -0.0237235    0.0205126    0.0014931
c    -1.2932854    1.2969109   -0.0091807  0.00   -0.0426291   -0.0182275    0.0007005
c    -0.0449825    0.7262533   -0.1032002  0.00   -0.0402544   -0.0737752    0.0027303
c    -0.2170973    3.4469180    0.0296102  0.00   -0.0057947    0.0365793    0.0023594
c     1.0242954    2.8415889   -0.0819422  0.00    0.1618729    0.0153466    0.0706096
c     1.0906382    1.4761068   -0.1531030  0.00    0.0474920    0.0501859    0.0078122
n     0.2924567   -0.6335177   -0.2530307  0.00    0.0610001    0.0382467   -0.0035391
c     2.1725099    0.6423437   -0.3316153  0.00    0.0720307   -0.0348977   -0.0104144
c     1.6990455   -0.6391082   -0.3961824  0.00   -0.0397019   -0.0443921    0.0028523
h    -0.3544989   -1.4457434   -0.2492809  0.00    0.0074397    0.0107490   -0.0013248
c     3.5740466    1.1337579   -0.5824020  0.00   -0.0174121    0.0142046    0.0106902
c     4.0218886    2.2089778    0.4248985  0.00   -0.0353855   -0.0272951    0.0630710
h     3.6339455    1.5555160   -1.6107516  0.00    0.0000903   -0.0012036   -0.0010593
h     4.2792222    0.2705753   -0.5448747  0.00    0.0003848   -0.0055544   -0.0026081
c     3.1142189    3.4802843    0.4516506  0.00   -0.0230699   -0.0860161   -0.0058312
n     5.4280783    2.6137359    0.1303437  0.00    0.0355786    0.0409295   -0.0044472
h     3.9552364    1.7698453    1.4339270  0.00   -0.0608822    0.0542005    0.0215124
h     5.4453942    3.6163221   -0.1617678  0.00   -0.0122328   -0.0070024    0.0092343
h     5.9785298    2.5660948    1.0147405  0.00   -0.0046420   -0.0017193   -0.0042495
h    -2.3397677    3.1634001    0.1404022  0.00   -0.0026533    0.0013224   -0.0000200
h    -2.1928645    0.6836991    0.0004723  0.00   -0.0051502   -0.0006902   -0.0001887
h    -0.2795392    4.5336853    0.0918276  0.00   -0.0009005    0.0027072   -0.0002994
h     1.9339870    3.3914832   -0.1140016  0.00   -0.0026905    0.1971079    0.1771326
h     2.2531023   -1.5542235   -0.5979283  0.00   -0.0165031   -0.0114741    0.0003421
o     2.7679043    3.9820579   -0.5310920  0.00   -0.0211932   -0.0314124   -0.1223555
o     2.3993318    3.6417383    1.6379928  0.00   -0.1268417   -0.0465835   -0.1723836
h     2.6514947    2.8370819    2.2459298  0.00    0.0957716   -0.0918487   -0.0418190
    27
 Energy =       0.7897243007
c    -1.3820756    2.5773769    0.1229000  0.00   -0.0146915    0.0130883    0.0007255
c    -1.2731916    1.2061868    0.0346676  0.00   -0.0268028   -0.0111071    0.0002658
c    -0.0212685    0.6708062   -0.0876275  0.00   -0.0254345   -0.0452878    0.0016530
c    -0.2553643    3.3712551    0.0840403  0.00   -0.0034961    0.0229818    0.0013268
c     0.9909614    2.7996899   -0.0560048  0.00    0.1095360    0.0136739    0.0571364
c     1.0809199    1.4468367   -0.1483106  0.00    0.0287180    0.0316707    0.0052304
n     0.3464027   -0.6860884   -0.2503936  0.00    0.0350038    0.0233638   -0.0010920
c     2.1761554    0.6703380   -0.3574754  0.00    0.0444525   -0.0214886   -0.0052534
c     1.7582020   -0.6208508   -0.4338950  0.00   -0.0233706   -0.0266449    0.0015107
h    -0.2698933   -1.5264368   -0.2381709  0.00    0.0038409    0.0053409   -0.0007824
c     3.5536394    1.2179178   -0.6509730  0.00   -0.0096917    0.0096339    0.0065942
c     4.0126111    2.2790915    0.3691546  0.00   -0.0237477   -0.0171260    0.0393051
h     3.5597694    1.6723363   -1.6688957  0.00    0.0001975    0.0000901   -0.0024031
h     4.2905552    0.3802735   -0.6630350  0.00    0.0016897   -0.0047570   -0.0015267
c     3.0734598    3.5226037    0.5001070  0.00   -0.0127938   -0.0499332   -0.0010103
n     5.3941779    2.7045656    0.0209241  0.00    0.0176080    0.0177448   -0.0149777
h     4.0025710    1.8076835    1.3686345  0.00   -0.0410776    0.0360775    0.0155909
h     5.4057707    3.7404733   -0.1661787  0.00   -0.0090905    0.0056537    0.0038197
h     6.0171360    2.5481308    0.8559874  0.00    0.0057132   -0.0044788    0.0101314
h    -2.3642321    3.0372650    0.2262773  0.00   -0.0022349    0.0011875    0.0000174
h    -2.1543633    0.5688965    0.0548022  0.00   -0.0036677   -0.0006050   -0.0001318
h    -0.3410647    4.4548459    0.1670223  0.00   -0.0006083    0.0021794   -0.0001711
h     1.8894389    3.3747397   -0.0834652  0.00   -0.0080434    0.1142858    0.1048419
h     2.3653538   -1.4938138   -0.6732980  0.00   -0.0084471   -0.0090037   -0.0004651
o     2.6887983    4.0607409   -0.4253159  0.00   -0.0077076   -0.0127618   -0.0774527
o     2.4119040    3.6547388    1.7274538  0.00   -0.0898008   -0.0324384   -0.1160590
h     2.6694623    2.8439804    2.3138634  0.00    0.0639470   -0.0613397   -0.0268239
    27
 Energy =       0.7838374390
c    -1.3822328    2.5501746    0.1227642  0.00   -0.0136024    0.0121276    0.0006707
c    -1.2650600    1.1809302    0.0277765  0.00   -0.0248021   -0.0102896    0.0002503
c    -0.0110669    0.6539683   -0.0969674  0.00   -0.0235406   -0.0418773    0.0015498
c    -0.2606325    3.3503604    0.0885225  0.00   -0.0032236    0.0212781    0.0012211
c     0.9881311    2.7869284   -0.0534797  0.00    0.1015653    0.0127264    0.0531374
c     1.0849185    1.4363168   -0.1524608  0.00    0.0265431    0.0292884    0.0048405
n     0.3646672   -0.7007857   -0.2646847  0.00    0.0323062    0.0215782   -0.0010166
c     2.1845074    0.6703709   -0.3610178  0.00    0.0411095   -0.0198527   -0.0048488
c     1.7775264   -0.6227844   -0.4431802  0.00   -0.0215797   -0.0246423    0.0014078
h    -0.2457915   -1.5458800   -0.2586177  0.00    0.0035082    0.0048715   -0.0007251
c     3.5593327    1.2289653   -0.6467707  0.00   -0.0088962    0.0089483    0.0060713
c     4.0089828    2.2875866    0.3808317  0.00   -0.0221340   -0.0151345    0.0366603
h     3.5659978    1.6877232   -1.6624669  0.00    0.0002013    0.0000977   -0.0022413
h     4.3018418    0.3965414   -0.6597043  0.00    0.0015846   -0.0044217   -0.0014191
c     3.0651133    3.5271352    0.5165358  0.00   -0.0123088   -0.0460975   -0.0005612
n     5.3885710    2.7181183    0.0382283  0.00    0.0079030   -0.0018911   -0.0245394
h     3.9992034    1.8092220    1.3780574  0.00   -0.0384415    0.0332738    0.0146077
h     5.3658697    3.7266450   -0.3006714  0.00   -0.0096531    0.0238849   -0.0033121
h     5.9776130    2.7068839    0.9250405  0.00    0.0158616   -0.0049788    0.0262152
h    -2.3669860    3.0036459    0.2284666  0.00   -0.0020897    0.0011142    0.0000185
h    -2.1420475    0.5381200    0.0449153  0.00   -0.0034146   -0.0005764   -0.0001209
h    -0.3523881    4.4328887    0.1779435  0.00   -0.0005632    0.0020568   -0.0001554
h     1.8842491    3.3674809   -0.0744629  0.00   -0.0075954    0.1054934    0.0968514
h     2.3948293   -1.4884807   -0.6821109  0.00   -0.0077672   -0.0083805   -0.0004448
o     2.6786047    4.0654599   -0.4047866  0.00   -0.0069151   -0.0116831   -0.0715715
o     2.4085055    3.6657198    1.7461124  0.00   -0.0834065   -0.0299625   -0.1076909
h     2.6535764    2.8503279    2.3289825  0.00    0.0593509   -0.0569510   -0.0248548
    27
 Energy =       0.7594122820
c    -1.3937214    2.4677648    0.1983705  0.00   -0.0077449    0.0074706    0.0002363
c    -1.2466773    1.1087126    0.0625400  0.00   -0.0140569   -0.0058173    0.0000775
c     0.0100526    0.6149729   -0.1011575  0.00   -0.0128172   -0.0230319    0.0011704
c    -0.2932632    3.2913134    0.1682893  0.00   -0.0019221    0.0123292    0.0006041
c     0.9592657    2.7599373   -0.0122909  0.00    0.0627762    0.0113976    0.0391529
c     1.0788762    1.4196100   -0.1532798  0.00    0.0144783    0.0157040    0.0028245
n     0.4092663   -0.7316740   -0.3057957  0.00    0.0167481    0.0110476   -0.0004441
c     2.1888851    0.6972474   -0.3933740  0.00    0.0228476   -0.0106870   -0.0019812
c     1.8223639   -0.6003246   -0.5014418  0.00   -0.0111814   -0.0134216    0.0008439
h    -0.1790355   -1.5949498   -0.3140993  0.00    0.0015251    0.0018628   -0.0004399
c     3.5485043    1.2911047   -0.6965549  0.00   -0.0043906    0.0050090    0.0030614
c     4.0152564    2.3277586    0.3472774  0.00   -0.0135366   -0.0090106    0.0202324
h     3.5206277    1.7783388   -1.6986145  0.00    0.0002142    0.0004662   -0.0021870
h     4.3063439    0.4751392   -0.7518823  0.00    0.0016163   -0.0032069   -0.0007758
c     3.0462057    3.5345022    0.5713430  0.00   -0.0034584   -0.0265655   -0.0013456