    13
 Energy =       0.1452880876
c    -3.7133889    1.6950595    0.3173519  0.00   -0.0426680    0.0580634    0.1567461
c    -2.4962693    2.6345192    0.2419999  0.00    0.2001505    0.1403545   -0.2918650
c    -4.9565486    2.3924193   -0.2155699  0.00    0.0154379   -0.0001630   -0.0027505
h    -5.2099685    3.2528291    0.4143399  0.00    0.0026991   -0.0134041   -0.0103941
h    -5.8205883    1.7190695   -0.2147749  0.00    0.0120221    0.0110853   -0.0015878
h    -4.8083986    2.7651692   -1.2348596  0.00   -0.0073850   -0.0015889    0.0196109
n    -3.4097890    0.4519539   -0.4549189  0.00    0.0250375   -0.0707678   -0.0150611
h    -3.8575589    1.4177196    1.3669296  0.00    0.1144875    0.0879379    0.0387097
h    -3.2072391   -0.2948399    0.2179739  0.00   -0.0167866    0.0301953   -0.0188790
h    -4.2689788    0.1396900   -0.9176007  0.00    0.0234977    0.0220729    0.0252843
o    -1.9513094    3.0041591   -0.7839488  0.00   -0.1318758   -0.0959518    0.2473638
o    -2.1005994    3.0267291    1.4825496  0.00   -0.0706911   -0.0559971    0.0048529
h    -2.6645092    2.5096893    2.1108994  0.00   -0.1239258   -0.1118364   -0.1520302
    13
 Energy =       0.1006688182
c    -3.7032694    1.6894918    0.3067141  0.00   -0.0099082    0.0278984    0.0702801
c    -2.5557667    2.6919921    0.2792467  0.00    0.0738951    0.0556804   -0.1096172
c    -5.0166944    2.3353622   -0.1554168  0.00    0.0056794    0.0032975   -0.0009843
h    -5.3098958    3.1558051    0.5305036  0.00   -0.0009070   -0.0032946   -0.0021228
h    -5.8366519    1.5900208   -0.1555230  0.00    0.0024267    0.0016469    0.0000695
h    -4.9140525    2.7591331   -1.1753121  0.00   -0.0026231    0.0013469    0.0056519
n    -3.3693650    0.5055336   -0.5248238  0.00    0.0143527   -0.0213813   -0.0061850
h    -3.8056579    1.3758683    1.3635887  0.00    0.0622647    0.0502695    0.0264179
h    -3.1026355   -0.2922201    0.0917222  0.00   -0.0050978    0.0049033   -0.0042324
h    -4.1904943    0.1760834   -1.0763539  0.00    0.0053278    0.0037997    0.0047122
o    -1.9486513    3.0559851   -0.8411401  0.00   -0.0487907   -0.0423704    0.0927551
o    -2.1596148    3.1724164    1.5057942  0.00   -0.0100667    0.0183621   -0.0243400
h    -2.5523967    2.4986951    2.1813715  0.00   -0.0865530   -0.1001583   -0.0524050
    13
 Energy =       0.0906828984
c    -3.7011343    1.6642203    0.2942996  0.00   -0.0035815    0.0212219    0.0487356
c    -2.5002290    2.6051426    0.2757382  0.00    0.0451949    0.0358532   -0.0656253
c    -4.9995411    2.4066951   -0.0790483  0.00    0.0024364    0.0035822   -0.0045376
h    -5.1787987    3.2593759    0.6190102  0.00   -0.0016329    0.0030063    0.0030346
h    -5.8755134    1.7212637   -0.0138422  0.00   -0.0033029   -0.0015573    0.0001859
h    -4.9333402    2.8081049   -1.1137701  0.00   -0.0011853    0.0004819    0.0022285
n    -3.4765260    0.5040965   -0.6073986  0.00    0.0158211   -0.0131563   -0.0075026
h    -3.7732701    1.3090784    1.3455194  0.00    0.0435326    0.0346304    0.0206496
h    -3.2613886   -0.3534406   -0.0428214  0.00   -0.0015846   -0.0037391    0.0003907
h    -4.3298674    0.2738475   -1.1741490  0.00   -0.0037017   -0.0002464   -0.0026199
o    -1.8660055    2.9393978   -0.8697374  0.00   -0.0284072   -0.0263152    0.0558497
o    -2.0666823    3.0895957    1.4948219  0.00   -0.0032146    0.0163850   -0.0178877
h    -2.5028497    2.4867892    2.2017490  0.00   -0.0603742   -0.0701465   -0.0329014
    13
 Energy =       0.0858690146
c    -3.7116433    1.6628811    0.3113982  0.00   -0.0024436    0.0146748    0.0329299
c    -2.4852520    2.5717488    0.3064659  0.00    0.0288996    0.0240473   -0.0427785
c    -4.9749027    2.4219653   -0.1467941  0.00   -0.0002764    0.0028983   -0.0022708
h    -5.1623227    3.3053005    0.5094300  0.00   -0.0017180    0.0029842    0.0027448
h    -5.8681208    1.7591853   -0.0923539  0.00   -0.0026044   -0.0012424    0.0003866
h    -4.8531115    2.7808230   -1.1951109  0.00   -0.0004884    0.0010851   -0.0008130
n    -3.4809533    0.4623366   -0.5312426  0.00    0.0249154    0.0053202   -0.0097485
h    -3.8471748    1.3568025    1.3758236  0.00    0.0298373    0.0240632    0.0179159
h    -3.4201417   -0.4013170    0.0819396  0.00    0.0011305   -0.0188296    0.0134778
h    -4.2755271    0.2989106   -1.2122598  0.00   -0.0162005    0.0000445   -0.0119493
o    -1.8095577    2.8589903   -0.8459390  0.00   -0.0168298   -0.0175528    0.0346732
o    -2.0568664    3.0894081    1.5182377  0.00   -0.0009023    0.0132293   -0.0135194
h    -2.5195722    2.5471319    2.2507766  0.00   -0.0433195   -0.0507223   -0.0210486
    13
 Energy =       0.0818463339
c    -3.7342186    1.6626740    0.3212399  0.00   -0.0014391    0.0084622    0.0221752
c    -2.4593249    2.5082243    0.3020834  0.00    0.0155031    0.0153504   -0.0241769
c    -4.9428545    2.4693291   -0.2016877  0.00   -0.0010468    0.0036694   -0.0002641
h    -5.0906749    3.3985672    0.4012164  0.00   -0.0021785    0.0044870    0.0029909
h    -5.8748913    1.8621146   -0.1286082  0.00   -0.0035271   -0.0020951    0.0010509
h    -4.7789691    2.7613053   -1.2676412  0.00    0.0006108    0.0018015   -0.0033305
n    -3.5527475    0.4207300   -0.4687083  0.00    0.0202041    0.0044655   -0.0067352
h    -3.9188859    1.4080067    1.3945518  0.00    0.0187234    0.0151893    0.0144243
h    -3.4436924   -0.4061107    0.1820013  0.00    0.0005668   -0.0144840    0.0106182
h    -4.3841197    0.2108569   -1.0882767  0.00   -0.0132033   -0.0027597   -0.0115905
o    -1.7445489    2.7002372   -0.8630923  0.00   -0.0058425   -0.0103471    0.0150779
o    -2.0190257    3.0819241    1.4887470  0.00    0.0037083    0.0133324   -0.0127188
h    -2.5211926    2.6363083    2.2585460  0.00   -0.0320790   -0.0370719   -0.0075215
    13
 Energy =       0.0799641955
c    -3.7232116    1.6566735    0.3213070  0.00   -0.0018211    0.0067883    0.0190150
c    -2.4838844    2.5559455    0.3028698  0.00    0.0089675    0.0098365   -0.0117009
c    -4.9653418    2.4186814   -0.1897675  0.00   -0.0011489    0.0038209   -0.0003554
h    -5.1416020    3.3405987    0.4155127  0.00   -0.0018600    0.0039951    0.0025016
h    -5.8740551    1.7776104   -0.1125699  0.00   -0.0035159   -0.0020867    0.0009351
h    -4.8195263    2.7195727   -1.2554313  0.00    0.0005683    0.0015698   -0.0028306
n    -3.4967884    0.4304509   -0.4804486  0.00    0.0169206    0.0026050   -0.0058121
h    -3.8956576    1.3817425    1.3910455  0.00    0.0149457    0.0119636    0.0117768
h    -3.3635462   -0.3974374    0.1614160  0.00    0.0003951   -0.0120608    0.0086579
h    -4.3180877    0.1985473   -1.1025321  0.00   -0.0108724   -0.0024347   -0.0095164
o    -1.8367870    2.8589903   -0.8874571  0.00    0.0004810   -0.0051857    0.0030101
o    -2.0279438    3.1081583    1.4958350  0.00    0.0028387    0.0107416   -0.0096130
h    -2.5187141    2.6646329    2.2705918  0.00   -0.0258985   -0.0295529   -0.0060682
    13
 Energy =       0.0775392911
c    -3.7189047    1.6563926    0.3354775  0.00   -0.0025357    0.0012591    0.0092445
c    -2.4941066    2.5762378    0.2228344  0.00    0.0006604    0.0007766   -0.0028481
c    -4.9889324    2.3744987   -0.1627589  0.00   -0.0002522    0.0017474    0.0002457
h    -5.1541197    3.3190784    0.4060440  0.00   -0.0005968    0.0023833    0.0016631
h    -5.8843112    1.7255928   -0.0259569  0.00   -0.0028536   -0.0020372    0.0004043
h    -4.8866932    2.6282135   -1.2459969  0.00    0.0002793    0.0012932   -0.0031812
n    -3.5095904    0.4054826   -0.4251116  0.00    0.0122978    0.0077255   -0.0035423
h    -3.8544453    1.4185869    1.4200374  0.00    0.0070865    0.0051495    0.0075981
h    -3.2884343   -0.3834629    0.2401576  0.00    0.0011021   -0.0106313    0.0087405
h    -4.3667701    0.1101489   -0.9674888  0.00   -0.0114513   -0.0033579   -0.0094944
o    -1.9525013    2.8794648   -1.0262684  0.00    0.0036794    0.0001514   -0.0067599
o    -1.9546070    3.1805467    1.3621642  0.00    0.0085096    0.0122818   -0.0050843
h    -2.4117298    2.8233860    2.1972377  0.00   -0.0159254   -0.0167414    0.0030140
    13
 Energy =       0.0780518543
c    -3.7074167    1.6642085    0.3488377  0.00   -0.0039877    0.0005347    0.0085392
c    -2.4933508    2.5875856    0.1415194  0.00   -0.0004793   -0.0008460   -0.0021804
c    -5.0110817    2.3573362   -0.1000310  0.00   -0.0008495    0.0020933    0.0003777
h    -5.1640896    3.3054753    0.4660182  0.00   -0.0005692    0.0023064    0.0017085
h    -5.8899302    1.6958934    0.0845909  0.00   -0.0038365   -0.0025562    0.0006205
h    -4.9622452    2.6019130   -1.1902413  0.00    0.0002608    0.0015305   -0.0044272
n    -3.5274911    0.3893859   -0.3813563  0.00    0.0155064    0.0122001   -0.0060590
h    -3.7845276    1.4605072    1.4484849  0.00    0.0060985    0.0045190    0.0095245
h    -3.4011597   -0.4074750    0.3053771  0.00    0.0023829   -0.0159886    0.0129514
h    -4.3596833    0.1427935   -0.9890939  0.00   -0.0158006   -0.0038255   -0.0119998
o    -2.0480354    2.8885599   -1.1496642  0.00    0.0054823    0.0014780   -0.0128454
o    -1.8631582    3.1922858    1.2375898  0.00    0.0120238    0.0153457   -0.0035431
h    -2.2529767    2.8356975    2.1083401  0.00   -0.0162320   -0.0167912    0.0073330
    13
 Energy =       0.0771956638
c    -3.6928685    1.6496708    0.3439170  0.00   -0.0026853    0.0002255    0.0035948
c    -2.5160877    2.6220532    0.1639100  0.00   -0.0008444   -0.0016845   -0.0043652
c    -5.0165960    2.3008896   -0.1027243  0.00   -0.0005549    0.0014144   -0.0000052
h    -5.2001641    3.2425478    0.4630179  0.00   -0.0003249    0.0014554    0.0009267
h    -5.8723130    1.6123341    0.0802235  0.00   -0.0022150   -0.0014079    0.0003713
h    -4.9754763    2.5471033   -1.1904264  0.00    0.0001283    0.0007212   -0.0019781
n    -3.4613581    0.3956367   -0.4052539  0.00    0.0081914    0.0044413   -0.0036784
h    -3.7733068    1.4202486    1.4347653  0.00    0.0025097    0.0015177    0.0043727
h    -3.2965032   -0.3992196    0.2661863  0.00    0.0007810   -0.0082649    0.0063777
h    -4.2837131    0.1198041   -1.0028169  0.00   -0.0076056   -0.0016754   -0.0057490
o    -2.0471094    2.9175538   -1.1155342  0.00    0.0021624    0.0005864   -0.0061981
o    -1.9537449    3.2910937    1.2605777  0.00    0.0084383    0.0102977   -0.0005671
h    -2.3759051    2.9944507    2.1345293  0.00   -0.0079809   -0.0076268    0.0068979
    13
 Energy =       0.0769195412
c    -3.6789363    1.6627977    0.3605222  0.00   -0.0005911   -0.0010587    0.0024755
c    -2.5500948    2.6754247    0.1177452  0.00   -0.0007782   -0.0014000    0.0032369
c    -5.0447514    2.2346007   -0.0676169  0.00   -0.0010378    0.0021876   -0.0007768
h    -5.2678868    3.1714556    0.4896608  0.00   -0.0001235    0.0006989    0.0000991
h    -5.8553562    1.5009463    0.1407555  0.00   -0.0015506   -0.0012763    0.0003473
h    -5.0411106    2.4705993   -1.1568149  0.00   -0.0000733    0.0004051   -0.0005214
n    -3.4093622    0.3943341   -0.3465241  0.00    0.0150058    0.0129012    0.0000554
h    -3.7262219    1.4657152    1.4570618  0.00   -0.0002060   -0.0007880    0.0007934
h    -3.3930109   -0.4053669    0.3451233  0.00    0.0024885   -0.0113504    0.0128409
h    -4.1419677    0.1681835   -1.0798679  0.00   -0.0164836   -0.0037860   -0.0145308
o    -2.1942195    3.0147535   -1.1887246  0.00    0.0027282    0.0020825   -0.0083110
o    -1.9089696    3.3273581    1.1777430  0.00    0.0021896    0.0019442    0.0003908
h    -2.2532582    3.0333650    2.0813078  0.00   -0.0015680   -0.0005601    0.0039006
    13
 Energy =       0.0768985348
c    -3.7037241    1.6739289    0.3619881  0.00   -0.0002127   -0.0018061    0.0012670
c    -2.5396187    2.6551164    0.1542892  0.00   -0.0012657   -0.0023361    0.0004608
c    -5.0370253    2.2763255   -0.1280497  0.00   -0.0019515    0.0027505   -0.0002273
h    -5.2560534    3.2281851    0.4054390  0.00   -0.0004514    0.0009149    0.0001943
h    -5.8757257    1.5688414    0.0610644  0.00   -0.0019793   -0.0014878    0.0006106
h    -4.9845631    2.4941790   -1.2209574  0.00    0.0000278    0.0007372   -0.0016938
n    -3.4364638    0.3932324   -0.3236484  0.00    0.0127099    0.0104152    0.0000240
h    -3.8039669    1.4889718    1.4581804  0.00   -0.0006457   -0.0013407    0.0018709
h    -3.4099399   -0.3929935    0.3803177  0.00    0.0019675   -0.0094295    0.0104507
h    -4.1737482    0.1491459   -1.0429636  0.00   -0.0132745   -0.0034026   -0.0121019
o    -2.1768065    3.0293178   -1.1402042  0.00    0.0021693    0.0017029   -0.0075658
o    -1.8633753    3.2373169    1.2353183  0.00    0.0039773    0.0035508    0.0025452
h    -2.2041353    2.9125993    2.1295975  0.00   -0.0010711   -0.0002686    0.0041654
    13
 Energy =       0.0767684217
c    -3.7359574    1.6915855    0.3613455  0.00    0.0006297   -0.0025407   -0.0002670
c    -2.5359099    2.6400324    0.2086900  0.00   -0.0017961   -0.0033371   -0.0027275
c    -5.0232146    2.3206782   -0.2170060  0.00   -0.0034472    0.0032393    0.0006271
h    -5.2428120    3.2927063    0.2795750  0.00   -0.0009514    0.0012886    0.0004018
h    -5.8931318    1.6444615   -0.0553431  0.00   -0.0023251   -0.0014575    0.0008833
h    -4.9042586    2.5072900   -1.3123044  0.00    0.0002961    0.0011040   -0.0035378
n    -3.4594129    0.3969608   -0.2936210  0.00    0.0101847    0.0079010    0.0001704
h    -3.9098197    1.5254035    1.4531299  0.00   -0.0013818   -0.0016313    0.0036178
h    -3.3894844   -0.3652938    0.4303994  0.00    0.0011116   -0.0074555    0.0074980
h    -4.2136298    0.1098128   -0.9742932  0.00   -0.0092771   -0.0032285   -0.0094250
o    -2.1573980    3.0680852   -1.0638485  0.00    0.0014462    0.0012710   -0.0066934
o    -1.8300828    3.1285983    1.3192378  0.00    0.0060936    0.0051596    0.0044665
h    -2.1700343    2.7538462    2.1944097  0.00   -0.0005832   -0.0003131    0.0049858
    13
 Energy =       0.0762768263
c    -3.7479323    1.7293394    0.3773517  0.00    0.0005497    0.0030992    0.0030170
c    -2.5765045    2.7020868    0.1902431  0.00   -0.0042666   -0.0023880   -0.0008856
c    -5.0431125    2.2778385   -0.2553708  0.00   -0.0011484   -0.0000213   -0.0011678
h    -5.3047456    3.2661457    0.1875937  0.00   -0.0003110    0.0020255    0.0009479
h    -5.8887784    1.5790360   -0.0773756  0.00   -0.0003212   -0.0003447   -0.0002503
h    -4.9127025    2.4128358   -1.3543518  0.00   -0.0003368    0.0002777   -0.0010409
n    -3.4226628    0.4019072   -0.1885854  0.00    0.0044671   -0.0016546   -0.0050106
h    -3.9337222    1.6328676    1.4737121  0.00   -0.0003751   -0.0005585    0.0018074
h    -3.4361806   -0.3244724    0.5711668  0.00    0.0011714   -0.0040851    0.0052625
h    -4.1086696    0.0942010   -0.9227559  0.00   -0.0042299   -0.0004111   -0.0032237
o    -2.3060511    3.2213018   -1.0792169  0.00    0.0009879    0.0026367   -0.0115127
o    -1.7716182    3.0972626    1.2700448  0.00    0.0058321    0.0067170   -0.0024774
h    -2.0124661    2.6238169    2.1379156  0.00   -0.0020190   -0.0052930    0.0145341
    13
 Energy =       0.0759273745
c    -3.7746794    1.7580662    0.3847975  0.00    0.0010471    0.0030089    0.0012562
c    -2.5787730    2.7028859    0.2090326  0.00   -0.0029055   -0.0017263   -0.0027059
c    -5.0304402    2.2888807   -0.3411518  0.00   -0.0028319    0.0007213    0.0004567
h    -5.2963001    3.3073019    0.0288406  0.00   -0.0013701    0.0034416    0.0012300
h    -5.8963081    1.6158972   -0.1594448  0.00   -0.0005709   -0.0003951    0.0003848
h    -4.8456623    2.3546917   -1.4415267  0.00    0.0004210    0.0005650   -0.0040724
n    -3.4380250    0.3992134   -0.0946232  0.00    0.0056598   -0.0013524   -0.0041643
h    -4.0174478    1.7245708    1.4762146  0.00   -0.0013843   -0.0003089    0.0040267
h    -3.4447975   -0.2774366    0.7095304  0.00    0.0005416   -0.0043465    0.0045566
h    -4.1213191    0.0345732   -0.8047852  0.00   -0.0030002   -0.0022016   -0.0035566
o    -2.3124968    3.2542369   -1.0437396  0.00    0.0002848    0.0007811   -0.0053697
o    -1.7360854    3.0277262    1.2807789  0.00    0.0046301    0.0038306    0.0010225
h    -1.9728116    2.5235594    2.1264480  0.00   -0.0005216   -0.0020177    0.0069354
    13
 Energy =       0.0754975987
c    -3.7958229    1.7893968    0.3890052  0.00    0.0008225    0.0013795    0.0007437
c    -2.5995585    2.7353136    0.2274727  0.00   -0.0044760   -0.0023640   -0.0010997
c    -5.0286022    2.2751720   -0.4012479  0.00   -0.0018517    0.0000172    0.0001878
h    -5.3110662    3.3060289   -0.0877161  0.00   -0.0006350    0.0016842    0.0006867
h    -5.8960902    1.6056048   -0.2185764  0.00   -0.0000742   -0.0000183    0.0000600
h    -4.8078585    2.2925328   -1.4946549  0.00    0.0000232    0.0002178   -0.0019953
n    -3.4323580    0.4170192   -0.0201099  0.00    0.0026416   -0.0009651   -0.0016653
h    -4.0753464    1.8020800    1.4702792  0.00   -0.0007287    0.0001655    0.0018764
h    -3.4408498   -0.2187187    0.8138955  0.00    0.0001538   -0.0017842    0.0016406
h    -4.1016371    0.0075266   -0.7166535  0.00   -0.0011654   -0.0010674   -0.0016442
o    -2.3866611    3.3864041   -0.9897108  0.00    0.0000290    0.0025224   -0.0088059
o    -1.6957374    2.9510004    1.2776456  0.00    0.0056177    0.0038300    0.0021254
h    -1.8935579    2.3648063    2.0807425  0.00   -0.0003568   -0.0036176    0.0078899
    13
 Energy =       0.0751950540
c    -3.8144699    1.8199019    0.3979290  0.00    0.0010221    0.0041415    0.0008144
c    -2.6137889    2.7593879    0.2322805  0.00   -0.0014692   -0.0004143   -0.0002806
c    -5.0150919    2.2453643   -0.4757710  0.00   -0.0028784   -0.0001676    0.0001824
h    -5.3141601    3.2948888   -0.2442430  0.00   -0.0012748    0.0033763    0.0007851
h    -5.8874102    1.5844128   -0.2848709  0.00   -0.0001001   -0.0000836    0.0001641
h    -4.7477213    2.1911541   -1.5590629  0.00    0.0004290   -0.0000060   -0.0037450
n    -3.4286161    0.4230768    0.0975474  0.00    0.0046557   -0.0034887   -0.0041866
h    -4.1372062    1.9049549    1.4657798  0.00   -0.0009034    0.0006638    0.0037104
h    -3.4764244   -0.1561373    0.9726486  0.00    0.0001649   -0.0030617    0.0045227
h    -4.0646275   -0.0341679   -0.6011965  0.00   -0.0014801   -0.0015826   -0.0022825
o    -2.4294378    3.4552884   -0.9606894  0.00    0.0001315    0.0005358   -0.0029753
o    -1.6783173    2.9248281    1.2576698  0.00    0.0018981    0.0012370    0.0006902
h    -1.8578744    2.3012142    2.0323497  0.00   -0.0001952   -0.0011500    0.0026006
    13
 Energy =       0.0750082334
c    -3.8258383    1.8370255    0.4014806  0.00    0.0001422    0.0009191   -0.0000243
c    -2.6226858    2.7747790    0.2423986  0.00   -0.0031759   -0.0023523    0.0013214
c    -5.0130903    2.2424567   -0.4950615  0.00   -0.0009644   -0.0000494    0.0001284
h    -5.3155203    3.2935022   -0.2876961  0.00   -0.0003278    0.0009270    0.0002536
h    -5.8874880    1.5840995   -0.3052172  0.00   -0.0000297   -0.0000155    0.0000443
h    -4.7294715    2.1700155   -1.5704594  0.00    0.0000835    0.0000207   -0.0010754
n    -3.4359529    0.4381694    0.1327850  0.00    0.0013408   -0.0008314   -0.0011731
h    -4.1616837    1.9410592    1.4610921  0.00   -0.0002395    0.0002152    0.0010775
h    -3.4926208   -0.1227922    1.0164729  0.00    0.0000852   -0.0008895    0.0011891
h    -4.0652446   -0.0343116   -0.5600643  0.00   -0.0004264   -0.0004399   -0.0006554
o    -2.4906040    3.5599390   -0.9051574  0.00   -0.0004825    0.0036033   -0.0078357
o    -1.6376369    2.8563003    1.2335111  0.00    0.0039665    0.0020937    0.0020331
h    -1.7873091    2.1739245    1.9662868  0.00    0.0000281   -0.0032012    0.0047164
    13
 Energy =       0.0748805012
c    -3.8403406    1.8599756    0.4066988  0.00    0.0006078    0.0030219    0.0001547
c    -2.6298486    2.7877726    0.2414448  0.00   -0.0005795   -0.0002752    0.0002695
c    -4.9944151    2.2140188   -0.5555001  0.00   -0.0020320    0.0000563    0.0000947
h    -5.3050059    3.2755767   -0.4175295  0.00   -0.0009175    0.0023231    0.0002677
h    -5.8755510    1.5657992   -0.3617439  0.00   -0.0001095   -0.0000354    0.0001497
h    -4.6704976    2.0830505   -1.6152962  0.00    0.0005273   -0.0002074   -0.0026221
n    -3.4429020    0.4461039    0.2320209  0.00    0.0032457   -0.0026290   -0.0026258
h    -4.2127504    2.0248179    1.4478653  0.00   -0.0007107    0.0006682    0.0026578
h    -3.5280099   -0.0625040    1.1462330  0.00   -0.0000507   -0.0019508    0.0032946
h    -4.0518903   -0.0670953   -0.4508651  0.00   -0.0007548   -0.0013449   -0.0013272
o    -2.5138385    3.6000869   -0.8841363  0.00   -0.0000155    0.0005509   -0.0017786
o    -1.6280858    2.8419303    1.2125670  0.00    0.0008651    0.0003639    0.0005972
h    -1.7720104    2.1446338    1.9286125  0.00   -0.0000757   -0.0005417    0.0008678
    13
 Energy =       0.0748077234
c    -3.8472662    1.8700256    0.4098799  0.00    0.0000660    0.0009566   -0.0001081
c    -2.6347448    2.7964383    0.2487161  0.00   -0.0015738   -0.0017894    0.0013147
c    -4.9922766    2.2134079   -0.5642598  0.00   -0.0007886    0.0000015    0.0000658
h    -5.3050412    3.2741542   -0.4375784  0.00   -0.0002804    0.0007579    0.0001013
h    -5.8744670    1.5657455   -0.3738030  0.00   -0.0000406   -0.0000089    0.0000476
h    -4.6583633    2.0753313   -1.6182040  0.00    0.0001646   -0.0000609   -0.0008781
n    -3.4503425    0.4560524    0.2519441  0.00    0.0011348   -0.0007840   -0.0008569
h    -4.2271648    2.0445044    1.4449424  0.00   -0.0001994    0.0002322    0.0009096
h    -3.5386367   -0.0415304    1.1702473  0.00   -0.0000042   -0.0006714    0.0010721
h    -4.0587677   -0.0646801   -0.4246439  0.00   -0.0002581   -0.0004536   -0.0004587
o    -2.5576066    3.6752417   -0.8320556  0.00   -0.0005289    0.0028232   -0.0047575
o    -1.5983212    2.7923248    1.1862520  0.00    0.0022021    0.0007960    0.0013897
h    -1.7221474    2.0571515    1.8689344  0.00    0.0001065   -0.0017993    0.0021586
    13
 Energy =       0.0747523606
c    -3.8598118    1.8896421    0.4137214  0.00    0.0003387    0.0018578   -0.0000463
c    -2.6399582    2.8063851    0.2472383  0.00    0.0001739    0.0000907    0.0000018
c    -4.9731301    2.1874246   -0.6120887  0.00   -0.0012020    0.0001046   -0.0000417
h    -5.2909178    3.2526143   -0.5429699  0.00   -0.0005318    0.0012801    0.0000488
h    -5.8612030    1.5479493   -0.4212757  0.00   -0.0000782    0.0000058    0.0000783
h    -4.6048712    2.0029782   -1.6478250  0.00    0.0003889   -0.0001952   -0.0014520
n    -3.4628956    0.4678019    0.3359628  0.00    0.0019147   -0.0016378   -0.0014737
h    -4.2703458    2.1147213    1.4277954  0.00   -0.0004918    0.0004787    0.0015485
h    -3.5761078    0.0169187    1.2761373  0.00   -0.0001123   -0.0010593    0.0020518
h    -4.0569123   -0.0852917   -0.3279600  0.00   -0.0003386   -0.0008256   -0.0006398
o    -2.5822130    3.7186885   -0.8024367  0.00    0.0000448   -0.0001876   -0.0000442
o    -1.5848119    2.7719295    1.1593786  0.00   -0.0000234   -0.0001575    0.0002333
h    -1.7019677    2.0224051    1.8246935  0.00   -0.0000828    0.0002456   -0.0002647
    13
 Energy =       0.0747368512
c    -3.8622599    1.8929055    0.4164473  0.00    0.0001698    0.0013050   -0.0000695
c    -2.6425751    2.8107326    0.2523133  0.00   -0.0004092   -0.0007670    0.0005064
c    -4.9750011    2.1914884   -0.6091475  0.00   -0.0008721    0.0000524   -0.0000219
h    -5.2944601    3.2556439   -0.5373820  0.00   -0.0003674    0.0009033    0.0000342
h    -5.8624261    1.5504030   -0.4207886  0.00   -0.0000568    0.0000011    0.0000561
h    -4.6056729    2.0105271   -1.6446157  0.00    0.0002763   -0.0001373   -0.0010213
n    -3.4658392    0.4714747    0.3364624  0.00    0.0013705   -0.0011346   -0.0010168
h    -4.2727509    2.1163203    1.4303885  0.00   -0.0003367    0.0003416    0.0010885
h    -3.5766663    0.0203446    1.2763851  0.00   -0.0000792   -0.0007443    0.0014385
h    -4.0624679   -0.0811895   -0.3252245  0.00   -0.0002426   -0.0005807   -0.0004552
o    -2.6097798    3.7638363   -0.7632911  0.00   -0.0002800    0.0012049   -0.0017250
o    -1.5658351    2.7418497    1.1381853  0.00    0.0007945    0.0001133    0.0006438
h    -1.6694117    1.9698303    1.7806390  0.00    0.0000327   -0.0005577    0.0005423
    13
 Energy =       0.0747221823
c    -3.8668693    1.8997188    0.4187821  0.00   -0.0000888   -0.0003460    0.0000018
c    -2.6453122    2.8155337    0.2543290  0.00   -0.0001405   -0.0002371    0.0001459
c    -4.9693712    2.1849131   -0.6196043  0.00    0.0002061   -0.0000258    0.0000132
h    -5.2904693    3.2482855   -0.5624937  0.00    0.0001087   -0.0002621    0.0000073
h    -5.8580288    1.5450879   -0.4329959  0.00    0.0000158    0.0000019   -0.0000177
h    -4.5901278    1.9934909   -1.6481603  0.00   -0.0000870    0.0000521    0.0002862
n    -3.4724837    0.4782335    0.3600494  0.00   -0.0003682    0.0003572    0.0002598
h    -4.2857717    2.1358454    1.4248544  0.00    0.0001113   -0.0001064   -0.0002911
h    -3.5901806    0.0404788    1.3041498  0.00    0.0000319    0.0001823   -0.0004133
h    -4.0664161   -0.0823808   -0.2965511  0.00    0.0000685    0.0001707    0.0001231
o    -2.6307555    3.7988456   -0.7311979  0.00   -0.0000721    0.0003112   -0.0004074
o    -1.5522147    2.7210548    1.1165943  0.00    0.0001919   -0.0000006    0.0001710
h    -1.6471451    1.9350599    1.7426156  0.00    0.0000223   -0.0000975    0.0001210
    13
 Energy =       0.0747209643
c    -3.8674922    1.8985257    0.4202437  0.00   -0.0000251   -0.0000109    0.0000222
c    -2.6498967    2.8209162    0.2618619  0.00   -0.0000922   -0.0002863    0.0002173
c    -4.9719970    2.1872730   -0.6154796  0.00    0.0000208   -0.0000154    0.0000214
h    -5.2982156    3.2488825   -0.5494943  0.00   -0.0000037    0.0000233    0.0000062
h    -5.8576580    1.5419178   -0.4335069  0.00   -0.0000188   -0.0000193    0.0000092
h    -4.5923976    2.0058968   -1.6460251  0.00    0.0000090    0.0000013   -0.0000179
n    -3.4673745    0.4786843    0.3502638  0.00    0.0000009   -0.0000161   -0.0000250
h    -4.2865655    2.1253708    1.4287104  0.00   -0.0000064   -0.0000010    0.0000119
h    -3.5818666    0.0334866    1.2915858  0.00   -0.0000013   -0.0000147    0.0000100
h    -4.0602961   -0.0795316   -0.3094669  0.00    0.0000038    0.0000001    0.0000057
o    -2.6488168    3.8251205   -0.7026359  0.00   -0.0000509    0.0004839   -0.0005232
o    -1.5480826    2.7129921    1.1113335  0.00    0.0001498    0.0001362    0.0000121
h    -1.6344869    1.9146321    1.7229811  0.00    0.0000140   -0.0002811    0.0002501
    13
 Energy =       0.0747205511
c    -3.8691649    1.9014688    0.4204930  0.00   -0.0000046    0.0000518   -0.0000105
c    -2.6482795    2.8194141    0.2610744  0.00    0.0000040    0.0000033   -0.0000106
c    -4.9678998    2.1856037   -0.6227279  0.00   -0.0000218    0.0000089    0.0000061
h    -5.2918573    3.2484632   -0.5659185  0.00   -0.0000174    0.0000407   -0.0000012
h    -5.8561005    1.5438608   -0.4404651  0.00   -0.0000079   -0.0000045    0.0000071
h    -4.5837515    1.9958896   -1.6500956  0.00    0.0000169   -0.0000051   -0.0000452
n    -3.4728918    0.4799065    0.3629477  0.00    0.0000524   -0.0000570   -0.0000567
h    -4.2923247    2.1370460    1.4252794  0.00   -0.0000215    0.0000127    0.0000466
h    -3.5927390    0.0422629    1.3071894  0.00   -0.0000067   -0.0000355    0.0000685
h    -4.0647661   -0.0816112   -0.2949387  0.00   -0.0000014   -0.0000180   -0.0000070
o    -2.6456176    3.8249647   -0.7014208  0.00   -0.0000022    0.0000024   -0.0000049
o    -1.5456926    2.7074678    1.1087707  0.00    0.0000111    0.0000039    0.0000061
h    -1.6340609    1.9094301    1.7201833  0.00   -0.0000011   -0.0000035    0.0000016
    13
 Energy =       0.0747205403
c    -3.8692058    1.9015259    0.4205103  0.00   -0.0000000    0.0000000    0.0000000
c    -2.6483321    2.8194864    0.2611473  0.00   -0.0000000   -0.0000001    0.0000001
c    -4.9678392    2.1855170   -0.6228043  0.00   -0.0000000   -0.0000000   -0.0000000
h    -5.2918188    3.2483329   -0.5660997  0.00   -0.0000000    0.0000000    0.0000000
h    -5.8560332    1.5437641   -0.4405964  0.00   -0.0000000   -0.0000000   -0.0000000
h    -4.5836083    1.9957460   -1.6500811  0.00    0.0000000   -0.0000000   -0.0000000
n    -3.4729423    0.4800133    0.3631118  0.00    0.0000000    0.0000000   -0.0000000
h    -4.2924372    2.1371707    1.4251975  0.00    0.0000000    0.0000000    0.0000000
h    -3.5928613    0.0424690    1.3073410  0.00    0.0000000   -0.0000000    0.0000000
h    -4.0647687   -0.0815604   -0.2947580  0.00   -0.0000000    0.0000000   -0.0000000
o    -2.6458739    3.8253966   -0.7009678  0.00   -0.0000000    0.0000001   -0.0000001
o    -1.5455814    2.7072553    1.1085828  0.00    0.0000001    0.0000000    0.0000000
h    -1.6338440    1.9090502    1.7197879  0.00    0.0000000   -0.0000001    0.0000000
    13
 Energy =       0.0747205403
c    -3.8692063    1.9015265    0.4205106  0.00   -0.0000000    0.0000000    0.0000000
c    -2.6483327    2.8194872    0.2611481  0.00   -0.0000000   -0.0000000    0.0000000
c    -4.9678387    2.1855164   -0.6228054  0.00   -0.0000000   -0.0000000   -0.0000000
h    -5.2918189    3.2483323   -0.5661019  0.00   -0.0000000    0.0000000    0.0000000
h    -5.8560327    1.5437634   -0.4405980  0.00   -0.0000000    0.0000000   -0.0000000
h    -4.5836066    1.9957449   -1.6500816  0.00    0.0000000   -0.0000000   -0.0000000
n    -3.4729426    0.4800139    0.3631137  0.00    0.0000000   -0.0000000   -0.0000000
h    -4.2924388    2.1371720    1.4251971  0.00   -0.0000000    0.0000000    0.0000000
h    -3.5928620    0.0424705    1.3073432  0.00    0.0000000   -0.0000000    0.0000000