    13
 Energy =       0.0973819426
c    -3.7133889    1.6950595    0.3173519  0.00   -0.0524170   -0.0210099    0.0120940
c    -2.4962693    2.6345192    0.2419999  0.00    0.0771358    0.3544775    0.0970769
c    -4.9565486    2.3924193   -0.2155699  0.00    0.0148428    0.0172640    0.0154521
h    -5.3251685    1.8809395   -1.1121297  0.00    0.0121267    0.0023198    0.0120871
h    -4.7411586    3.4296290   -0.4944269  0.00    0.0062449   -0.0204261    0.0057841
h    -5.7692484    2.3924493    0.5188399  0.00    0.0087361    0.0014353   -0.0143147
n    -3.4097890    0.4519539   -0.4549189  0.00    0.1044828   -0.0152528   -0.0387807
h    -3.8575589    1.4177196    1.3669296  0.00   -0.0017488   -0.0040835   -0.0229491
h    -3.4845290    0.6754588   -1.4528996  0.00   -0.0059292    0.0003251    0.0385599
h    -2.4188593    0.2248379   -0.3273229  0.00   -0.0015882    0.0936114   -0.0075509
o    -2.4571893    3.7760389    0.6681628  0.00   -0.0087187   -0.2784598   -0.1095872
o    -1.4389296    2.0221094   -0.3549299  0.00   -0.1104556   -0.1167593    0.0021365
h    -0.6872378    2.6609292   -0.2711979  0.00   -0.0427116   -0.0134418    0.0099920
    13
 Energy =       0.0773858007
c    -3.7032320    1.7268413    0.2989662  0.00   -0.0380557   -0.0102359    0.0103380
c    -2.4887237    2.6535515    0.1756013  0.00    0.0541640    0.2667645    0.0716279
c    -4.9640576    2.3899157   -0.2553908  0.00    0.0107445    0.0131888    0.0115028
h    -5.3417516    1.8510134   -1.1362520  0.00    0.0086041    0.0014106    0.0087169
h    -4.7661095    3.4279728   -0.5621187  0.00    0.0048579   -0.0148634    0.0041154
h    -5.7699201    2.4012742    0.4924065  0.00    0.0064646    0.0011255   -0.0105141
n    -3.4225839    0.4260566   -0.3799975  0.00    0.0781442   -0.0186144   -0.0089404
h    -3.8319927    1.5309407    1.3765731  0.00   -0.0013990   -0.0034606   -0.0137382
h    -3.6134535    0.5173579   -1.4032814  0.00   -0.0087434    0.0021508    0.0043193
h    -2.4084995    0.2307855   -0.3267029  0.00    0.0055687    0.0723016   -0.0045603
o    -2.4554108    3.8325836    0.6229621  0.00   -0.0071501   -0.2082423   -0.0811939
o    -1.3897486    2.0416230   -0.3604326  0.00   -0.1029940   -0.1045995   -0.0061892
h    -0.6003918    2.6241476   -0.1124448  0.00   -0.0102057    0.0030742    0.0145158
    13
 Energy =       0.0670042884
c    -3.6935552    1.7060477    0.2832616  0.00   -0.0288138   -0.0051706    0.0097776
c    -2.4895668    2.6380876    0.1506329  0.00    0.0455831    0.2217500    0.0584491
c    -4.9931072    2.3730803   -0.1781473  0.00    0.0080042    0.0126613    0.0081151
h    -5.4133307    1.8493810   -1.0533875  0.00    0.0064269    0.0006767    0.0064506
h    -4.8281858    3.4271288   -0.4582218  0.00    0.0036232   -0.0113917    0.0030596
h    -5.7543324    2.3447130    0.6207024  0.00    0.0033908    0.0009118   -0.0065781
n    -3.4370890    0.4530378   -0.4799945  0.00    0.0556292   -0.0257225    0.0114326
h    -3.7661750    1.4508419    1.3592869  0.00   -0.0009587   -0.0036236   -0.0082950
h    -3.4969152    0.6761110   -1.5172245  0.00   -0.0081703    0.0094766   -0.0233066
h    -2.4353787    0.2013732   -0.3216871  0.00    0.0167644    0.0607914    0.0018001
o    -2.4667135    3.8356942    0.6092559  0.00   -0.0061846   -0.1734686   -0.0674151
o    -1.3802806    2.0400968   -0.3902400  0.00   -0.0893282   -0.0914804   -0.0060915
h    -0.6012452    2.6584703   -0.1943485  0.00   -0.0059663    0.0045897    0.0126016
    13
 Energy =       0.0450321941
c    -3.7123296    1.7057272    0.2851055  0.00   -0.0062817   -0.0002238    0.0026780
c    -2.4735853    2.5845066    0.1949116  0.00    0.0106244    0.0421103    0.0090103
c    -4.9798898    2.3922416   -0.2759506  0.00   -0.0000191    0.0034932   -0.0001419
h    -5.3900160    1.8448476   -1.1501119  0.00    0.0011802    0.0001061    0.0006384
h    -4.7753784    3.4378926   -0.5979057  0.00    0.0008135   -0.0006292   -0.0007020
h    -5.7754848    2.4258763    0.5001004  0.00   -0.0015021    0.0007334    0.0004995
n    -3.4883507    0.4221610   -0.4094325  0.00    0.0083456   -0.0042776    0.0074083
h    -3.8521853    1.5077601    1.3759771  0.00   -0.0009685   -0.0018226    0.0019615
h    -3.4415585    0.6044354   -1.4491744  0.00   -0.0027406    0.0046137   -0.0139287
h    -2.5106933    0.1047634   -0.1629340  0.00    0.0211047    0.0244593    0.0035587
o    -2.4686057    3.8561708    0.7008967  0.00   -0.0030191   -0.0333095   -0.0111112
o    -1.3144396    2.0334677   -0.3304123  0.00   -0.0382033   -0.0484662   -0.0038319
h    -0.5733582    2.7342133   -0.2511815  0.00    0.0106661    0.0132129    0.0039609
    13
 Energy =       0.0405606929
c    -3.6857281    1.6815734    0.2684843  0.00    0.0035243    0.0037734    0.0016348
c    -2.4479072    2.5663659    0.1716135  0.00   -0.0033815   -0.0058397   -0.0016750
c    -4.9820921    2.3981454   -0.1854135  0.00    0.0007617    0.0032078   -0.0014113
h    -5.4831221    1.8603103   -1.0248525  0.00   -0.0025031   -0.0018220   -0.0035929
h    -4.7829031    3.4410419   -0.5201861  0.00    0.0001410    0.0001576    0.0000228
h    -5.7084590    2.4482477    0.6588535  0.00   -0.0031939    0.0003200    0.0031492
n    -3.5394103    0.4264498   -0.4941876  0.00   -0.0056362   -0.0034156   -0.0021530
h    -3.7696479    1.4386065    1.3562565  0.00    0.0000662    0.0001335    0.0024771
h    -3.4538565    0.6609671   -1.5138728  0.00   -0.0008689    0.0006134   -0.0024224
h    -2.6018844    0.0094148   -0.2499332  0.00    0.0109563    0.0054640    0.0018268
o    -2.4472259    3.8364001    0.7423767  0.00   -0.0006994    0.0051209    0.0037386
o    -1.2830329    2.0849229   -0.4187775  0.00    0.0004679   -0.0065766   -0.0011798
h    -0.5706059    2.8016178   -0.3604729  0.00    0.0003656   -0.0011366   -0.0004149
    13
 Energy =       0.0404912979
c    -3.6946381    1.6723499    0.2510216  0.00    0.0029745    0.0039822    0.0018735
c    -2.4441841    2.5455299    0.2012836  0.00   -0.0034047   -0.0046524   -0.0011574
c    -4.9773164    2.4200740   -0.1917053  0.00    0.0010665    0.0024590   -0.0007786
h    -5.4662536    1.9268556   -1.0663593  0.00   -0.0029405   -0.0023411   -0.0045169
h    -4.7654086    3.4782900   -0.4711565  0.00    0.0004472    0.0016980   -0.0004296
h    -5.7186665    2.4333525    0.6412804  0.00   -0.0032339    0.0001750    0.0036127
n    -3.5561617    0.4426211   -0.5546396  0.00   -0.0060887   -0.0047587   -0.0017255
h    -3.7939269    1.3918419    1.3289501  0.00    0.0001115   -0.0001505    0.0030273
h    -3.4492968    0.7122393   -1.5642646  0.00   -0.0007697    0.0009703   -0.0035952
h    -2.6312704   -0.0008536   -0.3097400  0.00    0.0104028    0.0045784    0.0019744
o    -2.4467670    3.8091888    0.7856819  0.00   -0.0004734    0.0047775    0.0033988
o    -1.2651081    2.0570399   -0.3547031  0.00    0.0008458   -0.0062208   -0.0013084
h    -0.5468771    2.7655345   -0.2657607  0.00    0.0010624   -0.0005169   -0.0003752
    13
 Energy =       0.0399010428
c    -3.6747312    1.6741294    0.2710067  0.00   -0.0002061    0.0003625    0.0015054
c    -2.4568402    2.5914249    0.1549674  0.00   -0.0033722    0.0002768    0.0008932
c    -4.9887298    2.3648876   -0.1638884  0.00    0.0014699   -0.0008015    0.0017286
h    -5.5088118    1.7960495   -0.9733644  0.00   -0.0030668   -0.0027100   -0.0050574
h    -4.8089186    3.4027452   -0.5394901  0.00    0.0012314    0.0050281   -0.0018194
h    -5.6873304    2.4321329    0.7015037  0.00   -0.0020701   -0.0005311    0.0032478
n    -3.5226257    0.4253483   -0.4978164  0.00   -0.0042116   -0.0018828    0.0006664
h    -3.7386995    1.4258726    1.3585294  0.00    0.0001618   -0.0005860    0.0017276
h    -3.3749123    0.6708584   -1.5082000  0.00   -0.0000097    0.0008297   -0.0025132
h    -2.6223933   -0.0349241   -0.2071816  0.00    0.0047823    0.0005562    0.0010113
o    -2.4790920    3.8573247    0.7283811  0.00    0.0003776    0.0014649    0.0007770
o    -1.2920719    2.1536600   -0.4700450  0.00    0.0020975   -0.0036679   -0.0018746
h    -0.6007185    2.8945543   -0.4245138  0.00    0.0028160    0.0016610   -0.0002927
    13
 Energy =       0.0397605932
c    -3.6670938    1.6864435    0.2807387  0.00   -0.0004385    0.0005855   -0.0003516
c    -2.4546263    2.6021333    0.1216082  0.00    0.0000601    0.0003850   -0.0000361
c    -4.9857813    2.3616643   -0.1541012  0.00   -0.0002523    0.0000562   -0.0004688
h    -5.4888669    1.7945419   -0.9656761  0.00    0.0004804    0.0004670    0.0009849
h    -4.8219138    3.3997382   -0.5183715  0.00   -0.0001719   -0.0008773    0.0002588
h    -5.6900217    2.4138376    0.7023720  0.00    0.0002984    0.0002124   -0.0005336
n    -3.5275344    0.4157126   -0.4524817  0.00   -0.0016772   -0.0000799    0.0007737
h    -3.7168800    1.4731668    1.3751462  0.00   -0.0000709   -0.0000639    0.0003534
h    -3.3422620    0.6307367   -1.4630709  0.00    0.0002701    0.0004277   -0.0012663
h    -2.6576367   -0.0710712   -0.1220106  0.00    0.0013464   -0.0011465    0.0002483
o    -2.4628597    3.8708728    0.6868687  0.00   -0.0000504   -0.0001246   -0.0000581
o    -1.3135726    2.1662682   -0.5403352  0.00    0.0002400    0.0001640   -0.0000038
h    -0.6268261    2.9100189   -0.5207982  0.00   -0.0000343   -0.0000058    0.0000992
    13
 Energy =       0.0397569787
c    -3.6697930    1.6879091    0.2850441  0.00   -0.0000242    0.0000791   -0.0000777
c    -2.4541799    2.5994873    0.1298059  0.00   -0.0003365    0.0000145    0.0000917
c    -4.9824803    2.3640051   -0.1671975  0.00   -0.0000444   -0.0000402   -0.0001291
h    -5.4861278    1.7855975   -0.9717788  0.00    0.0000818    0.0000293    0.0001305
h    -4.8097511    3.3952733   -0.5490168  0.00   -0.0000195    0.0000197   -0.0000316
h    -5.6899362    2.4353017    0.6860805  0.00   -0.0000486    0.0000702    0.0000464
n    -3.5263560    0.4115640   -0.4371154  0.00   -0.0003690   -0.0000883    0.0001633
h    -3.7302440    1.4828845    1.3803464  0.00   -0.0000145   -0.0000288    0.0001579
h    -3.3364724    0.6179840   -1.4480819  0.00    0.0000689    0.0001060   -0.0003266
h    -2.6582574   -0.0710128   -0.0984473  0.00    0.0003291   -0.0002673    0.0000583
o    -2.4491321    3.8568498    0.7206821  0.00   -0.0001746    0.0005065    0.0003110
o    -1.3264489    2.1736667   -0.5616862  0.00    0.0005530   -0.0004370   -0.0004260
h    -0.6366962    2.9145535   -0.5387464  0.00   -0.0000015    0.0000363    0.0000318
    13
 Energy =       0.0397564269
c    -3.6714941    1.6896315    0.2871274  0.00    0.0000339    0.0000027    0.0000432
c    -2.4556408    2.6009098    0.1334912  0.00    0.0000792   -0.0000004   -0.0000160
c    -4.9814596    2.3620515   -0.1781533  0.00    0.0000055    0.0000133    0.0000301
h    -5.4828565    1.7750110   -0.9781998  0.00   -0.0000384   -0.0000350   -0.0000804
h    -4.8056377    3.3886334   -0.5711207  0.00   -0.0000013    0.0000665   -0.0000199
h    -5.6920907    2.4439814    0.6715056  0.00   -0.0000198   -0.0000125    0.0000436
n    -3.5225548    0.4086165   -0.4253272  0.00    0.0000760   -0.0000254   -0.0000564
h    -3.7389561    1.4919251    1.3832383  0.00    0.0000064    0.0000034    0.0000036
h    -3.3281210    0.6080478   -1.4366151  0.00   -0.0000121   -0.0000237    0.0000413
h    -2.6555642   -0.0698044   -0.0789521  0.00   -0.0000476    0.0000458   -0.0000020
o    -2.4481968    3.8548261    0.7305740  0.00    0.0000371   -0.0001198   -0.0000783
o    -1.3315657    2.1797359   -0.5657275  0.00   -0.0001194    0.0000943    0.0001009
h    -0.6417372    2.9204981   -0.5419522  0.00    0.0000006   -0.0000092   -0.0000095
    13
 Energy =       0.0397564126
c    -3.6715902    1.6896902    0.2873837  0.00    0.0000036    0.0000003    0.0000043
c    -2.4555905    2.6007981    0.1338533  0.00    0.0000055   -0.0000006   -0.0000009
c    -4.9812226    2.3621189   -0.1786601  0.00    0.0000009    0.0000015    0.0000029
h    -5.4818074    1.7754320   -0.9793643  0.00   -0.0000042   -0.0000038   -0.0000085
h    -4.8052009    3.3888709   -0.5709327  0.00    0.0000000    0.0000069   -0.0000022
h    -5.6926193    2.4435332    0.6703585  0.00   -0.0000023   -0.0000012    0.0000048
n    -3.5225747    0.4083638   -0.4244791  0.00    0.0000075   -0.0000028   -0.0000056
h    -3.7395315    1.4924466    1.3835496  0.00    0.0000006    0.0000003    0.0000006
h    -3.3278453    0.6074202   -1.4358152  0.00   -0.0000011   -0.0000024    0.0000040
h    -2.6556842   -0.0700401   -0.0777503  0.00   -0.0000047    0.0000045   -0.0000001
o    -2.4471319    3.8537594    0.7330828  0.00    0.0000027   -0.0000085   -0.0000054
o    -1.3325645    2.1805643   -0.5677835  0.00   -0.0000087    0.0000063    0.0000068
h    -0.6425121    2.9211062   -0.5435541  0.00    0.0000001   -0.0000006   -0.0000008
    13
 Energy =       0.0397564126
c    -3.6715857    1.6896995    0.2873751  0.00    0.0000000   -0.0000000   -0.0000000
c    -2.4555921    2.6008135    0.1338091  0.00   -0.0000000   -0.0000000    0.0000000
c    -4.9812311    2.3621156   -0.1786352  0.00    0.0000000   -0.0000000    0.0000000
h    -5.4817660    1.7754890   -0.9794015  0.00   -0.0000000   -0.0000000   -0.0000000
h    -4.8052436    3.3889072   -0.5708009  0.00    0.0000000    0.0000000   -0.0000000
h    -5.6926556    2.4434194    0.6703644  0.00   -0.0000000    0.0000000    0.0000000
n    -3.5225881    0.4083705   -0.4244845  0.00   -0.0000000   -0.0000000   -0.0000000
h    -3.7394977    1.4924624    1.3835434  0.00    0.0000000   -0.0000000    0.0000000
h    -3.3278625    0.6074284   -1.4358237  0.00   -0.0000000    0.0000000   -0.0000000
h    -2.6556969   -0.0700474   -0.0777658  0.00    0.0000000   -0.0000000   -0.0000000
o    -2.4471840    3.8538414    0.7329139  0.00   -0.0000000    0.0000000    0.0000000
o    -1.3325085    2.1805072   -0.5677047  0.00    0.0000000   -0.0000000   -0.0000000
h    -0.6424635    2.9210572   -0.5435010  0.00    0.0000000    0.0000000    0.0000000
