    24
 Energy =       0.1361207397
c    -0.3750178    1.6472058    0.7948734  0.00   -0.0659446    0.0166580    0.0567942
c     0.0303172    2.8109335    0.1570437  0.00   -0.0621726    0.0787877    0.0414872
c     1.0081136    2.7718125   -0.8262434  0.00    0.0138762    0.0927090   -0.0295227
c     0.2069418    0.4293490    0.4310970  0.00   -0.0283583   -0.0626283    0.0306049
c     1.2047783    0.3610782   -0.5608861  0.00    0.1030151   -0.0587560   -0.0548052
c     1.5988173    1.5541349   -1.1780186  0.00    0.0404108   -0.0094484   -0.0381690
o    -0.5069839    4.0230167    0.4710260  0.00    0.0144917    0.0066620   -0.0798451
h    -0.9503011    4.3787342   -0.3165291  0.00    0.0298679   -0.0428063    0.0544070
h     2.3707231    1.5818724   -1.9364796  0.00   -0.0026592    0.0152865    0.0036684
h    -0.1206493   -0.4779662    0.9373943  0.00   -0.0034657   -0.0102826   -0.0062425
h    -1.1350442    1.6632136    1.5694669  0.00    0.0004973   -0.0115500    0.0027539
h     1.3163936    3.6907012   -1.3176857  0.00   -0.0003771    0.0007746   -0.0029305
c     1.7669373   -1.0073413   -0.8964724  0.00   -0.0576215   -0.0429647    0.0355872
c     0.8861134   -2.0194266   -1.6556448  0.00    0.1691334   -0.0552189    0.0159469
h     2.1212937   -1.4658931    0.0371405  0.00   -0.0077100    0.0094732   -0.0120357
h     2.6645729   -0.8285312   -1.5058794  0.00   -0.0124882    0.0076426    0.0065068
c    -0.2550706   -2.4993401   -0.7313897  0.00   -0.3797249    0.1474925    0.0935395
o    -1.3218979   -1.9331566   -0.5537303  0.00    0.2658488   -0.1243721   -0.0396070
o     0.0940721   -3.6455349   -0.0862695  0.00    0.0283252    0.0212851   -0.0365373
h    -0.6437886   -4.2813848   -0.2677699  0.00    0.0286499    0.0262812   -0.0161347
n     0.2410616   -1.4915667   -2.9017470  0.00   -0.0478416   -0.0021483   -0.0604029
h     1.4642165   -2.9122299   -1.9206526  0.00   -0.0183749    0.0163729   -0.0056200
h     0.3515070   -0.4710381   -2.9076552  0.00    0.0116437   -0.0334954    0.0077082
h     0.7838113   -1.8074963   -3.7086830  0.00   -0.0190215    0.0142457    0.0328486
    24
 Energy =       0.1153186193
c    -0.3550473    1.6630510    0.7729117  0.00   -0.0497810    0.0116656    0.0430343
c     0.0200622    2.8082829    0.1023084  0.00   -0.0442795    0.0562836    0.0315633
c     1.0010298    2.7587875   -0.8658583  0.00    0.0109915    0.0698802   -0.0218285
c     0.2391125    0.4522724    0.4443944  0.00   -0.0217469   -0.0481536    0.0227883
c     1.2141517    0.3732300   -0.5536190  0.00    0.0780901   -0.0446823   -0.0415038
c     1.5971241    1.5480728   -1.1920857  0.00    0.0307026   -0.0071714   -0.0290293
o    -0.5914819    4.0127547    0.3503409  0.00    0.0099982    0.0099965   -0.0564221
h    -1.0407327    4.3076112   -0.4752822  0.00    0.0204164   -0.0319826    0.0372175
h     2.3623183    1.5557529   -1.9591726  0.00   -0.0018694    0.0115851    0.0026525
h    -0.0688800   -0.4433333    0.9814603  0.00   -0.0027820   -0.0083806   -0.0044461
h    -1.1229397    1.6943148    1.5390331  0.00    0.0001875   -0.0086451    0.0021180
h     1.2910242    3.6690244   -1.3841575  0.00   -0.0002051    0.0011996   -0.0024075
c     1.7881476   -0.9899619   -0.8952861  0.00   -0.0438928   -0.0318629    0.0269778
c     0.8734119   -2.0129672   -1.6075810  0.00    0.1274635   -0.0422444    0.0119336
h     2.1795091   -1.4379486    0.0336043  0.00   -0.0054770    0.0070104   -0.0085425
h     2.6651459   -0.8202575   -1.5432250  0.00   -0.0088017    0.0060901    0.0043195
c    -0.2381706   -2.4935914   -0.6592965  0.00   -0.2895910    0.1114855    0.0679701
o    -1.3313322   -1.8964011   -0.4639823  0.00    0.2018757   -0.0946929   -0.0290743
o     0.1058541   -3.6155322    0.0410460  0.00    0.0382821    0.0293029   -0.0174005
h    -0.5524899   -4.3183669   -0.2615465  0.00    0.0062732    0.0071640   -0.0204094
n     0.2291590   -1.5010656   -2.8545814  0.00   -0.0370524   -0.0016021   -0.0445916
h     1.4538973   -2.9129971   -1.8611027  0.00   -0.0139890    0.0122823   -0.0041844
h     0.3328792   -0.4753185   -2.8925021  0.00    0.0090089   -0.0246262    0.0055894
h     0.7491647   -1.8542668   -3.6695144  0.00   -0.0138220    0.0100982    0.0236758
    24
 Energy =       0.1116937024
c    -0.3250629    1.6401331    0.8132399  0.00   -0.0454897    0.0107903    0.0392343
c     0.0455047    2.7926035    0.1578106  0.00   -0.0396014    0.0492871    0.0280543
c     0.9979990    2.7512257   -0.8359922  0.00    0.0103959    0.0634461   -0.0203991
c     0.2539406    0.4329520    0.4565163  0.00   -0.0198217   -0.0442044    0.0208936
c     1.2096042    0.3656194   -0.5570238  0.00    0.0713932   -0.0408081   -0.0378336
c     1.5813721    1.5446061   -1.1896702  0.00    0.0283434   -0.0068344   -0.0266577
o    -0.5290833    4.0033343    0.4719249  0.00    0.0096122    0.0105730   -0.0468445
h    -1.0240758    4.3390933   -0.3165291  0.00    0.0164941   -0.0276365    0.0306691
h     2.3302352    1.5568454   -1.9734310  0.00   -0.0014959    0.0105017    0.0022015
h    -0.0489790   -0.4693970    0.9856939  0.00   -0.0026016   -0.0077742   -0.0040404
h    -1.0714755    1.6680294    1.6010447  0.00   -0.0001831   -0.0077181    0.0022843
h     1.2853314    3.6686362   -1.3426829  0.00   -0.0001943    0.0012198   -0.0022281
c     1.7811107   -0.9904865   -0.9296132  0.00   -0.0399782   -0.0291357    0.0244582
c     0.8492510   -1.9987852   -1.6404378  0.00    0.1163331   -0.0385171    0.0110705
h     2.1877448   -1.4547187   -0.0139246  0.00   -0.0048322    0.0062690   -0.0075461
h     2.6478328   -0.8139136   -1.5911321  0.00   -0.0079180    0.0055094    0.0037937
c    -0.2559478   -2.4819233   -0.6889785  0.00   -0.2644810    0.1015052    0.0619808
o    -1.3633534   -1.8851558   -0.5021691  0.00    0.1840681   -0.0865896   -0.0267091
o     0.0811938   -3.6063256    0.0135742  0.00    0.0443570    0.0373751   -0.0096265
h    -0.4955791   -4.3441213   -0.3892882  0.00   -0.0033375   -0.0036794   -0.0247777
n     0.2067181   -1.4697675   -2.8794859  0.00   -0.0341373   -0.0014130   -0.0406076
h     1.4229216   -2.9017815   -1.9045983  0.00   -0.0127336    0.0111068   -0.0038274
h     0.3237870   -0.4438873   -2.9152775  0.00    0.0082551   -0.0223071    0.0051122
h     0.7099271   -1.8316687   -3.7032643  0.00   -0.0124468    0.0090341    0.0213452
    24
 Energy =       0.1153643631
c    -0.3633080    1.6519706    0.8004858  0.00   -0.0452760    0.0108118    0.0390496
c     0.0070368    2.8015521    0.1401082  0.00   -0.0392716    0.0487234    0.0278679
c     0.9728743    2.7588425   -0.8407249  0.00    0.0104033    0.0630957   -0.0203425
c     0.2262454    0.4456397    0.4584754  0.00   -0.0197310   -0.0440042    0.0208194
c     1.1939285    0.3766351   -0.5436018  0.00    0.0709623   -0.0404565   -0.0375868
c     1.5671494    1.5533003   -1.1793113  0.00    0.0282543   -0.0068952   -0.0265583
o    -0.5872085    4.0094905    0.4297093  0.00    0.0094823    0.0108680   -0.0459812
h    -1.0724945    4.3272736   -0.3728854  0.00    0.0161496   -0.0273135    0.0300873
h     2.3269566    1.5645811   -1.9526406  0.00   -0.0013979    0.0104162    0.0021053
h    -0.0781985   -0.4545760    0.9904314  0.00   -0.0025902   -0.0077087   -0.0039810
h    -1.1211321    1.6807723    1.5774315  0.00   -0.0002789   -0.0076334    0.0023612
h     1.2598981    3.6741961   -1.3513329  0.00   -0.0001955    0.0012325   -0.0022173
c     1.7843185   -0.9775025   -0.8937919  0.00   -0.0396187   -0.0290510    0.0243678
c     0.8744387   -2.0016507   -1.6114383  0.00    0.1157742   -0.0383311    0.0113060
h     2.1790757   -1.4286919    0.0339348  0.00   -0.0046746    0.0061959   -0.0073151
h     2.6618163   -0.7989504   -1.5407512  0.00   -0.0077295    0.0054230    0.0036716
c    -0.2407674   -2.4873353   -0.6713549  0.00   -0.2635284    0.1006832    0.0606598
o    -1.3536452   -1.8943883   -0.5043027  0.00    0.1828440   -0.0864394   -0.0265692
o     0.0800507   -3.6255133    0.0168535  0.00    0.0622842    0.0671395    0.0143836
h    -0.3444272   -4.3962317   -0.5480413  0.00   -0.0209175   -0.0329825   -0.0477930
n     0.2450807   -1.4890717   -2.8641585  0.00   -0.0343336   -0.0013185   -0.0404694
h     1.4640020   -2.8991196   -1.8592594  0.00   -0.0125613    0.0107595   -0.0038970
h     0.3569792   -0.4629172   -2.9107169  0.00    0.0081876   -0.0220755    0.0050318
h     0.7622477   -1.8571590   -3.6768124  0.00   -0.0122371    0.0088608    0.0209995
    24
 Energy =       0.1051257632
c    -0.2904727    1.6295943    0.8373893  0.00   -0.0368610    0.0090659    0.0313657
c     0.0645639    2.7808074    0.1822557  0.00   -0.0311832    0.0371422    0.0214034
c     0.9867752    2.7415621   -0.8346734  0.00    0.0090669    0.0504790   -0.0172391
c     0.2773149    0.4276730    0.4665037  0.00   -0.0163652   -0.0354981    0.0172377
c     1.2046309    0.3650504   -0.5661087  0.00    0.0574205   -0.0323812   -0.0300382
c     1.5591496    1.5403465   -1.2049498  0.00    0.0233732   -0.0059629   -0.0216058
o    -0.4913338    3.9938715    0.5403848  0.00    0.0096786    0.0094218   -0.0302072
h    -1.0443282    4.3432514   -0.2141323  0.00    0.0091982   -0.0196934    0.0195101
h     2.2884084    1.5488631   -2.0089564  0.00   -0.0004708    0.0082405    0.0009661
h    -0.0121502   -0.4750173    1.0020715  0.00   -0.0022457   -0.0062816   -0.0030630
h    -1.0151185    1.6608802    1.6463518  0.00   -0.0009905   -0.0059334    0.0027138
h     1.2646066    3.6614124   -1.3415116  0.00   -0.0001030    0.0010459   -0.0018552
c     1.7799510   -0.9836319   -0.9642438  0.00   -0.0317331   -0.0231539    0.0195702
c     0.8223729   -1.9877521   -1.6514000  0.00    0.0927040   -0.0307399    0.0087466
h     2.2152372   -1.4532673   -0.0606887  0.00   -0.0030199    0.0046478   -0.0049068
h     2.6291619   -0.8057301   -1.6523866  0.00   -0.0053230    0.0042629    0.0020873
c    -0.2632246   -2.4691966   -0.6814885  0.00   -0.2126895    0.0821811    0.0475093
o    -1.3975601   -1.8698987   -0.5056748  0.00    0.1471822   -0.0695222   -0.0210250
o     0.0729794   -3.5800193    0.0522269  0.00    0.0514022    0.0550125    0.0151380
h    -0.3725457   -4.3711496   -0.4549554  0.00   -0.0178751   -0.0288742   -0.0405225
n     0.1756412   -1.4554954   -2.8840453  0.00   -0.0291848   -0.0004285   -0.0314235
h     1.3923039   -2.8957361   -1.9195805  0.00   -0.0098070    0.0083096   -0.0034155
h     0.3064879   -0.4290623   -2.9373954  0.00    0.0067081   -0.0174054    0.0040864
h     0.6480660   -1.8462091   -3.7186869  0.00   -0.0088823    0.0060657    0.0149675
    24
 Energy =       0.1045140345
c    -0.2396651    1.6465076    0.8276340  0.00   -0.0357314    0.0087495    0.0304104
c     0.1081327    2.7904202    0.1577958  0.00   -0.0302014    0.0358265    0.0206743
c     1.0079539    2.7384521   -0.8778937  0.00    0.0089525    0.0487605   -0.0168534
c     0.3140952    0.4398021    0.4548740  0.00   -0.0160907   -0.0341489    0.0169763
c     1.2149822    0.3631099   -0.5995002  0.00    0.0556596   -0.0311928   -0.0290750
c     1.5633288    1.5313967   -1.2533709  0.00    0.0227354   -0.0057695   -0.0210377
o    -0.4293134    4.0100310    0.5240139  0.00    0.0093777    0.0091979   -0.0286195
h    -0.9990308    4.3613146   -0.2181109  0.00    0.0086687   -0.0189179    0.0185412
h     2.2734578    1.5289024   -2.0747689  0.00   -0.0001858    0.0079448    0.0006207
h     0.0349965   -0.4545618    1.0089950  0.00   -0.0023125   -0.0062242   -0.0027424
h    -0.9449417    1.6886210    1.6534219  0.00   -0.0012198   -0.0057264    0.0029263
h     1.2816233    3.6533000   -1.3959890  0.00   -0.0000311    0.0010558   -0.0018746
c     1.7684187   -0.9932548   -1.0076892  0.00   -0.0305556   -0.0215070    0.0195256
c     0.7752004   -2.0047326   -1.6353218  0.00    0.0892191   -0.0295495    0.0074660
h     2.2438363   -1.4513022   -0.1172384  0.00   -0.0024403    0.0043656   -0.0038674
h     2.5859349   -0.8288069   -1.7386899  0.00   -0.0040495    0.0042881    0.0010663
c    -0.2834769   -2.4500004   -0.6177940  0.00   -0.2064554    0.0817672    0.0440601
o    -1.4194365   -1.8466475   -0.4422357  0.00    0.1419558   -0.0673318   -0.0200756
o     0.0829868   -3.5126787    0.1766622  0.00    0.0509803    0.0517341    0.0189310
h    -0.3370343   -4.3381890   -0.2962023  0.00   -0.0183356   -0.0298141   -0.0402703
n     0.0987385   -1.4959609   -2.8621551  0.00   -0.0288547   -0.0005679   -0.0304384
h     1.3260997   -2.9265611   -1.8979489  0.00   -0.0093473    0.0077820   -0.0037138
h     0.2293145   -0.4701958   -2.9398348  0.00    0.0065091   -0.0163078    0.0037951
h     0.5447158   -1.9078194   -3.7023471  0.00   -0.0082472    0.0055859    0.0135747
    24
 Energy =       0.1011114533
c    -0.2762697    1.6195487    0.8524240  0.00   -0.0330562    0.0081094    0.0282297
c     0.0707819    2.7714612    0.1983102  0.00   -0.0278529    0.0330702    0.0191384
c     0.9839038    2.7364428   -0.8246779  0.00    0.0083854    0.0450973   -0.0157246
c     0.2896543    0.4213382    0.4755332  0.00   -0.0150239   -0.0314389    0.0159523
c     1.2077477    0.3642896   -0.5627047  0.00    0.0515842   -0.0287011   -0.0269050
c     1.5547657    1.5393457   -1.2016586  0.00    0.0210881   -0.0053835   -0.0196351
o    -0.4864296    3.9821769    0.5670548  0.00    0.0086062    0.0086266   -0.0262256
h    -1.0670397    4.3242951   -0.1727064  0.00    0.0078675   -0.0173928    0.0170167
h     2.2776222    1.5486303   -2.0123132  0.00   -0.0000236    0.0073290    0.0004018
h     0.0046820   -0.4841882    1.0096877  0.00   -0.0022984   -0.0060647   -0.0023918
h    -0.9954420    1.6494174    1.6667712  0.00   -0.0012900   -0.0052843    0.0028950
h     1.2561511    3.6582094   -1.3310445  0.00    0.0000191    0.0010435   -0.0018006
c     1.7861583   -0.9795173   -0.9725209  0.00   -0.0281905   -0.0188019    0.0188556
c     0.8204617   -1.9753352   -1.6684435  0.00    0.0823067   -0.0271292    0.0059109
h     2.2209699   -1.4581762   -0.0703870  0.00   -0.0018397    0.0038598   -0.0025174
h     2.6383801   -0.7983588   -1.6613496  0.00   -0.0025184    0.0042271    0.0000353
c    -0.2613583   -2.4726618   -0.7005628  0.00   -0.1918920    0.0784669    0.0391521
o    -1.4019062   -1.8667733   -0.5118679  0.00    0.1309471   -0.0622810   -0.0184537
o     0.0688218   -3.5947945    0.0312761  0.00    0.0492661    0.0466675    0.0231426
h    -0.4099868   -4.3803058   -0.4549554  0.00   -0.0188540   -0.0308315   -0.0393719
n     0.1758911   -1.4265478   -2.8950511  0.00   -0.0271742   -0.0007731   -0.0293316
h     1.3901667   -2.8820560   -1.9487261  0.00   -0.0085383    0.0067749   -0.0039624
h     0.3210016   -0.4003188   -2.9484917  0.00    0.0060179   -0.0143624    0.0033110
h     0.6321898   -1.8249753   -3.7372900  0.00   -0.0075359    0.0051722    0.0122782
    24
 Energy =       0.0957846415
c    -0.3017338    1.5871662    0.8837147  0.00   -0.0277728    0.0068608    0.0238217
c     0.0381794    2.7462773    0.2441492  0.00   -0.0232491    0.0277338    0.0160796
c     0.9567396    2.7292531   -0.7704864  0.00    0.0071143    0.0379181   -0.0133322
c     0.2746313    0.3995677    0.5002735  0.00   -0.0127085   -0.0263315    0.0135994
c     1.2003205    0.3633939   -0.5268624  0.00    0.0434300   -0.0239431   -0.0224885
c     1.5405956    1.5441659   -1.1523772  0.00    0.0177575   -0.0046046   -0.0166810
o    -0.5378821    3.9471250    0.6210332  0.00    0.0078649    0.0070488   -0.0211657
h    -1.1494716    4.2728986   -0.1051762  0.00    0.0057621   -0.0141997    0.0134863
h     2.2701594    1.5644900   -1.9571640  0.00    0.0000524    0.0061311    0.0002419
h    -0.0101423   -0.5166122    1.0169122  0.00   -0.0020594   -0.0054404   -0.0019642
h    -1.0288540    1.6052079    1.6910054  0.00   -0.0011748   -0.0044202    0.0025366
h     1.2234266    3.6582818   -1.2660874  0.00    0.0000519    0.0009582   -0.0015715
c     1.8035190   -0.9656015   -0.9448673  0.00   -0.0236064   -0.0147649    0.0166982
c     0.8637250   -1.9404915   -1.7067991  0.00    0.0692178   -0.0224634    0.0041121
h     2.2009414   -1.4696800   -0.0373525  0.00   -0.0012338    0.0030430   -0.0011055
h     2.6857749   -0.7672567   -1.5924943  0.00   -0.0010029    0.0038399   -0.0007684
c    -0.2369177   -2.4921852   -0.7930818  0.00   -0.1623675    0.0680875    0.0315904
o    -1.3837536   -1.8763401   -0.5803744  0.00    0.1097306   -0.0518750   -0.0153911
o     0.0572433   -3.6688661   -0.1274771  0.00    0.0454107    0.0400458    0.0265707
h    -0.5037613   -4.4071824   -0.5984548  0.00   -0.0195243   -0.0311645   -0.0370268
n     0.2536201   -1.3480821   -2.9296101  0.00   -0.0234086   -0.0007910   -0.0261729
h     1.4533018   -2.8313053   -2.0044702  0.00   -0.0070696    0.0052562   -0.0038965
h     0.4190401   -0.3226123   -2.9623551  0.00    0.0050713   -0.0112895    0.0025735
h     0.7122158   -1.7404655   -3.7752918  0.00   -0.0062857    0.0043647    0.0102540
    24
 Energy =       0.0906902734
c    -0.3097497    1.5521157    0.9206550  0.00   -0.0220633    0.0054854    0.0189778
c     0.0203470    2.7180560    0.2947669  0.00   -0.0183203    0.0219850    0.0126923
c     0.9368521    2.7183295   -0.7174254  0.00    0.0056806    0.0301262   -0.0106926
c     0.2728405    0.3751447    0.5263372  0.00   -0.0101418   -0.0208663    0.0109225
c     1.1963870    0.3584176   -0.4973863  0.00    0.0345769   -0.0188543   -0.0176284
c     1.5280027    1.5447966   -1.1099693  0.00    0.0141450   -0.0037192   -0.0133789
o    -0.5677673    3.9098941    0.6865748  0.00    0.0077422    0.0050572   -0.0151458
h    -1.2221571    4.2165324   -0.0154901  0.00    0.0029169   -0.0105590    0.0091215
h     2.2577553    1.5754275   -1.9145031  0.00    0.0000740    0.0048334    0.0001264
h    -0.0071320   -0.5501178    1.0292215  0.00   -0.0016983   -0.0045932   -0.0015427
h    -1.0378875    1.5590610    1.7267081  0.00   -0.0009840   -0.0034895    0.0020663
h     1.1965314    3.6546037   -1.2025884  0.00    0.0000708    0.0008515   -0.0013021
c     1.8160641   -0.9569276   -0.9320671  0.00   -0.0186144   -0.0109234    0.0138501
c     0.8942222   -1.9059433   -1.7494300  0.00    0.0550868   -0.0174583    0.0029107
h     2.1848115   -1.4894445   -0.0271906  0.00   -0.0007783    0.0021835   -0.0001097
h     2.7195525   -0.7438097   -1.5463346  0.00   -0.0001149    0.0032949   -0.0010922
c    -0.2218894   -2.5017659   -0.8868491  0.00   -0.1298611    0.0547279    0.0235177
o    -1.3678944   -1.8657103   -0.6364280  0.00    0.0865399   -0.0397795   -0.0119586
o     0.0376134   -3.7243008   -0.2862302  0.00    0.0435993    0.0351960    0.0293784
h    -0.6193836   -4.4086774   -0.7126922  0.00   -0.0222344   -0.0319387   -0.0350396
n     0.3171855   -1.2710257   -2.9653414  0.00   -0.0192114   -0.0007116   -0.0221726
h     1.4983147   -2.7840635   -2.0623130  0.00   -0.0055617    0.0038716   -0.0034912
h     0.5061346   -0.2477278   -2.9799634  0.00    0.0040876   -0.0081436    0.0018707
h     0.7721636   -1.6617181   -3.8157557  0.00   -0.0049363    0.0034239    0.0081199
    24
 Energy =       0.0867426323
c    -0.2888036    1.5171866    0.9674609  0.00   -0.0170885    0.0042990    0.0146671
c     0.0327741    2.6891050    0.3542171  0.00   -0.0140900    0.0168855    0.0096250
c     0.9380373    2.7028440   -0.6640243  0.00    0.0043609    0.0232855   -0.0083360
c     0.2901912    0.3481854    0.5552165  0.00   -0.0078891   -0.0160705    0.0085243
c     1.2001093    0.3460445   -0.4757392  0.00    0.0268428   -0.0143780   -0.0133888
c     1.5251067    1.5375756   -1.0757058  0.00    0.0110047   -0.0029687   -0.0104077
o    -0.5542083    3.8752057    0.7692377  0.00    0.0082494    0.0032317   -0.0092526
h    -1.2578669    4.1645158    0.1029955  0.00   -0.0001724   -0.0072245    0.0048038
h     2.2468035    1.5759101   -1.8873429  0.00    0.0001063    0.0036682   -0.0000001
h     0.0161461   -0.5840014    1.0478822  0.00   -0.0013105   -0.0037095   -0.0011559
h    -1.0092952    1.5156870    1.7799446  0.00   -0.0008303   -0.0026586    0.0016591
h     1.1922118    3.6455638   -1.1390855  0.00    0.0000709    0.0007381   -0.0010430
c     1.8189329   -0.9603551   -0.9381472  0.00   -0.0140491   -0.0078114    0.0108682
c     0.8984036   -1.8741513   -1.7982142  0.00    0.0425256   -0.0132470    0.0025156
h     2.1673937   -1.5255509   -0.0439822  0.00   -0.0003905    0.0013363    0.0005703
h     2.7353851   -0.7392850   -1.5303040  0.00    0.0001751    0.0027208   -0.0010355
c    -0.2337591   -2.4943107   -0.9782724  0.00   -0.1001197    0.0416320    0.0155423
o    -1.3621012   -1.8215342   -0.6706922  0.00    0.0649545   -0.0274636   -0.0084719
o    -0.0165089   -3.7586913   -0.4449833  0.00    0.0437145    0.0301171    0.0306329
h    -0.7645890   -4.3806763   -0.8125596  0.00   -0.0257097   -0.0317949   -0.0325928
n     0.3529956   -1.1954935   -3.0035024  0.00   -0.0156833   -0.0006934   -0.0184025
h     1.5039479   -2.7475531   -2.1263532  0.00   -0.0042900    0.0027824   -0.0028397
h     0.5728665   -0.1768469   -3.0009961  0.00    0.0033171   -0.0051533    0.0013366
h     0.7967441   -1.5882273   -3.8607443  0.00   -0.0036989    0.0024768    0.0061813
    24
 Energy =       0.0853030885
c    -0.2203712    1.5010287    1.0145647  0.00   -0.0146894    0.0039309    0.0125278
c     0.0997832    2.6731016    0.4041995  0.00   -0.0120638    0.0140595    0.0080580
c     0.9808666    2.6846449   -0.6333955  0.00    0.0036693    0.0198405   -0.0071069
c     0.3355298    0.3302838    0.5808508  0.00   -0.0068729   -0.0135495    0.0074314
c     1.2170975    0.3257779   -0.4723283  0.00    0.0229439   -0.0118905   -0.0114340
c     1.5430849    1.5171678   -1.0687461  0.00    0.0095435   -0.0028502   -0.0089423
o    -0.4630489    3.8629212    0.8448992  0.00    0.0083990    0.0027499   -0.0057110
h    -1.2048645    4.1490339    0.2166821  0.00   -0.0019131   -0.0055199    0.0024582
h     2.2449203    1.5519809   -1.8981653  0.00    0.0003365    0.0029744   -0.0002996
h     0.0632382   -0.6024753    1.0727669  0.00   -0.0010745   -0.0031067   -0.0008880
h    -0.9213104    1.5023571    1.8440525  0.00   -0.0009463   -0.0021485    0.0016607
h     1.2353441    3.6284581   -1.1057656  0.00    0.0000575    0.0006393   -0.0008815
c     1.8038986   -0.9845148   -0.9677656  0.00   -0.0110719   -0.0064677    0.0089558
c     0.8522484   -1.8587722   -1.8372108  0.00    0.0357345   -0.0113556    0.0023842
h     2.1473767   -1.5775365   -0.0893136  0.00   -0.0000502    0.0008404    0.0008379
h     2.7200971   -0.7728741   -1.5635123  0.00    0.0002304    0.0022803   -0.0008676
c    -0.2936419   -2.4638187   -1.0266651  0.00   -0.0822773    0.0331019    0.0104458
o    -1.3811131   -1.7387571   -0.6537814  0.00    0.0511386   -0.0189699   -0.0056774
o    -0.1239640   -3.7545400   -0.5380931  0.00    0.0417521    0.0255249    0.0289188
h    -0.9233421   -4.3269053   -0.8702949  0.00   -0.0253235   -0.0296810   -0.0295724
n     0.3257477   -1.1463257   -3.0302382  0.00   -0.0143726   -0.0009216   -0.0158499
h     1.4344638   -2.7438953   -2.1796426  0.00   -0.0034127    0.0019153   -0.0024117
h     0.5839672   -0.1355977   -3.0204933  0.00    0.0030864   -0.0030379    0.0011860
h     0.7449093   -1.5495967   -3.8962983  0.00   -0.0028234    0.0016414    0.0047776
    24
 Energy =       0.0847601236
c    -0.3163462    1.4969500    0.9782931  0.00   -0.0160317    0.0046263    0.0136539
c     0.0003329    2.6754695    0.3772906  0.00   -0.0130331    0.0146533    0.0086623
c     0.9128358    2.7037376   -0.6341033  0.00    0.0040146    0.0212976   -0.0077262
c     0.2747565    0.3359989    0.5609205  0.00   -0.0077245   -0.0143542    0.0083542
c     1.1924880    0.3489786   -0.4630341  0.00    0.0246199   -0.0122336   -0.0124300
c     1.5123337    1.5468327   -1.0509423  0.00    0.0105561   -0.0034892   -0.0098097
o    -0.5998594    3.8542300    0.7993709  0.00    0.0091252    0.0035252   -0.0044752
h    -1.3189875    4.1320735    0.1407509  0.00   -0.0028938   -0.0055886    0.0017099
h     2.2408060    1.5958862   -1.8573496  0.00    0.0008862    0.0030088   -0.0008745
h     0.0047215   -0.6020892    1.0441674  0.00   -0.0011622   -0.0032371   -0.0007464
h    -1.0431608    1.4847684    1.7861067  0.00   -0.0014826   -0.0021509    0.0022581
h     1.1632062    3.6522677   -1.0993928  0.00    0.0000992    0.0007172   -0.0009789
c     1.8309458   -0.9476981   -0.9318491  0.00   -0.0105695   -0.0068400    0.0094946
c     0.9292678   -1.8587474   -1.8179740  0.00    0.0377016   -0.0120584    0.0019985
h     2.1717008   -1.5218049   -0.0394513  0.00    0.0002427    0.0007768    0.0011039
h     2.7553604   -0.7131294   -1.5070178  0.00    0.0007492    0.0023788   -0.0011037
c    -0.2043716   -2.5088050   -1.0243860  0.00   -0.0838780    0.0327201    0.0092874
o    -1.3477205   -1.8439076   -0.7056703  0.00    0.0491114   -0.0167370   -0.0046208
o     0.0152659   -3.7887971   -0.5233443  0.00    0.0455973    0.0261403    0.0313433
h    -0.7645890   -4.3921473   -0.8550391  0.00   -0.0275650   -0.0321124   -0.0315783
n     0.3911908   -1.1657918   -3.0183358  0.00   -0.0165284   -0.0017085   -0.0161985
h     1.5513312   -2.7204255   -2.1525069  0.00   -0.0030159    0.0011882   -0.0028451
h     0.6062858   -0.1442804   -3.0023359  0.00    0.0035717   -0.0015980    0.0013802
h     0.8431232   -1.5484228   -3.8778619  0.00   -0.0023905    0.0010752    0.0041409
    24
 Energy =       0.0836206304
c    -0.2677488    1.4789019    1.0198069  0.00   -0.0135530    0.0041579    0.0115505
c     0.0450220    2.6651714    0.4347643  0.00   -0.0108456    0.0120132    0.0071058
c     0.9354435    2.7050718   -0.5936792  0.00    0.0033259    0.0180334   -0.0065069
c     0.3053508    0.3223182    0.5701940  0.00   -0.0064419   -0.0122054    0.0070889
c     1.1981030    0.3476242   -0.4727144  0.00    0.0206401   -0.0101612   -0.0102362
c     1.5153417    1.5526823   -1.0443663  0.00    0.0091225   -0.0032107   -0.0083256
o    -0.5353931    3.8412645    0.8935838  0.00    0.0096576    0.0029641   -0.0011382
h    -1.2978441    4.1152074    0.2804424  0.00   -0.0047793   -0.0037694   -0.0006253
h     2.2260141    1.6095868   -1.8662828  0.00    0.0009930    0.0023712   -0.0010041
h     0.0424090   -0.6215215    1.0449887  0.00   -0.0009998   -0.0028541   -0.0006093
h    -0.9755354    1.4588471    1.8441280  0.00   -0.0014193   -0.0016482    0.0021743
h     1.1842285    3.6603739   -1.0457314  0.00    0.0001342    0.0007119   -0.0008586
c     1.8163817   -0.9426283   -0.9854044  0.00   -0.0085194   -0.0061001    0.0080968
c     0.8889270   -1.8301334   -1.8696626  0.00    0.0336137   -0.0098905    0.0041442
h     2.1776088   -1.5382016   -0.1147175  0.00    0.0004465    0.0002898    0.0014074
h     2.7278998   -0.7021613   -1.5785614  0.00    0.0008340    0.0017904   -0.0011544
c    -0.1841316   -2.5541334   -1.0547299  0.00   -0.0656399    0.0266072    0.0034787
o    -1.3166796   -1.9260980   -0.5978558  0.00    0.0305091   -0.0072844    0.0007381
o     0.0870414   -3.8632415   -0.6515330  0.00    0.0457787    0.0155025    0.0312047
h    -0.7282694   -4.4469405   -0.9176766  0.00   -0.0272818   -0.0277860   -0.0287026
n     0.2775510   -1.0945665   -3.0114369  0.00   -0.0175462    0.0024669   -0.0145208
h     1.5185499   -2.6593358   -2.2758440  0.00   -0.0004383   -0.0012035   -0.0032377
h     0.4762770   -0.0702643   -2.9680572  0.00    0.0028487   -0.0004927    0.0005589
h     0.6843701   -1.4366768   -3.9133489  0.00   -0.0004393   -0.0003022   -0.0006289
    24
 Energy =       0.0808485797
c    -0.3334161    1.4515479    1.0025476  0.00   -0.0126227    0.0038168    0.0108957
c    -0.0138442    2.6454319    0.4378972  0.00   -0.0100258    0.0109162    0.0066556
c     0.9043194    2.7022293   -0.5648096  0.00    0.0033296    0.0165169   -0.0062907
c     0.2607613    0.3042630    0.5581882  0.00   -0.0062821   -0.0110585    0.0069939
c     1.1849192    0.3477499   -0.4563931  0.00    0.0190183   -0.0091009   -0.0094172
c     1.5070714    1.5598264   -1.0087045  0.00    0.0086218   -0.0029392   -0.0078638
o    -0.6177103    3.8122845    0.8910292  0.00    0.0086038    0.0029046   -0.0006500
h    -1.3757540    4.0771252    0.2685643  0.00   -0.0044711   -0.0033858   -0.0006670
h     2.2419157    1.6300959   -1.8086836  0.00    0.0013536    0.0021710   -0.0013919
h    -0.0115050   -0.6470420    1.0132853  0.00   -0.0012009   -0.0028773   -0.0004166
h    -1.0652141    1.4184649    1.8056698  0.00   -0.0017069   -0.0015135    0.0024428
h     1.1574430    3.6637634   -1.0011123  0.00    0.0002340    0.0007471   -0.0009179
c     1.8381250   -0.9300786   -0.9564035  0.00   -0.0072714   -0.0057717    0.0078279
c     0.9470325   -1.8212458   -1.8723379  0.00    0.0315847   -0.0095783    0.0042564
h     2.1790061   -1.5265438   -0.0780073  0.00    0.0005317    0.0002567    0.0015351
h     2.7648725   -0.6758983   -1.5203907  0.00    0.0012936    0.0016726   -0.0013652
c    -0.1615645   -2.5345500   -1.0969708  0.00   -0.0522783    0.0212588    0.0015468
o    -1.3472681   -1.9148924   -0.7566089  0.00    0.0187525   -0.0021954    0.0029976
o     0.0925015   -3.8324214   -0.6489749  0.00    0.0437538    0.0140249    0.0286348
h    -0.7420785   -4.4063204   -0.8671192  0.00   -0.0265367   -0.0266508   -0.0262669
n     0.3864421   -1.0895433   -3.0424781  0.00   -0.0173554    0.0032179   -0.0139043
h     1.5905719   -2.6553113   -2.2462728  0.00    0.0001320   -0.0014191   -0.0031840
h     0.5893303   -0.0659633   -2.9994400  0.00    0.0024993   -0.0004683    0.0001898
h     0.8249602   -1.4418251   -3.9261689  0.00    0.0000426   -0.0005447   -0.0016411
    24
 Energy =       0.0775819590
c    -0.3971431    1.4125875    0.9927269  0.00   -0.0101774    0.0030370    0.0089810
c    -0.0776610    2.6166355    0.4528492  0.00   -0.0079135    0.0085430    0.0054137