    13
 Energy =       0.1033773035
c    -3.7133889    1.6950595    0.3173519  0.00   -0.0443451   -0.0174657    0.0095377
c    -2.4962693    2.6345192    0.2419999  0.00    0.0734045    0.3820861    0.1091422
c    -4.9565486    2.3924193   -0.2155699  0.00    0.0181343    0.0080664    0.0129217
h    -5.3251685    1.8809395   -1.1121297  0.00    0.0172289   -0.0151057    0.0166822
h    -4.7411586    3.4296290   -0.4944269  0.00    0.0059042   -0.0206645    0.0062790
h    -5.7692484    2.3924493    0.5188399  0.00    0.0085401    0.0007486   -0.0146303
n    -3.4097890    0.4519539   -0.4549189  0.00    0.0484533   -0.0465040   -0.0132215
h    -3.8575589    1.4177196    1.3669296  0.00    0.0026980   -0.0123623   -0.0260085
h    -3.2072391   -0.2948399    0.2179739  0.00   -0.0187424    0.0277604   -0.0182320
h    -4.2689788    0.1396900   -0.9176007  0.00    0.0124901    0.0377350    0.0206597
o    -2.4571893    3.7760389    0.6681628  0.00   -0.0085735   -0.2823034   -0.1115982
o    -1.4389296    2.0221094   -0.3549299  0.00   -0.0754846   -0.0524462   -0.0027761
h    -0.6872378    2.6609292   -0.2711979  0.00   -0.0397078   -0.0095445    0.0112441
    13
 Energy =       0.0768097280
c    -3.7214684    1.6662755    0.3355008  0.00   -0.0283073   -0.0119006    0.0070871
c    -2.4634265    2.5401125    0.3007187  0.00    0.0487998    0.2378855    0.0688372
c    -4.9249724    2.4350939   -0.2362779  0.00    0.0106494    0.0048285    0.0067266
h    -5.3275349    1.9428272   -1.1349367  0.00    0.0108062   -0.0099647    0.0100399
h    -4.6433469    3.4612976   -0.5347189  0.00    0.0043080   -0.0105010    0.0030690
h    -5.7421523    2.5094204    0.5017893  0.00    0.0029931    0.0011031   -0.0077808
n    -3.4663620    0.4160681   -0.4286490  0.00    0.0370096   -0.0251539   -0.0078737
h    -3.9096462    1.4093195    1.3918473  0.00    0.0014723   -0.0084509   -0.0153585
h    -3.3175648   -0.3551166    0.2460539  0.00   -0.0120357    0.0147985   -0.0096382
h    -4.3153814    0.1413535   -0.9531527  0.00    0.0038855    0.0233465    0.0103231
o    -2.4312711    3.7418618    0.7519005  0.00   -0.0070760   -0.1757680   -0.0694820
o    -1.3745496    1.9659488   -0.2996401  0.00   -0.0811958   -0.0738475    0.0063954
h    -0.6910282    2.7241548   -0.4299510  0.00    0.0086910    0.0336243   -0.0023451
    13
 Energy =       0.0612665532
c    -3.7147561    1.6763770    0.3184086  0.00   -0.0132620    0.0013379    0.0026532
c    -2.4397266    2.5116768    0.2354589  0.00    0.0158068    0.0875033    0.0234161
c    -4.9309077    2.4393571   -0.2631767  0.00    0.0065542    0.0012560    0.0025637
h    -5.4008267    1.9187140   -1.1219285  0.00    0.0027388   -0.0058375    0.0014488
h    -4.6401181    3.4510438   -0.6236854  0.00    0.0027294   -0.0022082    0.0003373
h    -5.7091491    2.5774356    0.5183780  0.00   -0.0008716    0.0008991    0.0000816
n    -3.5133792    0.3685500   -0.3571913  0.00    0.0279129   -0.0048467   -0.0094035
h    -3.8838201    1.5123124    1.4079669  0.00   -0.0003452   -0.0024767   -0.0012069
h    -3.4763180   -0.3903718    0.3681157  0.00   -0.0044837   -0.0042248    0.0053121
h    -4.3154524    0.1230333   -0.9839471  0.00   -0.0079722    0.0091076   -0.0022481
o    -2.4011109    3.7751166    0.7160488  0.00   -0.0022780   -0.0642322   -0.0244732
o    -1.3051720    1.9517717   -0.3209275  0.00   -0.0325386   -0.0317484    0.0035891
h    -0.5979680    2.6836004   -0.3830363  0.00    0.0060090    0.0154705   -0.0020703
    13
 Energy =       0.0604170413
c    -3.6933039    1.6604313    0.3029148  0.00   -0.0096602    0.0021829    0.0030911
c    -2.4335141    2.5167650    0.1888294  0.00    0.0150001    0.0754017    0.0197447
c    -4.9593858    2.4334396   -0.1629183  0.00    0.0043226    0.0034965    0.0001427
h    -5.4808279    1.9459471   -1.0132595  0.00    0.0011803   -0.0048916   -0.0004080
h    -4.7077507    3.4662865   -0.4954925  0.00    0.0017835   -0.0005611   -0.0005631
h    -5.6869601    2.5246876    0.6771311  0.00   -0.0033443    0.0012921    0.0030243
n    -3.5167371    0.3891004   -0.4483115  0.00    0.0284233   -0.0032859   -0.0135556
h    -3.7934244    1.4396526    1.3948053  0.00   -0.0005401   -0.0027266    0.0028686
h    -3.4002681   -0.4020105    0.2382644  0.00   -0.0027646   -0.0085756    0.0096940
h    -4.3600952    0.1517123   -1.0252977  0.00   -0.0096004    0.0073710   -0.0041814
o    -2.4064758    3.7854816    0.6716283  0.00   -0.0019990   -0.0555697   -0.0210847
o    -1.2940716    1.9741653   -0.3769980  0.00   -0.0281215   -0.0276066    0.0030395
h    -0.5958901    2.7129583   -0.4408115  0.00    0.0053204    0.0134729   -0.0018120
    13
 Energy =       0.0599841582
c    -3.6888059    1.6466300    0.2828392  0.00   -0.0063993    0.0027348    0.0035823
c    -2.4172211    2.4882491    0.1906445  0.00    0.0106442    0.0582914    0.0150793
c    -4.9591410    2.4586447   -0.1079370  0.00    0.0028400    0.0041424    0.0005685
h    -5.5102948    2.0278629   -0.9714857  0.00   -0.0004083   -0.0037125   -0.0019437
h    -4.7060828    3.5090881   -0.3843312  0.00    0.0011456    0.0012672   -0.0009235
h    -5.6639625    2.5079431    0.7550736  0.00   -0.0032658    0.0012792    0.0035345
n    -3.5490909    0.4094603   -0.5315060  0.00    0.0297708    0.0026745   -0.0113327
h    -3.7638562    1.3747984    1.3661292  0.00   -0.0002700   -0.0021064    0.0040496
h    -3.5111314   -0.4284592    0.1120814  0.00   -0.0016170   -0.0133964    0.0123378
h    -4.3621514    0.2518198   -1.1840508  0.00   -0.0147393    0.0023724   -0.0099507
o    -2.3793777    3.7549693    0.6999558  0.00   -0.0011161   -0.0426779   -0.0159484
o    -1.2647445    1.9357770   -0.3430215  0.00   -0.0216091   -0.0220402    0.0025397
h    -0.5528445    2.6618336   -0.3739075  0.00    0.0050242    0.0111716   -0.0015928
    13
 Energy =       0.0588625734
c    -3.6735430    1.6513671    0.2912232  0.00   -0.0028948    0.0027374    0.0027990
c    -2.3949301    2.4726188    0.1087351  0.00    0.0024856    0.0190544    0.0063488
c    -4.9566818    2.4688411   -0.0422536  0.00    0.0067475   -0.0001769    0.0009065
h    -5.6112288    1.9888496   -0.8127326  0.00   -0.0059068   -0.0057568   -0.0077628
h    -4.6986099    3.4884827   -0.4270000  0.00    0.0032985    0.0056586   -0.0021498
h    -5.5726777    2.6082394    0.8843683  0.00   -0.0063484    0.0008715    0.0090813
n    -3.6082957    0.3942088   -0.4938721  0.00    0.0104777   -0.0009281   -0.0057471
h    -3.6904057    1.4093930    1.3831941  0.00   -0.0002787   -0.0005946    0.0034935
h    -3.5455359   -0.4273083    0.1577067  0.00   -0.0008687   -0.0048881    0.0044346
h    -4.4399069    0.2324080   -1.1114152  0.00   -0.0053337    0.0001874   -0.0043332
o    -2.3204099    3.7657541    0.5971066  0.00    0.0007360   -0.0120211   -0.0053061
o    -1.2700908    1.9191219   -0.4929040  0.00   -0.0039067   -0.0080573   -0.0011791
h    -0.5463887    2.6266407   -0.5316724  0.00    0.0017924    0.0039136   -0.0005856
    13
 Energy =       0.0585808631
c    -3.6561608    1.6469047    0.2905950  0.00    0.0001830   -0.0004217   -0.0000498
c    -2.3996121    2.4883652    0.0706322  0.00   -0.0007506   -0.0012580   -0.0006151
c    -4.9623309    2.4390319   -0.0064961  0.00   -0.0013614   -0.0004803   -0.0003398
h    -5.6158945    1.9633357   -0.7635646  0.00    0.0005179    0.0007104    0.0007430
h    -4.7424977    3.4662569   -0.3766022  0.00   -0.0001335    0.0000682   -0.0001851
h    -5.5576117    2.5509196    0.9241493  0.00    0.0001411    0.0002334   -0.0006243
n    -3.6003964    0.3837960   -0.4758646  0.00    0.0001532    0.0008553    0.0004289
h    -3.6338016    1.4171061    1.3823629  0.00   -0.0000265   -0.0001177    0.0004495
h    -3.5753012   -0.4330578    0.1784585  0.00    0.0004457   -0.0004800    0.0002544
h    -4.4050361    0.2386888   -1.1269780  0.00   -0.0009491   -0.0002796   -0.0003746
o    -2.3332799    3.7774589    0.5941419  0.00   -0.0004901    0.0017379    0.0013721
o    -1.2826044    1.9748316   -0.5805931  0.00    0.0022852   -0.0004947   -0.0010399
h    -0.5641773    2.6849796   -0.5997572  0.00   -0.0000148   -0.0000733   -0.0000193
    13
 Energy =       0.0585872932
c    -3.6585246    1.6495624    0.2937930  0.00    0.0002191   -0.0003248   -0.0000251
c    -2.4000614    2.4883823    0.0755943  0.00   -0.0006694   -0.0011314   -0.0005659
c    -4.9613472    2.4397623   -0.0223905  0.00   -0.0012619   -0.0003877   -0.0003434
h    -5.6099459    1.9557292   -0.7786644  0.00    0.0004366    0.0006378    0.0006295
h    -4.7372389    3.4623323   -0.4028938  0.00   -0.0001337    0.0001324   -0.0001976
h    -5.5633401    2.5634344    0.9026270  0.00    0.0000755    0.0002292   -0.0004718
n    -3.5970402    0.3785234   -0.4592385  0.00    0.0002167    0.0007109    0.0002742
h    -3.6455445    1.4309695    1.3880860  0.00   -0.0000168   -0.0001201    0.0005128
h    -3.5746175   -0.4314355    0.2037366  0.00    0.0004097   -0.0005154    0.0002958
h    -4.3981364    0.2256244   -1.1128900  0.00   -0.0008899   -0.0002793   -0.0003894
o    -2.3310176    3.7760091    0.6019378  0.00   -0.0004455    0.0015743    0.0012419
o    -1.2858757    1.9754962   -0.5806938  0.00    0.0020707   -0.0004649   -0.0009446
h    -0.5660147    2.6842270   -0.5985197  0.00   -0.0000112   -0.0000611   -0.0000165
    13
 Energy =       0.0585917290
c    -3.6604260    1.6511947    0.2959694  0.00    0.0002270   -0.0002762   -0.0000168
c    -2.4003278    2.4880351    0.0803945  0.00   -0.0006030   -0.0010182   -0.0005139
c    -4.9603314    2.4404141   -0.0340084  0.00   -0.0011579   -0.0003273   -0.0003315
h    -5.6052561    1.9509627   -0.7901018  0.00    0.0003791    0.0005746    0.0005486
h    -4.7325998    3.4596559   -0.4213060  0.00   -0.0001272    0.0001532   -0.0001933
h    -5.5674122    2.5722251    0.8866704  0.00    0.0000403    0.0002163   -0.0003789
n    -3.5947672    0.3751324   -0.4482751  0.00    0.0002333    0.0006137    0.0001985
h    -3.6548678    1.4398244    1.3917595  0.00   -0.0000118   -0.0001148    0.0005154
h    -3.5743321   -0.4302819    0.2202596  0.00    0.0003727   -0.0004994    0.0002951
h    -4.3932774    0.2170559   -1.1037862  0.00   -0.0008171   -0.0002647   -0.0003747
o    -2.3286647    3.7734833    0.6113449  0.00   -0.0004051    0.0014361    0.0011278
o    -1.2887997    1.9767244   -0.5813758  0.00    0.0018770   -0.0004449   -0.0008628
h    -0.5676426    2.6841910   -0.5970608  0.00   -0.0000074   -0.0000484   -0.0000134
    13
 Energy =       0.0585944204
c    -3.6618084    1.6522446    0.2974111  0.00    0.0002187   -0.0002440   -0.0000136
c    -2.4005141    2.4876889    0.0840597  0.00   -0.0005441   -0.0009164   -0.0004640
c    -4.9595058    2.4409063   -0.0420370  0.00   -0.0010533   -0.0002851   -0.0003095
h    -5.6019511    1.9478564   -0.7980357  0.00    0.0003350    0.0005176    0.0004856
h    -4.7290938    3.4578134   -0.4338710  0.00   -0.0001176    0.0001540   -0.0001814
h    -5.5700813    2.5782802    0.8755868  0.00    0.0000230    0.0001994   -0.0003195
n    -3.5932858    0.3729617   -0.4410800  0.00    0.0002273    0.0005411    0.0001583
h    -3.6615598    1.4455650    1.3940956  0.00   -0.0000091   -0.0001063    0.0004889
h    -3.5739428   -0.4294373    0.2310650  0.00    0.0003370   -0.0004646    0.0002776
h    -4.3901777    0.2113238   -1.0976131  0.00   -0.0007423   -0.0002448   -0.0003480
o    -2.3268153    3.7712781    0.6189114  0.00   -0.0003672    0.0013060    0.0010217
o    -1.2910536    1.9778153   -0.5820573  0.00    0.0016975   -0.0004176   -0.0007850
h    -0.5689152    2.6843207   -0.5959514  0.00   -0.0000049   -0.0000392   -0.0000111
    13
 Energy =       0.0585961089
c    -3.6628511    1.6529835    0.2984210  0.00    0.0002045   -0.0002180   -0.0000120
c    -2.4006593    2.4873932    0.0868627  0.00   -0.0004906   -0.0008249   -0.0004182
c    -4.9588472    2.4412925   -0.0478780  0.00   -0.0009540   -0.0002519   -0.0002845
h    -5.5995466    1.9456672   -0.8037871  0.00    0.0002984    0.0004661    0.0004330
h    -4.7264038    3.4564669   -0.4429775  0.00   -0.0001075    0.0001472   -0.0001672
h    -5.5719243    2.5827172    0.8675117  0.00    0.0000137    0.0001821   -0.0002762
n    -3.5922612    0.3714726   -0.4360342  0.00    0.0002134    0.0004815    0.0001327
h    -3.6665416    1.4495791    1.3956862  0.00   -0.0000074   -0.0000973    0.0004531
h    -3.5734715   -0.4287806    0.2386377  0.00    0.0003041   -0.0004255    0.0002555
h    -4.3881184    0.2071997   -1.0930924  0.00   -0.0006715   -0.0002239   -0.0003187
o    -2.3253969    3.7695037    0.6247665  0.00   -0.0003320    0.0011837    0.0009235
o    -1.2927861    1.9786782   -0.5825716  0.00    0.0015324   -0.0003862   -0.0007115
h    -0.5698968    2.6844438   -0.5950608  0.00   -0.0000033   -0.0000327   -0.0000094
    13
 Energy =       0.0585972216
c    -3.6636708    1.6535368    0.2991654  0.00    0.0001885   -0.0001958   -0.0000108
c    -2.4007783    2.4871432    0.0890740  0.00   -0.0004421   -0.0007425   -0.0003767
c    -4.9583119    2.4416088   -0.0523386  0.00   -0.0008622   -0.0002242   -0.0002595
h    -5.5977225    1.9440343   -0.8081572  0.00    0.0002668    0.0004196    0.0003874
h    -4.7242703    3.4554352   -0.4499245  0.00   -0.0000977    0.0001376   -0.0001529
h    -5.5732655    2.5861399    0.8613453  0.00    0.0000082    0.0001654   -0.0002420
n    -3.5915130    0.3703910   -0.4322986  0.00    0.0001971    0.0004305    0.0001141
h    -3.6704109    1.4525526    1.3968330  0.00   -0.0000063   -0.0000884    0.0004153
h    -3.5729699   -0.4282494    0.2442474  0.00    0.0002740   -0.0003871    0.0002330
h    -4.3866843    0.2040655   -1.0896004  0.00   -0.0006062   -0.0002037   -0.0002900
o    -2.3242852    3.7680683    0.6293852  0.00   -0.0002997    0.0010705    0.0008336
o    -1.2941526    1.9793565   -0.5829373  0.00    0.0013819   -0.0003540   -0.0006435
h    -0.5706697    2.6845343   -0.5943096  0.00   -0.0000023   -0.0000278   -0.0000081
    13
 Energy =       0.0585971078
c    -3.6776165    1.6626006    0.3111284  0.00    0.0010027    0.0002628   -0.0000371
c    -2.4028881    2.4826741    0.1267010  0.00    0.0004106    0.0007566    0.0004592
c    -4.9490043    2.4472064   -0.1264186  0.00   -0.0000267    0.0008627   -0.0007297
h    -5.5677008    1.9174423   -0.8803570  0.00   -0.0007417   -0.0004453   -0.0010625
h    -4.6877845    3.4382692   -0.5653014  0.00   -0.0001095    0.0012483   -0.0005646
h    -5.5945793    2.6435882    0.7590037  0.00   -0.0012065    0.0003338    0.0020127
n    -3.5795757    0.3532064   -0.3719448  0.00    0.0011894   -0.0012405   -0.0014148
h    -3.7355469    1.5006876    1.4149292  0.00    0.0000302   -0.0000711    0.0016121
h    -3.5624549   -0.4189934    0.3349871  0.00   -0.0002081   -0.0006499    0.0005626
h    -4.3649324    0.1521419   -1.0309249  0.00    0.0001605   -0.0004351   -0.0005136
o    -2.3055528    3.7432928    0.7076437  0.00    0.0000905    0.0002894   -0.0001959
o    -1.3173352    1.9906925   -0.5883127  0.00   -0.0008070   -0.0014042   -0.0002628
h    -0.5837332    2.6858084   -0.5806494  0.00    0.0002155    0.0004925    0.0001343
    13
 Energy =       0.0585930394
c    -3.6749053    1.6609810    0.3151156  0.00    0.0015736    0.0004425   -0.0000446
c    -2.4042906    2.4861602    0.1265821  0.00   -0.0002747    0.0013659    0.0012640
c    -4.9502659    2.4414313   -0.1218559  0.00   -0.0000310    0.0013740   -0.0011537
h    -5.5719287    1.9047695   -0.8696584  0.00   -0.0012153   -0.0007392   -0.0017252
h    -4.6929256    3.4305183   -0.5693172  0.00   -0.0001498    0.0020348   -0.0009192
h    -5.5920647    2.6429155    0.7668770  0.00   -0.0019336    0.0005403    0.0032453
n    -3.5718323    0.3505899   -0.3670247  0.00    0.0020330   -0.0018344   -0.0022867
h    -3.7306800    1.5002359    1.4201276  0.00    0.0000525   -0.0001099    0.0025826
h    -3.5382611   -0.4199978    0.3416953  0.00   -0.0003125   -0.0012035    0.0010503
h    -4.3640706    0.1399063   -1.0150207  0.00    0.0000916   -0.0007232   -0.0009481
o    -2.2956799    3.7318414    0.7379610  0.00   -0.0001353    0.0011733    0.0001940
o    -1.3374904    2.0167411   -0.6324132  0.00   -0.0000609   -0.0031167   -0.0014759
h    -0.6043099    2.7125245   -0.6225843  0.00    0.0003625    0.0007960    0.0002171
    13
 Energy =       0.0586004193
c    -3.6755227    1.6612601    0.3130971  0.00    0.0014177    0.0004021   -0.0000373
c    -2.4036437    2.4848299    0.1252867  0.00   -0.0004155    0.0012541    0.0012302
c    -4.9502904    2.4440681   -0.1205514  0.00   -0.0000270    0.0012370   -0.0010363
h    -5.5721348    1.9112029   -0.8706112  0.00   -0.0010985   -0.0006704   -0.0015592
h    -4.6923447    3.4347953   -0.5635704  0.00   -0.0001311    0.0018415   -0.0008308
h    -5.5920111    2.6420764    0.7685702  0.00   -0.0017419    0.0004886    0.0029263
n    -3.5754624    0.3523522   -0.3718983  0.00    0.0018418   -0.0016440   -0.0020605
h    -3.7301460    1.4981970    1.4175702  0.00    0.0000483   -0.0000967    0.0023279
h    -3.5464152   -0.4201083    0.3348673  0.00   -0.0002795   -0.0011007    0.0009590
h    -4.3664705    0.1461797   -1.0228014  0.00    0.0000650   -0.0006575   -0.0008682
o    -2.3002856    3.7375047    0.7233108  0.00   -0.0001732    0.0011980    0.0002716
o    -1.3285152    2.0051913   -0.6155062  0.00    0.0001657   -0.0029727   -0.0015201
h    -0.5954625    2.7010675   -0.6072791  0.00    0.0003282    0.0007209    0.0001974
    13
 Energy =       0.0586049511
c    -3.6759316    1.6614113    0.3112687  0.00    0.0012784    0.0003647   -0.0000313
c    -2.4030571    2.4836960    0.1238951  0.00   -0.0005005    0.0011486    0.0011747
c    -4.9503766    2.4462742   -0.1188579  0.00   -0.0000239    0.0011140   -0.0009317
h    -5.5725704    1.9168858   -0.8708123  0.00   -0.0009924   -0.0006073   -0.0014086
h    -4.6921291    3.4385411   -0.5578263  0.00   -0.0001151    0.0016659   -0.0007508
h    -5.5917679    2.6409574    0.7708314  0.00   -0.0015696    0.0004419    0.0026387
n    -3.5786224    0.3540109   -0.3766043  0.00    0.0016669   -0.0014762   -0.0018571
h    -3.7291901    1.4960129    1.4152309  0.00    0.0000443   -0.0000853    0.0020990
h    -3.5532643   -0.4202505    0.3282234  0.00   -0.0002504   -0.0010038    0.0008732
h    -4.3687276    0.1519067   -1.0298344  0.00    0.0000456   -0.0005973   -0.0007927
o    -2.3041284    3.7423157    0.7101760  0.00   -0.0001948    0.0011863    0.0003164
o    -1.3209220    1.9954313   -0.6009454  0.00    0.0003148   -0.0028042   -0.0015095
h    -0.5880174    2.6914241   -0.5942607  0.00    0.0002967    0.0006527    0.0001795
    13
 Energy =       0.0586071665
c    -3.6761718    1.6614782    0.3097108  0.00    0.0011532    0.0003301   -0.0000267
c    -2.4025500    2.4827774    0.1225272  0.00   -0.0005365    0.0010478    0.0011022
c    -4.9504841    2.4480148   -0.1170560  0.00   -0.0000215    0.0010032   -0.0008382
h    -5.5730889    1.9216308   -0.8705278  0.00   -0.0008958   -0.0005494   -0.0012717
h    -4.6921521    3.4416317   -0.5525248  0.00   -0.0001016    0.0015057   -0.0006781
h    -5.5914237    2.6397148    0.7732421  0.00   -0.0014144    0.0003996    0.0023789
n    -3.5812487    0.3554654   -0.3807718  0.00    0.0015070   -0.0013269   -0.0016737
h    -3.7280293    1.4939551    1.4132135  0.00    0.0000404   -0.0000755    0.0018926
h    -3.5588600   -0.4203896    0.3223014  0.00   -0.0002245   -0.0009127    0.0007929
h    -4.3706838    0.1568585   -1.0358402  0.00    0.0000321   -0.0005417   -0.0007215
o    -2.3071834    3.7462149    0.6989945  0.00   -0.0002019    0.0011420    0.0003334
o    -1.3147919    1.9875764   -0.5890360  0.00    0.0003956   -0.0026129   -0.0014532
h    -0.5820370    2.6836884   -0.5837487  0.00    0.0002679    0.0005906    0.0001631
    13
 Energy =       0.0586077818
c    -3.6762917    1.6614994    0.3084574  0.00    0.0010399    0.0002982   -0.0000232
c    -2.4021317    2.4820683    0.1212816  0.00   -0.0005361    0.0009520    0.0010193
c    -4.9505816    2.4493117   -0.1153742  0.00   -0.0000196    0.0009033   -0.0007544
h    -5.5735759    1.9253852   -0.8700091  0.00   -0.0008080   -0.0004964   -0.0011472
h    -4.6922941    3.4440382   -0.5479710  0.00   -0.0000902    0.0013595   -0.0006120
h    -5.5910552    2.6384932    0.7754695  0.00   -0.0012743    0.0003610    0.0021439
n    -3.5833399    0.3566586   -0.3841833  0.00    0.0013611   -0.0011931   -0.0015080
h    -3.7268557    1.4922081    1.4115663  0.00    0.0000366   -0.0000671    0.0017059
h    -3.5633395   -0.4205028    0.3174235  0.00   -0.0002015   -0.0008276    0.0007183
h    -4.3722494    0.1609283   -1.0407078  0.00    0.0000230   -0.0004904   -0.0006547
o    -2.3095118    3.7492437    0.6899262  0.00   -0.0001982    0.0010745    0.0003302
o    -1.3100472    1.9815324   -0.5797433  0.00    0.0004254   -0.0024078   -0.0013661
h    -0.5774310    2.6777526   -0.5756515  0.00    0.0002416    0.0005337    0.0001478
    13
 Energy =       0.0586059810
c    -3.6765505    1.6615091    0.3026511  0.00    0.0004668    0.0001364    0.0000073
c    -2.4001301    2.4788944    0.1148215  0.00   -0.0013418    0.0005892    0.0009393
c    -4.9510184    2.4548577   -0.1067030  0.00   -0.0000144    0.0003696   -0.0003060
h    -5.5759678    1.9425329   -0.8665277  0.00   -0.0003607   -0.0002389   -0.0005173
h    -4.6933657    3.4548049   -0.5256609  0.00   -0.0000070    0.0006420   -0.0002843
h    -5.5889806    2.6318225    0.7867494  0.00   -0.0005422    0.0001778    0.0009246
n    -3.5930542    0.3622504   -0.3999892  0.00    0.0006619   -0.0004434   -0.0006397
h    -3.7204257    1.4839485    1.4038031  0.00    0.0000199   -0.0000066    0.0007425
h    -3.5847019   -0.4209834    0.2946729  0.00   -0.0000686   -0.0004750    0.0003944
h    -4.3793082    0.1803096   -1.0635468  0.00   -0.0001271   -0.0002602   -0.0003866
o    -2.3198840    3.7629804    0.6472426  0.00   -0.0004376    0.0014350    0.0007339
o    -1.2885991    1.9544584   -0.5376114  0.00    0.0016436   -0.0021918   -0.0016921
h    -0.5567188    2.6512316   -0.5394174  0.00    0.0001072    0.0002660    0.0000841
    13
 Energy =       0.0585950856
c    -3.6794533    1.6657722    0.3118473  0.00   -0.0003744    0.0001317    0.0001869
c    -2.4021646    2.4817602    0.1264672  0.00    0.0011136   -0.0006914   -0.0012619
c    -4.9456124    2.4461154   -0.1392811  0.00   -0.0001453   -0.0002580    0.0002383
h    -5.5571601    1.9150611   -0.8952167  0.00    0.0003666    0.0003506    0.0005463
h    -4.6802259    3.4340112   -0.5780415  0.00   -0.0000366   -0.0006551    0.0003359
h    -5.5984252    2.6453033    0.7360485  0.00    0.0005830   -0.0001895   -0.0009433
n    -3.5828461    0.3499785   -0.3552512  0.00   -0.0005069    0.0003165    0.0001777
h    -3.7428612    1.5155911    1.4150469  0.00    0.0000300   -0.0000524   -0.0005509
h    -3.5936680   -0.4155856    0.3582124  0.00    0.0001827    0.0001090   -0.0000004
h    -4.3534162    0.1546646   -1.0328376  0.00   -0.0001604    0.0003314    0.0001930
o    -2.3093721    3.7485184    0.6926827  0.00    0.0003167   -0.0011959   -0.0006849
o    -1.3086068    1.9815529   -0.5674974  0.00   -0.0012095    0.0021117    0.0018774
h    -0.5748929    2.6758736   -0.5616952  0.00   -0.0001596   -0.0003086   -0.0001140
    13
 Energy =       0.0585954280
c    -3.6793392    1.6654552    0.3112711  0.00   -0.0003358    0.0001204    0.0001691
c    -2.4019881    2.4814115    0.1260356  0.00    0.0009996   -0.0006214   -0.0011349
c    -4.9458479    2.4468213   -0.1373881  0.00   -0.0001312   -0.0002310    0.0002138
h    -5.5582006    1.9170669   -0.8936876  0.00    0.0003293    0.0003154    0.0004906
h    -4.6807432    3.4354620   -0.5748149  0.00   -0.0000332   -0.0005883    0.0003019
h    -5.5978298    2.6446661    0.7389984  0.00    0.0005239   -0.0001702   -0.0008474
n    -3.5835866    0.3507408   -0.3581677  0.00   -0.0004544    0.0002830    0.0001569
h    -3.7417337    1.5134591    1.4143260  0.00    0.0000272   -0.0000473   -0.0004937
h    -3.5933858   -0.4159987    0.3540567  0.00    0.0001647    0.0000958    0.0000020
h    -4.3550716    0.1564157   -1.0350052  0.00   -0.0001456    0.0002979    0.0001722
o    -2.3097658    3.7489815    0.6907291  0.00    0.0002841   -0.0010743   -0.0006155
o    -1.3074554    1.9798845   -0.5657352  0.00   -0.0010848    0.0018977    0.0016876
h    -0.5737571    2.6742512   -0.5601340  0.00   -0.0001436   -0.0002777   -0.0001026
    13
 Energy =       0.0585958172
c    -3.6792251    1.6651497    0.3107154  0.00   -0.0003012    0.0001101    0.0001531
c    -2.4018131    2.4810714    0.1256059  0.00    0.0008972   -0.0005584   -0.0010206
c    -4.9460684    2.4474945   -0.1355519  0.00   -0.0001186   -0.0002068    0.0001918
h    -5.5591938    1.9190047   -0.8922029  0.00    0.0002956    0.0002837    0.0004406
h    -4.6812372    3.4368532   -0.5716779  0.00   -0.0000300   -0.0005283    0.0002713
h    -5.5972491    2.6440300    0.7418442  0.00    0.0004707   -0.0001528   -0.0007613
n    -3.5843112    0.3514776   -0.3609684  0.00   -0.0004073    0.0002529    0.0001385
h    -3.7406324    1.5114089    1.4136251  0.00    0.0000247   -0.0000427   -0.0004423
h    -3.5931748   -0.4163915    0.3500583  0.00    0.0001484    0.0000842    0.0000039
h    -4.3566553    0.1581301   -1.0371132  0.00   -0.0001322    0.0002678    0.0001535
o    -2.3101317    3.7494189    0.6888254  0.00    0.0002548   -0.0009651   -0.0005530
o    -1.3063481    1.9782803   -0.5640381  0.00   -0.0009729    0.0017054    0.0015169
h    -0.5726644    2.6726892   -0.5586379  0.00   -0.0001293   -0.0002498   -0.0000924
    13
 Energy =       0.0585962267
c    -3.6791120    1.6648564    0.3101814  0.00   -0.0002701    0.0001006    0.0001385
c    -2.4016408    2.4807413    0.1251820  0.00    0.0008052   -0.0005018   -0.0009178
c    -4.9462745    2.4481349   -0.1337787  0.00   -0.0001072   -0.0001851    0.0001721
h    -5.5601389    1.9208697   -0.8907681  0.00    0.0002654    0.0002551    0.0003956
h    -4.6817070    3.4381829   -0.5686417  0.00   -0.0000272   -0.0004744    0.0002438
h    -5.5966856    2.6433999    0.7445788  0.00    0.0004229   -0.0001372   -0.0006838
n    -3.5850168    0.3521875   -0.3636496  0.00   -0.0003650    0.0002260    0.0001221
h    -3.7395630    1.5094439    1.4129462  0.00    0.0000224   -0.0000386   -0.0003962
h    -3.5930247   -0.4167637    0.3462242  0.00    0.0001337    0.0000739    0.0000054
h    -4.3581664    0.1597999   -1.0391536  0.00   -0.0001200    0.0002407    0.0001369
o    -2.3104710    3.7498305    0.6869805  0.00    0.0002286   -0.0008669   -0.0004968
o    -1.3052873    1.9767433   -0.5624093  0.00   -0.0008724    0.0015325    0.0013634
h    -0.5716167    2.6711904   -0.5572078  0.00   -0.0001163   -0.0002248   -0.0000831
    13
 Energy =       0.0585966370
c    -3.6790010    1.6645759    0.3096701  0.00   -0.0002422    0.0000920    0.0001254
c    -2.4014722    2.4804220    0.1247670  0.00    0.0007226   -0.0004509   -0.0008254
c    -4.9464664    2.4487425   -0.1320738  0.00   -0.0000969   -0.0001657    0.0001543
h    -5.5610355    1.9226583   -0.8893879  0.00    0.0002383    0.0002295    0.0003552
h    -4.6821520    3.4394500   -0.5657161  0.00   -0.0000246   -0.0004260    0.0002191
h    -5.5961413    2.6427804    0.7471964  0.00    0.0003800   -0.0001232   -0.0006142
n    -3.5857005    0.3528690   -0.3662080  0.00   -0.0003271    0.0002019    0.0001076
h    -3.7385300    1.5075667    1.4122914  0.00    0.0000203   -0.0000348   -0.0003548
h    -3.5929265   -0.4171152    0.3425597  0.00    0.0001205    0.0000648    0.0000065
h    -4.3596042    0.1614183   -1.0411199  0.00   -0.0001089    0.0002163    0.0001220
o    -2.3107846    3.7502164    0.6852017  0.00    0.0002050   -0.0007787   -0.0004464
o    -1.3042748    1.9752756   -0.5608515  0.00   -0.0007822    0.0013771    0.0012253
h    -0.5706159    2.6697571   -0.5558449  0.00   -0.0001047   -0.0002022   -0.0000748
    13
 Energy =       0.0585970345
c    -3.6788930    1.6643085    0.3091821  0.00   -0.0002172    0.0000841    0.0001135
c    -2.4013081    2.4801145    0.1243639  0.00    0.0006485   -0.0004052   -0.0007422
c    -4.9466447    2.4493176   -0.1304414  0.00   -0.0000876   -0.0001483    0.0001385
h    -5.5618833    1.9243675   -0.8880659  0.00    0.0002140    0.0002064    0.0003190
h    -4.6825719    3.4406536   -0.5629090  0.00   -0.0000223   -0.0003825    0.0001969
h    -5.5956179    2.6421754    0.7496926  0.00    0.0003414   -0.0001106   -0.0005517
n    -3.5863598    0.3535210   -0.3686416  0.00   -0.0002931    0.0001803    0.0000948
h    -3.7375374    1.5057792    1.4116621  0.00    0.0000184   -0.0000314   -0.0003178
h    -3.5928718   -0.4174463    0.3390689  0.00    0.0001086    0.0000568    0.0000074
h    -4.3609685    0.1629793   -1.0430067  0.00   -0.0000989    0.0001943    0.0001088
o    -2.3110737    3.7505770    0.6834953  0.00    0.0001838   -0.0006994   -0.0004010
o    -1.3033117    1.9738787   -0.5593668  0.00   -0.0007014    0.0012374    0.0011013
h    -0.5696630    2.6683909   -0.5545494  0.00   -0.0000942   -0.0001819   -0.0000673
    13
 Energy =       0.0585974102
c    -3.6787884    1.6640545    0.3087180  0.00   -0.0001947    0.0000768    0.0001027
c    -2.4011494    2.4798195    0.1239747  0.00    0.0005819   -0.0003641   -0.0006674
c    -4.9468099    2.4498604   -0.1288846  0.00   -0.0000792   -0.0001327    0.0001242
h    -5.5626826    1.9259952   -0.8868050  0.00    0.0001921    0.0001856    0.0002864
h    -4.6829666    3.4417934   -0.5602266  0.00   -0.0000202   -0.0003434    0.0001769
h    -5.5951169    2.6415883    0.7520644  0.00    0.0003067   -0.0000993   -0.0004955
n    -3.5869929    0.3541427   -0.3709493  0.00   -0.0002627    0.0001611    0.0000835
h    -3.7365882    1.5040824    1.4110599  0.00    0.0000167   -0.0000283   -0.0002846
h    -3.5928534   -0.4177572    0.3357544  0.00    0.0000978    0.0000498    0.0000080