    27
 Energy =      66.5365961094
c    -1.4235396    2.6054793   -0.0667700  0.00   -0.0463511    0.0383154    0.0024806
c    -1.3072796    1.2134697   -0.1072300  0.00   -0.0852351   -0.0326491    0.0017416
c    -0.0178900    0.6711998   -0.1697000  0.00   -0.0895227   -0.1875421    0.0002620
c    -0.2940599    3.4190890   -0.0891300  0.00   -0.0232120    0.0690649    0.0026932
c     0.9872197    2.8590292   -0.1560400  0.00    0.0103064    0.0639998    0.0006887
c     1.1340797    1.4562096   -0.1970299  0.00    0.0529577    0.0514946    0.0025063
n     0.3879399   -0.6395298   -0.2140799  0.00    0.1458251    0.1098254   -0.0081541
c     2.2666594    0.5727398   -0.2659299  0.00    0.1574586   -0.0885791   -0.0150726
c     1.7555995   -0.7123598   -0.2706899  0.00   -0.0967731   -0.0947170   -0.0032310
h    -0.2400399   -1.4313496   -0.2047299  0.00    0.0359503    0.0477336    0.0010959
c     3.7030089    1.0223397   -0.3320099  0.00   -0.0261875    0.0135862   -0.0352448
c     4.2197688    1.4064496   -1.7267995  0.00    0.0614572    0.0172732    0.0210662
h     4.3261788    0.2093419    0.0639454  0.00   -0.0060157    0.0138979   -0.0056178
h     3.8370289    1.8640295    0.3610799  0.00   -0.0040327   -0.0130012   -0.0054130
c     3.7734089    0.3331939   -2.7369592  0.00   -0.2993455   -0.1511706   -0.0784829
n     5.7205784    1.5052196   -1.8052095  0.00    0.0142337   -0.8998968   -0.8989040
h     3.7949889    2.3605393   -2.0604594  0.00    0.0160502   -0.0115714    0.0036276
h     6.0814483    1.3602996   -0.8566008  0.00   -0.0345157   -0.0086113   -0.0332228
h     6.0587583    0.6873448   -2.3244293  0.00 -404.3809936 -392.0275826 -656.8253261
h    -2.4108593    3.0588691   -0.0157800  0.00   -0.0007855    0.0002524    0.0002327
h    -2.1896094    0.5822398   -0.0890100  0.00   -0.0036190    0.0037980    0.0003788
h    -0.4052699    4.5000487   -0.0535400  0.00    0.0008758    0.0002134    0.0004915
h     1.8590495    3.5066790   -0.1715100  0.00   -0.0009470    0.0030709    0.0008733
h     2.2327294   -1.6813195   -0.3062999  0.00   -0.0412782   -0.0119374    0.0046509
o     2.6230993   -0.0215760   -2.9339992  0.00    0.2717721    0.0840850    0.0676542
o     4.8385586   -0.1871039   -3.4042990  0.00    0.2827392    0.2567865    0.2866105
h     5.6302784    0.2718299   -3.0206691  0.00  404.0891881  392.7538615  657.5116151
    27
 Energy =       5.1517230833
c    -1.4235336    2.6054743   -0.0667703  0.00   -0.0463341    0.0383044    0.0024840
c    -1.3072686    1.2134739   -0.1072302  0.00   -0.0852185   -0.0326549    0.0017450
c    -0.0178784    0.6712241   -0.1697000  0.00   -0.0894723   -0.1874165    0.0002511
c    -0.2940569    3.4190801   -0.0891303  0.00   -0.0232019    0.0690425    0.0026965
c     0.9872184    2.8590209   -0.1560400  0.00    0.0103094    0.0639938    0.0006945
c     1.1340728    1.4562029   -0.1970303  0.00    0.0529286    0.0514287    0.0024976
n     0.3879210   -0.6395441   -0.2140789  0.00    0.1457457    0.1097518   -0.0081044
c     2.2666389    0.5727513   -0.2659280  0.00    0.1573744   -0.0885641   -0.0150744
c     1.7556120   -0.7123475   -0.2706895  0.00   -0.0966897   -0.0946783   -0.0032393
h    -0.2400446   -1.4313558   -0.2047301  0.00    0.0359682    0.0477458    0.0010767
c     3.7030123    1.0223379   -0.3320053  0.00   -0.0258977    0.0136332   -0.0352961
c     4.2197608    1.4064474   -1.7268022  0.00    0.0474590    0.0355287    0.0353659
h     4.3261795    0.2093401    0.0639461  0.00   -0.0060910    0.0138685   -0.0055670
h     3.8370294    1.8640312    0.3610806  0.00   -0.0040791   -0.0129907   -0.0053845
c     3.7734477    0.3332135   -2.7369490  0.00   -0.3183227   -0.1582408   -0.0852591
n     5.7205765    1.5053363   -1.8050929  0.00    0.0499364   -0.5333210   -0.5235049
h     3.7949868    2.3605408   -2.0604599  0.00    0.0158783   -0.0115262    0.0035175
h     6.0814527    1.3603007   -0.8565964  0.00   -0.0280778   -0.0183036   -0.0359197
h     6.1112010    0.7381854   -2.2392480  0.00  -23.5425659  -22.6524529  -38.0222511
h    -2.4108592    3.0588691   -0.0157800  0.00   -0.0007945    0.0002552    0.0002300
h    -2.1896089    0.5822393   -0.0890100  0.00   -0.0036321    0.0037914    0.0003749
h    -0.4052700    4.5000487   -0.0535400  0.00    0.0008683    0.0002228    0.0004886
h     1.8590496    3.5066786   -0.1715101  0.00   -0.0009584    0.0030789    0.0008705
h     2.2327347   -1.6813180   -0.3063005  0.00   -0.0412960   -0.0119610    0.0046232
o     2.6230640   -0.0215869   -2.9340079  0.00    0.2713663    0.0845039    0.0675727
o     4.8385220   -0.1871372   -3.4043362  0.00    0.2879884    0.2509715    0.2429623
h     5.5778735    0.2208951   -3.1059394  0.00   23.2368085   23.0159890   38.3721494
    27
 Energy =       3.3389594037
c    -1.3698852    2.6058619   -0.0776645  0.00   -0.0230940    0.0191218    0.0013427
c    -1.2569831    1.2310049   -0.1094995  0.00   -0.0436363   -0.0166565    0.0010156
c     0.0056347    0.6889658   -0.1488214  0.00   -0.0436932   -0.0957460    0.0018004
c    -0.2449265    3.4044946   -0.0919870  0.00   -0.0124979    0.0349177    0.0014995
c     1.0162911    2.8397718   -0.1383651  0.00    0.0052917    0.0330046    0.0002711
c     1.1325288    1.4605209   -0.1630479  0.00    0.0255291    0.0276653    0.0012848
n     0.3694275   -0.6566680   -0.2092151  0.00    0.0697252    0.0544375   -0.0080822
c     2.2402603    0.6186250   -0.2087617  0.00    0.0818979   -0.0447549   -0.0086797
c     1.7712082   -0.6620839   -0.2086540  0.00   -0.0496324   -0.0436861    0.0000768
h    -0.2571168   -1.4711452   -0.2238308  0.00    0.0185158    0.0240733   -0.0002823
c     3.6861755    1.0467897   -0.3045674  0.00   -0.0142250    0.0048765   -0.0183667
c     4.1685835    1.3485322   -1.7414438  0.00    0.0266972    0.0131609    0.0130456
h     4.3178656    0.2523486    0.1353130  0.00   -0.0027605    0.0071377   -0.0014470
h     3.8348661    1.9463520    0.3255983  0.00   -0.0022303   -0.0027321   -0.0016119
c     3.7374918    0.2822883   -2.7330266  0.00   -0.1627527   -0.0796645   -0.0431742
n     5.6516149    1.4834494   -1.8200839  0.00   -0.0033713   -0.3092416   -0.3305458
h     3.7161694    2.2893616   -2.1027019  0.00    0.0086504   -0.0055845    0.0008822
h     6.0610876    1.5190538   -0.8522284  0.00   -0.0044959   -0.0091392    0.0058693
h     6.1303131    0.6929796   -2.2775815  0.00  -14.5958154  -14.0873321  -23.6210730
h    -2.3563255    3.0635480   -0.0484711  0.00   -0.0008993    0.0002140   -0.0001296
h    -2.1383765    0.5981198   -0.1097319  0.00   -0.0020863    0.0018722   -0.0000359
h    -0.3508560    4.4867148   -0.0719571  0.00   -0.0000012    0.0003676    0.0000058
h     1.8971594    3.4746286   -0.1538515  0.00   -0.0005496    0.0017065    0.0002496
h     2.3412221   -1.5838753   -0.2604546  0.00   -0.0184706   -0.0084095    0.0028287
o     2.5003572   -0.0856390   -2.9050222  0.00    0.1379845    0.0434738    0.0387726
o     4.7616103   -0.2382533   -3.4774824  0.00    0.1602323    0.1431980    0.1385182
h     5.5764363    0.1566555   -3.1763390  0.00   14.4456880   14.2937197   23.8259657
    27
 Energy =       1.8876199421
c    -1.3440951    2.5990876   -0.1019585  0.00   -0.0076439    0.0055472    0.0005596
c    -1.2271923    1.2371742   -0.1394955  0.00   -0.0143370   -0.0053137    0.0002716
c     0.0196132    0.7014607   -0.1568152  0.00   -0.0141702   -0.0304959   -0.0001558
c    -0.2244873    3.3913047   -0.0924266  0.00   -0.0045536    0.0107258    0.0007392
c     1.0255254    2.8284704   -0.1245957  0.00    0.0011601    0.0104328    0.0001465
c     1.1275269    1.4663879   -0.1514847  0.00    0.0070711    0.0094753    0.0000291
n     0.3624222   -0.6665273   -0.2014684  0.00    0.0208652    0.0168353   -0.0045259
c     2.2219336    0.6580728   -0.1794625  0.00    0.0263319   -0.0136678   -0.0033958
c     1.7848250   -0.6224478   -0.1808995  0.00   -0.0166238   -0.0112158   -0.0026330
h    -0.2615548   -1.4984309   -0.2043524  0.00    0.0058957    0.0073130   -0.0022457
c     3.6786839    1.0770567   -0.2952171  0.00   -0.0048428    0.0017302   -0.0055755
c     4.1512987    1.3440019   -1.7539554  0.00    0.0084067    0.0030814    0.0039958
h     4.3124520    0.2841997    0.1553878  0.00   -0.0013251    0.0029112    0.0002725
h     3.8404655    1.9925047    0.3133134  0.00   -0.0014818    0.0001762   -0.0004987
c     3.7226809    0.2591535   -2.7468460  0.00   -0.0351774   -0.0083302   -0.0220739
n     5.6396445    1.5121822   -1.8157725  0.00   -0.0058271   -0.1313985   -0.1568705
h     3.6740763    2.2746289   -2.1258689  0.00    0.0029825   -0.0019643   -0.0002778
h     6.0526141    1.6569886   -0.8547448  0.00    0.0016400   -0.0009675    0.0114659
h     6.1304318    0.6629287   -2.2557524  0.00   -7.5127936   -7.2920126  -12.1952274
h    -2.3319353    3.0543625   -0.0840993  0.00   -0.0010010   -0.0002710    0.0000761
h    -2.1046724    0.5985259   -0.1604325  0.00   -0.0012183    0.0002058   -0.0009948
h    -0.3310285    4.4731118   -0.0609180  0.00   -0.0007566    0.0000648    0.0007889
h     1.9092873    3.4588672   -0.1194052  0.00   -0.0005915    0.0006866    0.0005774
h     2.4131519   -1.5060326   -0.2790035  0.00   -0.0043956   -0.0043109   -0.0005219
o     2.4503082   -0.2443921   -2.8074725  0.00    0.0304387   -0.0025526    0.0222867
o     4.7036408   -0.2997188   -3.5290188  0.00    0.0650712    0.0536156    0.0564819
h     5.5462175    0.0994812   -3.2011144  0.00    7.4568761    7.3796993   12.2973056
    27
 Energy =       1.6063463731
c    -1.3113359    2.6114979   -0.1388763  0.00   -0.0063253    0.0046903    0.0003352
c    -1.2098145    1.2484589   -0.1563142  0.00   -0.0117576   -0.0043745    0.0001886
c     0.0293966    0.6980363   -0.1506163  0.00   -0.0111914   -0.0247503   -0.0001589
c    -0.1829523    3.3899870   -0.1250181  0.00   -0.0039127    0.0088843    0.0004477
c     1.0592544    2.8116841   -0.1315502  0.00    0.0012307    0.0084430   -0.0000346
c     1.1434940    1.4496115   -0.1400694  0.00    0.0059489    0.0074414   -0.0001265
n     0.3557164   -0.6763514   -0.1845526  0.00    0.0168364    0.0134626   -0.0034461
c     2.2268678    0.6322688   -0.1554324  0.00    0.0213403   -0.0107952   -0.0023114
c     1.7807955   -0.6436935   -0.1695326  0.00   -0.0130650   -0.0094338   -0.0024728
h    -0.2789665   -1.5015406   -0.1839879  0.00    0.0046410    0.0058469   -0.0016360
c     3.6857977    1.0386085   -0.2656118  0.00   -0.0043239    0.0014404   -0.0042412
c     4.1377274    1.3512632   -1.7203911  0.00    0.0073604    0.0028456    0.0028011
h     4.3167323    0.2214962    0.1476980  0.00   -0.0006350    0.0016405    0.0006849
h     3.8629628    1.9309894    0.3739253  0.00   -0.0010827    0.0007881    0.0001513
c     3.6828351    0.2977174   -2.7329248  0.00   -0.0175284   -0.0040117   -0.0153784
n     5.6218418    1.5172940   -1.7929220  0.00   -0.0063687   -0.1070998   -0.1290629
h     3.6578752    2.2957179   -2.0558287  0.00    0.0020491   -0.0010446   -0.0004300
h     6.0533885    1.6146637   -0.8340001  0.00    0.0019900   -0.0004995    0.0112820
h     6.1004704    0.7016052   -2.2886100  0.00   -6.2003604   -6.0197058  -10.0657527
h    -2.2937334    3.0791410   -0.1435214  0.00   -0.0011162    0.0000204   -0.0001289
h    -2.0942765    0.6198540   -0.1823470  0.00   -0.0010909    0.0001775   -0.0008147
h    -0.2762650    4.4736770   -0.1142073  0.00   -0.0007052    0.0004023    0.0003769
h     1.9512256    3.4307122   -0.1273338  0.00   -0.0003701    0.0006394    0.0002711
h     2.4048455   -1.5298404   -0.2680798  0.00   -0.0035501   -0.0033836   -0.0003919
o     2.3626220   -0.0856390   -2.8621950  0.00    0.0116318   -0.0048439    0.0166187
o     4.6472996   -0.3141664   -3.5035420  0.00    0.0488786    0.0385389    0.0437044
h     5.5080292    0.1293493   -3.2480376  0.00    6.1614767    6.0946813   10.1495251
    27
 Energy =       1.2392132108
c    -1.2636601    2.6302314   -0.1949957  0.00   -0.0048119    0.0046592    0.0000496
c    -1.1844717    1.2658821   -0.1420348  0.00   -0.0080910   -0.0047841    0.0001263
c     0.0434183    0.6957712   -0.1076382  0.00   -0.0073985   -0.0165517   -0.0004308
c    -0.1230040    3.3898473   -0.2177823  0.00   -0.0028084    0.0073452    0.0001342
c     1.1076138    2.7904264   -0.1906848  0.00    0.0011627    0.0070562   -0.0002474
c     1.1666159    1.4286605   -0.1331908  0.00    0.0043755    0.0043733   -0.0002385
n     0.3452706   -0.6884534   -0.0724062  0.00    0.0120136    0.0065269   -0.0017450
c     2.2338385    0.5972229   -0.1183413  0.00    0.0148115   -0.0065910   -0.0010408
c     1.7736220   -0.6718382   -0.0874562  0.00   -0.0082196   -0.0062168   -0.0027105
h    -0.3039885   -1.5040827   -0.0252348  0.00    0.0020433    0.0024235   -0.0006050
c     3.6963484    0.9782303   -0.2411776  0.00   -0.0036170    0.0013437   -0.0022792
c     4.1161401    1.3567386   -1.6895119  0.00    0.0056676    0.0025402    0.0030023
h     4.3243914    0.1297499    0.1152852  0.00    0.0007681   -0.0001374    0.0013801
h     3.9023206    1.8369204    0.4378276  0.00   -0.0005873    0.0020307    0.0012202
c     3.6188991    0.3694766   -2.7517360  0.00   -0.0133971    0.0005567   -0.0056854
n     5.5954128    1.5146149   -1.7780452  0.00   -0.0073699   -0.0750682   -0.0924546
h     3.6407607    2.3256616   -1.9634158  0.00    0.0002158    0.0011066   -0.0008279
h     6.0550450    1.5471378   -0.8275326  0.00    0.0027888    0.0001594    0.0113465
h     6.0490423    0.7437289   -2.3483069  0.00   -4.5021343   -4.3733722   -7.3116174
h    -2.2379141    3.1140887   -0.2282510  0.00   -0.0012270    0.0005559   -0.0003725
h    -2.0787474    0.6502156   -0.1365202  0.00   -0.0010813   -0.0005768   -0.0005048
h    -0.1975120    4.4756299   -0.2669783  0.00   -0.0007178    0.0023486   -0.0002167
h     2.0108843    3.3934935   -0.2190225  0.00    0.0002983    0.0011890   -0.0002857
h     2.3897225   -1.5670790   -0.1492738  0.00   -0.0021548   -0.0029404   -0.0001978
o     2.2806985    0.0333993   -2.8673449  0.00    0.0061417   -0.0047087    0.0113297
o     4.5386112   -0.1995794   -3.6187262  0.00    0.0290088    0.0185200    0.0191058
h     5.4424758    0.1563070   -3.3313839  0.00    4.4843203    4.4282120    7.3737652
    27
 Energy =       0.8132887563
c    -1.2154357    2.6428477   -0.2409098  0.00   -0.0025471    0.0030213   -0.0002391
c    -1.1606481    1.2819481   -0.1314902  0.00   -0.0036741   -0.0033295   -0.0000466
c     0.0542533    0.6922040   -0.0715607  0.00   -0.0031046   -0.0073106   -0.0005185
c    -0.0619794    3.3794186   -0.2893574  0.00   -0.0014556    0.0041216   -0.0001786
c     1.1551629    2.7595798   -0.2330854  0.00    0.0010219    0.0038699   -0.0004129
c     1.1870389    1.4022708   -0.1260799  0.00    0.0022579    0.0016000   -0.0002517
n     0.3290020   -0.6982411    0.0167997  0.00    0.0056462    0.0012204   -0.0002878
c     2.2365988    0.5573597   -0.0903905  0.00    0.0066839   -0.0020267    0.0000385
c     1.7601696   -0.7017410   -0.0172498  0.00   -0.0032746   -0.0026848   -0.0023830
h    -0.3352836   -1.5012541    0.0987418  0.00    0.0001646    0.0000740    0.0001534
c     3.7041224    0.9118954   -0.2251928  0.00   -0.0027719    0.0007488   -0.0004533
c     4.0968015    1.3649067   -1.6601897  0.00    0.0037130    0.0018199    0.0016907
h     4.3249200    0.0315943    0.0664010  0.00    0.0017504   -0.0017885    0.0016726
h     3.9413857    1.7282856    0.4964284  0.00   -0.0000207    0.0026631    0.0020800
c     3.5674343    0.4393647   -2.7664955  0.00   -0.0018768    0.0009557   -0.0004553
n     5.5710339    1.5378113   -1.7562118  0.00   -0.0077100   -0.0370921   -0.0480794
h     3.6175319    2.3479228   -1.8732018  0.00   -0.0011432    0.0024202   -0.0004030
h     6.0529507    1.4903964   -0.8180735  0.00    0.0031269    0.0004322    0.0103065
h     6.0097031    0.8227041   -2.4059435  0.00   -2.5772587   -2.5093817   -4.1934375
h    -2.1803045    3.1424923   -0.2989579  0.00   -0.0009705    0.0005756   -0.0005610
h    -2.0652843    0.6825753   -0.1032097  0.00   -0.0007351   -0.0007615   -0.0002817
h    -0.1157104    4.4633720   -0.3842453  0.00   -0.0005365    0.0023021   -0.0006062
h     2.0692725    3.3444221   -0.2813302  0.00    0.0007786    0.0007357   -0.0008092
h     2.3677832   -1.6045121   -0.0420853  0.00   -0.0006417   -0.0019426    0.0001324
o     2.2066888    0.1921524   -2.9053943  0.00   -0.0026807   -0.0038239    0.0041762
o     4.4481425   -0.1266597   -3.6797772  0.00    0.0117414    0.0069462    0.0067853
h     5.3764835    0.2092859   -3.4318178  0.00    2.5735171    2.5366352    4.2223690
    27
 Energy =       0.5753612754
c    -1.2010176    2.6485691   -0.2618283  0.00   -0.0013686    0.0016146   -0.0003524
c    -1.1592661    1.2910221   -0.1275209  0.00   -0.0018088   -0.0018712   -0.0001899
c     0.0487694    0.6915780   -0.0538176  0.00   -0.0014995   -0.0034665   -0.0003675
c    -0.0410337    3.3724955   -0.3177857  0.00   -0.0008362    0.0021236   -0.0002899
c     1.1689014    2.7429307   -0.2466296  0.00    0.0005894    0.0019801   -0.0003355
c     1.1872480    1.3886790   -0.1205350  0.00    0.0011396    0.0008128   -0.0001685
n     0.3087000   -0.7000196    0.0608159  0.00    0.0028197    0.0002349   -0.0000802
c     2.2277559    0.5361064   -0.0739987  0.00    0.0032683   -0.0005672   -0.0000400
c     1.7407490   -0.7161114    0.0272120  0.00   -0.0016277   -0.0015690   -0.0010723
h    -0.3632584   -1.4952697    0.1572903  0.00   -0.0000359   -0.0002109    0.0001334
c     3.6995350    0.8736427   -0.2147236  0.00   -0.0015853    0.0003732   -0.0002054
c     4.0930037    1.3498243   -1.6422162  0.00    0.0001646   -0.0001315    0.0030049
h     4.3104429   -0.0189868    0.0548106  0.00    0.0010743   -0.0009930    0.0010796
h     3.9516253    1.6721184    0.5201156  0.00   -0.0000034    0.0016291    0.0012708
c     3.5789075    0.4356533   -2.7676651  0.00   -0.0048341    0.0016171    0.0032030
n     5.5633657    1.5738543   -1.7185198  0.00   -0.0156153   -0.0053360   -0.0230209
h     3.5932577    2.3231986   -1.8438973  0.00   -0.0006657    0.0016104    0.0000442
h     6.0573214    1.3915339   -0.7972183  0.00    0.0061929   -0.0012825    0.0192997
h     6.0254211    0.9814572   -2.4832579  0.00   -1.5256357   -1.5077205   -2.5167005
h    -2.1606839    3.1557943   -0.3321057  0.00   -0.0006262    0.0002584   -0.0006006
h    -2.0693180    0.7009633   -0.0910232  0.00   -0.0004164   -0.0005397   -0.0003186
h    -0.0837658    4.4544081   -0.4297414  0.00   -0.0003914    0.0012569   -0.0005796
h     2.0876131    3.3192454   -0.2963630  0.00    0.0004121    0.0003570   -0.0005785
h     2.3422427   -1.6228204    0.0221984  0.00   -0.0001643   -0.0011020    0.0002228
o     2.2241735    0.1480170   -2.8842811  0.00   -0.0027157   -0.0015379    0.0024459
o     4.4462203   -0.0485712   -3.7435171  0.00    0.0064966    0.0006602   -0.0005880
h     5.3649236    0.3430898   -3.5496764  0.00    1.5376726    1.5117998    2.5147838
    27
 Energy =       0.5214668900
c    -1.1596325    2.7265974   -0.1693808  0.00   -0.0022505    0.0011872   -0.0002468
c    -1.1450838    1.3690289   -0.0296409  0.00   -0.0025905   -0.0016218   -0.0001269
c     0.0512381    0.7417745    0.0052187  0.00   -0.0012829   -0.0032418   -0.0002583
c     0.0153303    3.4229154   -0.2688034  0.00   -0.0005303    0.0025777   -0.0003227
c     1.2127409    2.7654849   -0.2357918  0.00    0.0015398    0.0017178   -0.0002973
c     1.2034322    1.4117456   -0.1037798  0.00    0.0017714    0.0008028   -0.0001965
n     0.2824485   -0.6548457    0.1226562  0.00    0.0011508    0.0002098    0.0000382
c     2.2253943    0.5361017   -0.0832878  0.00    0.0034298   -0.0002578    0.0002418
c     1.7132833   -0.7039308    0.0446644  0.00   -0.0004515   -0.0016765   -0.0008827
h    -0.4044222   -1.4341537    0.2465551  0.00   -0.0007224   -0.0008850    0.0002284
c     3.7005432    0.8405738   -0.2640198  0.00   -0.0005948   -0.0000149   -0.0001438
c     4.0696490    1.2903097   -1.7065983  0.00    0.0006986   -0.0000930    0.0023653
h     4.3005936   -0.0601237    0.0023557  0.00    0.0010446   -0.0008901    0.0008275
h     3.9853022    1.6434964    0.4544099  0.00    0.0001873    0.0018357    0.0014892
c     3.5605372    0.3395092   -2.8052655  0.00   -0.0028714    0.0016667    0.0029704
n     5.5345362    1.5423230   -1.8003718  0.00   -0.0127244   -0.0041593   -0.0196413
h     3.5492513    2.2490961   -1.9262666  0.00   -0.0006353    0.0017378   -0.0002333
h     6.0440801    1.3501583   -0.8916076  0.00    0.0053160   -0.0011115    0.0165582
h     5.9935036    0.9633312   -2.5727902  0.00   -1.2998148   -1.2846797   -2.1441780
h    -2.1097742    3.2560519   -0.2078003  0.00   -0.0013683    0.0004364   -0.0005077
h    -2.0676609    0.8006547    0.0429245  0.00   -0.0012867   -0.0008700   -0.0002037
h    -0.0057504    4.5052482   -0.3832948  0.00   -0.0003228    0.0013162   -0.0005126
h     2.1434446    3.3200581   -0.3179859  0.00    0.0011258    0.0006812   -0.0004930
h     2.2944704   -1.6239545    0.0297710  0.00    0.0001171   -0.0012018    0.0001770
o     2.2152497   -0.0107361   -2.8739967  0.00   -0.0061194   -0.0022166    0.0017432
o     4.4145441   -0.1116423   -3.8093110  0.00    0.0047841   -0.0002301   -0.0011563
h     5.3245848    0.3173299   -3.6524417  0.00    1.3124006    1.2889807    2.1427618
    27
 Energy =       0.4650627695
c    -1.1036618    2.8387119   -0.1132649  0.00   -0.0029199    0.0012080   -0.0001735
c    -1.1317689    1.4815952    0.0318276  0.00   -0.0031536   -0.0016120   -0.0000210
c     0.0437290    0.8142669    0.0420482  0.00   -0.0011592   -0.0028668   -0.0001539
c     0.0922819    3.4947662   -0.2422116  0.00   -0.0003197    0.0031271   -0.0003682
c     1.2678660    2.7971802   -0.2334736  0.00    0.0022629    0.0017224   -0.0003000
c     1.2155749    1.4447131   -0.0955465  0.00    0.0020872    0.0006779   -0.0001960
n     0.2304518   -0.5891831    0.1637487  0.00   -0.0000631   -0.0002705    0.0001768
c     2.2082832    0.5356661   -0.0899139  0.00    0.0034759    0.0000256    0.0005021
c     1.6581079   -0.6861528    0.0583597  0.00    0.0004156   -0.0020301   -0.0006254
h    -0.4793570   -1.3451565    0.3061877  0.00   -0.0013711   -0.0015286    0.0003250
c     3.6901018    0.7914948   -0.2943916  0.00    0.0001940   -0.0000837   -0.0002499
c     4.0544133    1.2092494   -1.7477362  0.00    0.0012977    0.0000027    0.0018288
h     4.2668354   -0.1227738   -0.0225907  0.00    0.0010830   -0.0010272    0.0006232
h     4.0075053    1.5959831    0.4087722  0.00    0.0003177    0.0019758    0.0015327
c     3.5513776    0.2280401   -2.8235421  0.00   -0.0015933    0.0014804    0.0024649
n     5.5166781    1.4729537   -1.8451020  0.00   -0.0105392   -0.0030820   -0.0163437
h     3.5259482    2.1582640   -1.9897423  0.00   -0.0005601    0.0016489   -0.0003481
h     6.0336339    1.2541943   -0.9485002  0.00    0.0045544   -0.0009379    0.0139036
h     5.9717423    0.9127967   -2.6290086  0.00   -1.0662338   -1.0540545   -1.7588989
h    -2.0365494    3.4001169   -0.1311867  0.00   -0.0019431    0.0007265   -0.0004143
h    -2.0715882    0.9448344    0.1290309  0.00   -0.0019345   -0.0011368   -0.0000856
h     0.1053155    4.5772407   -0.3595542  0.00   -0.0002474    0.0016825   -0.0004770
h     2.2155858    3.3198204   -0.3379051  0.00    0.0017336    0.0010078   -0.0004360
h     2.2091047   -1.6250134    0.0394415  0.00    0.0004489   -0.0015405    0.0001256
o     2.2172856   -0.1694892   -2.8541026  0.00   -0.0072060   -0.0023900    0.0011167
o     4.3908225   -0.1989649   -3.8503853  0.00    0.0034291   -0.0006705   -0.0013160
h     5.2921145    0.2572479   -3.7251374  0.00    1.0779439    1.0579455    1.7578081
    27
 Energy =       0.3888297866
c    -1.0335311    2.9385905    0.0048125  0.00   -0.0032940    0.0014161   -0.0000840
c    -1.1041698    1.5809633    0.1302523  0.00   -0.0036101   -0.0009185    0.0000876
c     0.0474589    0.8727439    0.0909137  0.00   -0.0006747   -0.0021844   -0.0000406
c     0.1802822    3.5544730   -0.1538681  0.00   -0.0007680    0.0034220   -0.0003215
c     1.3309023    2.8160301   -0.1945280  0.00    0.0029620    0.0010650   -0.0002713
c     1.2356748    1.4640908   -0.0756333  0.00    0.0020959    0.0002581   -0.0001498
n     0.1894618   -0.5383964    0.1877717  0.00   -0.0013053   -0.0006756    0.0003225
c     2.1965676    0.5218241   -0.1126936  0.00    0.0034198   -0.0005225    0.0002990
c     1.6102696   -0.6824513    0.0383931  0.00    0.0017687   -0.0019977   -0.0004459
h    -0.5411025   -1.2722518    0.3411828  0.00   -0.0015023   -0.0015932    0.0003213
c     3.6809315    0.7323973   -0.3493023  0.00    0.0008486   -0.0002892   -0.0005733
c     4.0252925    1.1452242   -1.8084486  0.00    0.0009003   -0.0001760    0.0011808
h     4.2372171   -0.1990033   -0.0937778  0.00    0.0011170   -0.0010023    0.0003720
h     4.0365285    1.5240620    0.3501338  0.00    0.0004897    0.0018485    0.0014853
c     3.5229047    0.1483789   -2.8708105  0.00   -0.0006641    0.0012848    0.0020253
n     5.4820130    1.4311126   -1.9174612  0.00   -0.0068981   -0.0020139   -0.0117271
h     3.4811117    2.0846624   -2.0518056  0.00   -0.0003882    0.0011672   -0.0003705
h     6.0119186    1.1933781   -1.0364534  0.00    0.0031321   -0.0006806    0.0096679
h     5.9329464    0.8884386   -2.7088208  0.00   -0.7569805   -0.7480267   -1.2477624
h    -1.9467522    3.5327694    0.0275664  0.00   -0.0026820    0.0012944   -0.0002562
h    -2.0587897    1.0758697    0.2518776  0.00   -0.0022166   -0.0010087    0.0000241
h     0.2275022    4.6378891   -0.2540739  0.00   -0.0003359    0.0018940   -0.0003777
h     2.2932229    3.3068284   -0.3214291  0.00    0.0020082    0.0009780   -0.0003228
h     2.1296057   -1.6388934   -0.0067912  0.00    0.0009180   -0.0018671    0.0000330
o     2.1999959   -0.2841436   -2.8634054  0.00   -0.0064135   -0.0019358    0.0007581
o     4.3400826   -0.2582099   -3.9235450  0.00    0.0021011   -0.0009000   -0.0013470
h     5.2342888    0.2160254   -3.8339351  0.00    0.7659718    0.7511644    1.2474732
    27
 Energy =       0.3312659062
c    -0.9754339    2.9886602    0.1240722  0.00   -0.0028448    0.0014917   -0.0000467
c    -1.0727270    1.6307244    0.2230278  0.00   -0.0032368   -0.0003296    0.0001234
c     0.0608787    0.8982208    0.1350365  0.00   -0.0003157   -0.0014618    0.0000009
c     0.2465163    3.5806374   -0.0568510  0.00   -0.0011484    0.0030427   -0.0002105
c     1.3783309    2.8180148   -0.1462280  0.00    0.0027706    0.0005067   -0.0002170
c     1.2562051    1.4665311   -0.0533411  0.00    0.0015907    0.0000104   -0.0000725
n     0.1745226   -0.5174781    0.1986660  0.00   -0.0015070   -0.0008231    0.0003277
c     2.1946424    0.5050655   -0.1366943  0.00    0.0028755   -0.0009781    0.0000921
c     1.5873880   -0.6889620    0.0072012  0.00    0.0022050   -0.0016693   -0.0003507
h    -0.5671899   -1.2386062    0.3567583  0.00   -0.0011369   -0.0012001    0.0002384
c     3.6766043    0.6909816   -0.4048885  0.00    0.0006901   -0.0004333   -0.0004162
c     3.9930860    1.1197112   -1.8658266  0.00    0.0002733   -0.0003644    0.0004716
h     4.2231994   -0.2530179   -0.1762686  0.00    0.0010896   -0.0009750    0.0002589
h     4.0607647    1.4653251    0.2983937  0.00    0.0004868    0.0015301    0.0013469
c     3.4842353    0.1213806   -2.9243559  0.00   -0.0003068    0.0009159    0.0014527
n     5.4430839    1.4295638   -1.9927337  0.00   -0.0041061   -0.0012403   -0.0081342
h     3.4315747    2.0526230   -2.0941293  0.00   -0.0003719    0.0009242   -0.0003749
h     5.9850715    1.2137856   -1.1156310  0.00    0.0022914   -0.0006091    0.0065819
h     5.8961494    0.8785115   -2.7710726  0.00   -0.5288040   -0.5219585   -0.8707145
h    -1.8738515    3.6023550    0.1863195  0.00   -0.0026361    0.0014606   -0.0001407
h    -2.0342375    1.1445510    0.3624175  0.00   -0.0018303   -0.0006786    0.0000458
h     0.3152925    4.6645491   -0.1351348  0.00   -0.0003988    0.0017236   -0.0002706
h     2.3473633    3.2898627   -0.2903475  0.00    0.0016617    0.0007046   -0.0002091
h     2.0852919   -1.6548443   -0.0697935  0.00    0.0010760   -0.0018566   -0.0000282
o     2.1650130   -0.3176270   -2.8950738  0.00   -0.0044107   -0.0012997    0.0004973
o     4.2832141   -0.2862190   -3.9901906  0.00    0.0012268   -0.0007623   -0.0010341
h     5.1768453    0.1881024   -3.9272111  0.00    0.5348169    0.5243292    0.8707822
    27
 Energy =       0.2825953851
c    -0.9037345    3.0539446    0.2427630  0.00   -0.0026743    0.0012374    0.0000730
c    -1.0333536    1.6980309    0.3267260  0.00   -0.0030144    0.0001502    0.0001988
c     0.0767895    0.9378512    0.1894494  0.00   -0.0001095   -0.0010621    0.0000369
c     0.3264143    3.6163308    0.0273774  0.00   -0.0010910    0.0026791   -0.0001248
c     1.4338465    2.8261230   -0.1112232  0.00    0.0027016   -0.0000019   -0.0002167
c     1.2792693    1.4775402   -0.0319854  0.00    0.0014219   -0.0001316   -0.0000752
n     0.1559559   -0.4808208    0.2316809  0.00   -0.0019556   -0.0005826    0.0003837
c     2.1894980    0.4943863   -0.1574865  0.00    0.0024136   -0.0010996   -0.0000289
c     1.5574829   -0.6853632   -0.0070611  0.00    0.0025315   -0.0013544   -0.0003033
h    -0.5984215   -1.1851527    0.4042156  0.00   -0.0010350   -0.0010086    0.0002080
c     3.6674426    0.6493609   -0.4644186  0.00    0.0008722   -0.0006748   -0.0003006
c     3.9520915    1.0764441   -1.9325115  0.00   -0.0001582   -0.0006132   -0.0000590
h     4.2022150   -0.3049166   -0.2527683  0.00    0.0009005   -0.0007000    0.0000619
h     4.0831667    1.4132192    0.2318427  0.00    0.0005025    0.0012298    0.0011181
c     3.4468061    0.0565664   -2.9733583  0.00    0.0006263    0.0008752    0.0010209