    13
 Energy =       0.1018137020
c    -3.7133889    1.6950595    0.3173519  0.00   -0.0768982    0.0223056    0.1041434
c    -2.4962693    2.6345192    0.2419999  0.00    0.2277253    0.1175229   -0.3219317
c    -4.9565486    2.3924193   -0.2155699  0.00    0.0175817   -0.0034984    0.0006579
h    -5.2099685    3.2528291    0.4143399  0.00    0.0018615   -0.0138637   -0.0110099
h    -5.8205883    1.7190695   -0.2147749  0.00    0.0120386    0.0115170   -0.0022349
h    -4.8083986    2.7651692   -1.2348596  0.00   -0.0071072   -0.0028236    0.0181923
n    -3.4097890    0.4519539   -0.4549189  0.00    0.0443690   -0.0367419   -0.0532259
h    -3.8575589    1.4177196    1.3669296  0.00    0.0036784    0.0002988   -0.0244463
h    -4.2340588    0.2238779   -1.0206697  0.00    0.0219141    0.0302780    0.0217567
h    -2.6878492    0.6694128   -1.1486897  0.00   -0.0279644    0.0111398    0.0376872
o    -1.9513094    3.0041591   -0.7839488  0.00   -0.1408475   -0.0897293    0.2465786
o    -2.1005994    3.0267291    1.4825496  0.00   -0.0364570   -0.0326771   -0.0077324
h    -1.1397697    2.7938992    1.5347396  0.00   -0.0398945   -0.0137280   -0.0084350
    13
 Energy =       0.0790862282
c    -3.6795213    1.6897060    0.2843839  0.00   -0.0305959    0.0096818    0.0404517
c    -2.5182261    2.6845336    0.2591501  0.00    0.1005154    0.0398072   -0.1331831
c    -4.9885186    2.3582076   -0.1590791  0.00    0.0057905    0.0004975    0.0005938
h    -5.2527579    3.1829566    0.5323724  0.00   -0.0006335   -0.0042855   -0.0028038
h    -5.8214840    1.6301851   -0.1467246  0.00    0.0037442    0.0032552   -0.0002497
h    -4.8944679    2.7845938   -1.1782074  0.00   -0.0029315    0.0007696    0.0050640
n    -3.3796928    0.4921128   -0.5476009  0.00    0.0185888   -0.0189457   -0.0210670
h    -3.7739317    1.3627898    1.3404530  0.00    0.0022063   -0.0007339   -0.0077357
h    -4.1944444    0.2501898   -1.1450461  0.00    0.0093982    0.0119671    0.0070843
h    -2.6216124    0.7160622   -1.2243630  0.00   -0.0099577    0.0060159    0.0154362
o    -1.9512600    3.0783298   -0.8632814  0.00   -0.0585368   -0.0379680    0.1023424
o    -2.1014385    3.1820044    1.4716312  0.00   -0.1035065    0.0552025   -0.0092166
h    -1.2087411    2.6351461    1.6607907  0.00    0.0659186   -0.0652637    0.0032834
    13
 Energy =       0.0759679297
c    -3.7150020    1.7114028    0.3053271  0.00   -0.0263086    0.0086896    0.0350496
c    -2.5179699    2.6621854    0.2929373  0.00    0.0893201    0.0340477   -0.1189843
c    -4.9755507    2.4069871   -0.2425573  0.00    0.0027966   -0.0000908    0.0018550
h    -5.2312324    3.2981521    0.3736192  0.00   -0.0025721    0.0001993   -0.0001894
h    -5.8422507    1.7170501   -0.2115783  0.00    0.0022529    0.0018600    0.0005386
h    -4.8160178    2.7496679   -1.2909728  0.00   -0.0014948    0.0026351   -0.0009002
n    -3.4156101    0.4677654   -0.4583688  0.00    0.0155060   -0.0202231   -0.0158380
h    -3.8791775    1.4388516    1.3727847  0.00    0.0009141   -0.0020418   -0.0032405
h    -4.2090912    0.2209769   -1.0847955  0.00    0.0075901    0.0100170    0.0053063
h    -2.6087701    0.6289964   -1.1031119  0.00   -0.0041605    0.0058186    0.0097092
o    -1.9722664    3.0855088   -0.8397227  0.00   -0.0522911   -0.0334991    0.0888261
o    -2.0480553    3.1036814    1.5107505  0.00   -0.0906578    0.0508368   -0.0054931
h    -1.1551026    2.5555917    1.6601673  0.00    0.0591050   -0.0582494    0.0033609
    13
 Energy =       0.0727639930
c    -3.7223546    1.7288352    0.3198623  0.00   -0.0184877    0.0101374    0.0311576
c    -2.5778499    2.7424836    0.3177987  0.00    0.0674706    0.0269451   -0.0855365
c    -4.9931827    2.3237587   -0.3306685  0.00   -0.0016843   -0.0000968   -0.0014971
h    -5.3231677    3.2407123    0.2173348  0.00   -0.0034904    0.0045035    0.0024056
h    -5.8250886    1.5888630   -0.2996769  0.00    0.0002808    0.0003951   -0.0001657
h    -4.7988522    2.6079043   -1.3924618  0.00   -0.0015770    0.0023697   -0.0031647
n    -3.3256496    0.4570813   -0.3568540  0.00    0.0164365   -0.0205586   -0.0078254
h    -3.9276734    1.5114226    1.3957042  0.00    0.0010320   -0.0012744    0.0002116
h    -4.0619489    0.1376724   -1.0298139  0.00    0.0003513    0.0038338   -0.0022361
h    -2.4679284    0.6020618   -0.9443588  0.00    0.0009947    0.0025664    0.0032161
o    -2.0383475    3.1886033   -0.8285763  0.00   -0.0384105   -0.0239460    0.0648511
o    -2.1163442    3.2069224    1.5330324  0.00   -0.0675613    0.0396593   -0.0043002
h    -1.2077090    2.7104966    1.6831565  0.00    0.0446454   -0.0445344    0.0028835
    13
 Energy =       0.0697776614
c    -3.7383145    1.7178459    0.3175903  0.00   -0.0099034    0.0086997    0.0168172
c    -2.5635799    2.6941268    0.3172193  0.00    0.0372453    0.0078227   -0.0455056
c    -5.0116457    2.3671656   -0.2719441  0.00   -0.0022939    0.0005810   -0.0020118
h    -5.2887044    3.2835342    0.3036488  0.00   -0.0025379    0.0038749    0.0022078
h    -5.8654871    1.6572313   -0.2251914  0.00   -0.0005488   -0.0000435   -0.0001704
h    -4.8434991    2.6630585   -1.3340559  0.00   -0.0008399    0.0012090   -0.0023090
n    -3.4147088    0.4501410   -0.3995143  0.00    0.0085650   -0.0165230    0.0151644
h    -3.9183532    1.4808805    1.3943469  0.00    0.0006011   -0.0006246    0.0007459
h    -4.1118355    0.2499661   -1.1729694  0.00   -0.0147380   -0.0017217   -0.0155844
h    -2.4748502    0.5277870   -0.8837590  0.00    0.0169853    0.0058672   -0.0045026
o    -2.1074707    3.2367105   -0.8541227  0.00   -0.0228957   -0.0094378    0.0257661
o    -1.9986919    3.0698222    1.5288676  0.00   -0.0483606    0.0347320    0.0053716
h    -1.0489559    2.6485480    1.5643629  0.00    0.0387216   -0.0344360    0.0040108
    13
 Energy =       0.0699753084
c    -3.7285429    1.7115131    0.3151606  0.00   -0.0090619    0.0077379    0.0156553
c    -2.5789515    2.7173634    0.3164536  0.00    0.0328509    0.0054135   -0.0383290
c    -5.0233939    2.3356032   -0.2543282  0.00   -0.0023042    0.0009312   -0.0017494
h    -5.3145971    3.2408472    0.3313161  0.00   -0.0024031    0.0036763    0.0020347
h    -5.8600011    1.6052248   -0.2042684  0.00   -0.0007703   -0.0002531   -0.0000795
h    -4.8734198    2.6445480   -1.3154897  0.00   -0.0006849    0.0012072   -0.0022949
n    -3.3825580    0.4599832   -0.4182434  0.00    0.0077209   -0.0154386    0.0136597
h    -3.8932909    1.4582569    1.3908583  0.00    0.0004313   -0.0007045    0.0008731
h    -4.0732728    0.2584452   -1.1954613  0.00   -0.0132351   -0.0016724   -0.0141030
h    -2.4431777    0.5568800   -0.8979726  0.00    0.0155786    0.0052753   -0.0042324
o    -2.1764111    3.3230741   -0.8490478  0.00   -0.0193729   -0.0064141    0.0195481
o    -1.9950221    3.0730374    1.5250661  0.00   -0.0439332    0.0314399    0.0053516
h    -1.0434577    2.6620411    1.5404358  0.00    0.0351838   -0.0311986    0.0036658
    13
 Energy =       0.0706762331
c    -3.7163286    1.7043265    0.3095591  0.00   -0.0086872    0.0069818    0.0151365
c    -2.6021277    2.7499012    0.3252393  0.00    0.0287553    0.0024455   -0.0306147
c    -5.0347460    2.2939573   -0.2428727  0.00   -0.0023291    0.0013965   -0.0015149
h    -5.3497938    3.1828780    0.3553992  0.00   -0.0023964    0.0037226    0.0019935
h    -5.8477644    1.5364192   -0.1965909  0.00   -0.0011664   -0.0006406    0.0000407
h    -4.9013106    2.6213632   -1.3007999  0.00   -0.0005037    0.0012479   -0.0023294
n    -3.3331594    0.4772672   -0.4459702  0.00    0.0067890   -0.0152622    0.0122055
h    -3.8687297    1.4272092    1.3814749  0.00    0.0001851   -0.0008371    0.0010779
h    -4.0161516    0.2693345   -1.2269032  0.00   -0.0118965   -0.0016736   -0.0128245
h    -2.3962518    0.6072489   -0.9216791  0.00    0.0148437    0.0047456   -0.0042763
o    -2.2620617    3.4349602   -0.8227177  0.00   -0.0156404   -0.0022358    0.0122407
o    -2.0023810    3.0783649    1.5339415  0.00   -0.0397828    0.0281760    0.0055513
h    -1.0552906    2.6635873    1.5363986  0.00    0.0318294   -0.0280666    0.0033138
    13
 Energy =       0.0719092233
c    -3.7019985    1.6998460    0.3022075  0.00   -0.0088493    0.0064112    0.0151985
c    -2.6317907    2.7912368    0.3433738  0.00    0.0253658   -0.0005181   -0.0232811
c    -5.0416909    2.2460975   -0.2446678  0.00   -0.0023597    0.0018054   -0.0014468
h    -5.3888641    3.1175453    0.3619735  0.00   -0.0024582    0.0039131    0.0020655
h    -5.8270848    1.4585915   -0.2070548  0.00   -0.0016619   -0.0011416    0.0001238
h    -4.9191424    2.5899011   -1.2986862  0.00   -0.0003528    0.0012436   -0.0022673
n    -3.2677406    0.5023406   -0.4733418  0.00    0.0056520   -0.0160779    0.0110609
h    -3.8487291    1.3974492    1.3682863  0.00   -0.0000869   -0.0009302    0.0012491
h    -3.9477150    0.2718595   -1.2495468  0.00   -0.0110793   -0.0015913   -0.0118319
h    -2.3418347    0.6807316   -0.9554308  0.00    0.0152059    0.0044465   -0.0047580
o    -2.3582869    3.5586759   -0.7767152  0.00   -0.0121413    0.0025032    0.0051886
o    -2.0202421    3.0911319    1.5538170  0.00   -0.0371916    0.0254556    0.0057527
h    -1.0909772    2.6414106    1.5602643  0.00    0.0299571   -0.0255196    0.0029461
    13
 Energy =       0.0727812158
c    -3.6902253    1.7010971    0.2984168  0.00   -0.0084667    0.0057810    0.0146077
c    -2.6559251    2.8265426    0.3543590  0.00    0.0230409   -0.0014802   -0.0193539
c    -5.0438444    2.2095014   -0.2508742  0.00   -0.0023525    0.0019262   -0.0014569
h    -5.4163302    3.0705614    0.3554880  0.00   -0.0023665    0.0038255    0.0020045
h    -5.8073604    1.4003187   -0.2162291  0.00   -0.0018303   -0.0013443    0.0001298
h    -4.9281210    2.5583007   -1.3038497  0.00   -0.0003047    0.0011604   -0.0020758
n    -3.2158598    0.5237436   -0.4837472  0.00    0.0049143   -0.0158410    0.0104809
h    -3.8336302    1.3863197    1.3612812  0.00   -0.0001658   -0.0009005    0.0011900
h    -3.8964465    0.2638359   -1.2493861  0.00   -0.0106341   -0.0015258   -0.0111359
h    -2.3050732    0.7405007   -0.9785996  0.00    0.0150586    0.0042737   -0.0048732
o    -2.4317933    3.6402209   -0.7468844  0.00   -0.0101685    0.0042436    0.0023267
o    -2.0320999    3.1127734    1.5618342  0.00   -0.0362919    0.0240057    0.0056684
h    -1.1293875    2.6131013    1.5826700  0.00    0.0295671   -0.0241242    0.0024879
    13
 Energy =       0.0730435577
c    -3.6815555    1.7036370    0.2983334  0.00   -0.0076658    0.0050366    0.0134590
c    -2.6721110    2.8516576    0.3496458  0.00    0.0209915   -0.0015224   -0.0171934
c    -5.0481296    2.1823571   -0.2449092  0.00   -0.0022847    0.0019647   -0.0013777
h    -5.4348963    3.0368290    0.3612590  0.00   -0.0021922    0.0035557    0.0018346
h    -5.7946470    1.3576440   -0.2049319  0.00   -0.0018371   -0.0014005    0.0001349
h    -4.9447814    2.5314637   -1.2989549  0.00   -0.0002758    0.0011016   -0.0019347
n    -3.1868216    0.5362980   -0.4847634  0.00    0.0044577   -0.0145933    0.0095318
h    -3.8139827    1.3867519    1.3618952  0.00   -0.0001600   -0.0008887    0.0011145
h    -3.8637073    0.2625694   -1.2477815  0.00   -0.0096922   -0.0014186   -0.0101417
h    -2.2824641    0.7694600   -0.9822231  0.00    0.0137965    0.0038763   -0.0044836
o    -2.4815632    3.6789339   -0.7486619  0.00   -0.0089769    0.0043633    0.0014444
o    -2.0321033    3.1400670    1.5480339  0.00   -0.0338445    0.0222055    0.0055523
h    -1.1493338    2.6091489    1.5775374  0.00    0.0276836   -0.0222802    0.0020597
    13
 Energy =       0.0730793362
c    -3.6748564    1.7058854    0.2993205  0.00   -0.0068618    0.0043632    0.0122121
c    -2.6837013    2.8700438    0.3389987  0.00    0.0190424   -0.0014189   -0.0155159
c    -5.0533593    2.1610807   -0.2329183  0.00   -0.0021965    0.0019344   -0.0012563
h    -5.4484346    3.0102389    0.3746790  0.00   -0.0020096    0.0032501    0.0016547
h    -5.7859642    1.3244168   -0.1851976  0.00   -0.0017889   -0.0013952    0.0001408
h    -4.9645359    2.5097740   -1.2883496  0.00   -0.0002463    0.0010504   -0.0018343
n    -3.1699230    0.5442225   -0.4842594  0.00    0.0040442   -0.0132199    0.0086082
h    -3.7933482    1.3902328    1.3648351  0.00   -0.0001500   -0.0008766    0.0010834
h    -3.8417572    0.2666918   -1.2492998  0.00   -0.0087304   -0.0013123   -0.0091617
h    -2.2665979    0.7836477   -0.9788000  0.00    0.0124562    0.0034757   -0.0040635
o    -2.5164152    3.6974135   -0.7633425  0.00   -0.0080188    0.0041522    0.0010144
o    -2.0280197    3.1664731    1.5268611  0.00   -0.0308787    0.0202940    0.0053902
h    -1.1591840    2.6166965    1.5619519  0.00    0.0253382   -0.0202972    0.0017281
    13
 Energy =       0.0728040214
c    -3.6431281    1.7171949    0.3050105  0.00   -0.0007699   -0.0026752    0.0060516
c    -2.7388518    2.9547808    0.2761074  0.00    0.0099291   -0.0012644   -0.0084887
c    -5.0812206    2.0592513   -0.1589383  0.00   -0.0048896    0.0045228   -0.0003420
h    -5.5102895    2.8800138    0.4618834  0.00   -0.0017861    0.0022509    0.0006846
h    -5.7442994    1.1656637   -0.0695776  0.00   -0.0037915   -0.0040627    0.0007849
h    -5.0726083    2.4069576   -1.2203976  0.00   -0.0002180    0.0020451   -0.0035500
n    -3.1011659    0.5812296   -0.4843044  0.00    0.0024091   -0.0062489    0.0043320
h    -3.6834635    1.4109507    1.3811248  0.00    0.0000003   -0.0023553    0.0030641
h    -3.7446609    0.3020547   -1.2675776  0.00   -0.0033505   -0.0015830   -0.0044554
h    -2.1951093    0.8394072   -0.9543955  0.00    0.0054978    0.0010283   -0.0022944
o    -2.6686828    3.7571837   -0.8595821  0.00   -0.0024904    0.0059295   -0.0055453
o    -2.0028405    3.3010080    1.4058720  0.00   -0.0179081    0.0162034    0.0117710
h    -1.1997759    2.6711214    1.4692539  0.00    0.0173677   -0.0137904   -0.0020124
    13
 Energy =       0.0722536947
c    -3.6484739    1.7160266    0.3033685  0.00    0.0002019    0.0005419   -0.0003751
c    -2.7379426    2.9381540    0.2700901  0.00   -0.0020511   -0.0048610    0.0079482
c    -5.0837174    2.0693792   -0.1265531  0.00    0.0001658   -0.0006308   -0.0001627
h    -5.4970776    2.8769181    0.5176009  0.00   -0.0000412    0.0000966    0.0000948
h    -5.7427718    1.1792716   -0.0423140  0.00    0.0003979    0.0003901   -0.0000628
h    -5.0926874    2.4297458   -1.1798302  0.00    0.0000783   -0.0001833    0.0000729
n    -3.1358012    0.5860941   -0.5072778  0.00    0.0006249    0.0002252    0.0001475
h    -3.6698968    1.4036718    1.3747517  0.00   -0.0000248    0.0002806   -0.0000899
h    -3.7769911    0.3433448   -1.3005230  0.00   -0.0003762   -0.0003955   -0.0003192
h    -2.2227047    0.8285061   -0.9641822  0.00   -0.0002779    0.0002848    0.0001178
o    -2.5806145    3.6701197   -0.9036596  0.00    0.0008564    0.0042902   -0.0062057
o    -2.0077385    3.2967945    1.3931083  0.00    0.0016727    0.0003547   -0.0017416
h    -1.1896791    2.7087911    1.4498994  0.00   -0.0012267   -0.0003935    0.0005758
    13
 Energy =       0.0722446459
c    -3.6371227    1.7072322    0.2934208  0.00    0.0001795    0.0009439    0.0002214
c    -2.7225694    2.9270166    0.2638718  0.00   -0.0010684   -0.0022765    0.0040208
c    -5.0817241    2.0775361   -0.0920259  0.00   -0.0004159   -0.0004932   -0.0000578
h    -5.4746474    2.8722369    0.5812710  0.00   -0.0003132    0.0005265    0.0004560
h    -5.7434835    1.1887623   -0.0114595  0.00    0.0001858    0.0001720   -0.0000355
h    -5.1155725    2.4624555   -1.1367572  0.00   -0.0000675    0.0001097   -0.0005585
n    -3.1500836    0.5933560   -0.5557778  0.00    0.0009163   -0.0007426    0.0004558
h    -3.6331383    1.3701455    1.3580951  0.00    0.0000545    0.0000060    0.0005830
h    -3.8167343    0.3659304   -1.3328823  0.00   -0.0006811   -0.0004613   -0.0009455
h    -2.2520696    0.8454066   -1.0380924  0.00    0.0005180    0.0000897   -0.0004888
o    -2.5641527    3.6610630   -0.9058363  0.00    0.0004313    0.0021331   -0.0031152
o    -2.0013522    3.2881779    1.3923030  0.00    0.0004489    0.0005301   -0.0008731
h    -1.1934464    2.6874986    1.4683487  0.00   -0.0001881   -0.0005374    0.0003376
    13
 Energy =       0.0722419035
c    -3.6316854    1.7037656    0.2880383  0.00   -0.0000163    0.0002042    0.0000146
c    -2.7237115    2.9291102    0.2648458  0.00   -0.0004492   -0.0005840    0.0004229
c    -5.0779078    2.0691217   -0.0944392  0.00   -0.0000779   -0.0000948   -0.0000039
h    -5.4737792    2.8579348    0.5831813  0.00   -0.0000752    0.0001284    0.0001055
h    -5.7359172    1.1769025   -0.0183821  0.00    0.0000260    0.0000150   -0.0000028
h    -5.1138778    2.4599156   -1.1364988  0.00   -0.0000083    0.0000291   -0.0001325
n    -3.1396187    0.5977434   -0.5674181  0.00    0.0001306   -0.0002439    0.0001544
h    -3.6259504    1.3600648    1.3501252  0.00   -0.0000051   -0.0000129    0.0001425
h    -3.8090590    0.3657907   -1.3400146  0.00   -0.0001714   -0.0000874   -0.0002156
h    -2.2478347    0.8606254   -1.0551085  0.00    0.0002358    0.0000441   -0.0001685
o    -2.5554551    3.6582505   -0.9045305  0.00    0.0000517    0.0004466   -0.0006954
o    -2.0269615    3.3057031    1.4042394  0.00   -0.0002402    0.0007355    0.0002149
h    -1.2243387    2.7018892    1.5104407  0.00    0.0005996   -0.0005798    0.0001639
    13
 Energy =       0.0722412250
c    -3.6285624    1.7019218    0.2856675  0.00    0.0000008   -0.0000217    0.0000018
c    -2.7221056    2.9285006    0.2630863  0.00    0.0000748    0.0001149   -0.0001061
c    -5.0768075    2.0674324   -0.0884211  0.00    0.0000005    0.0000144    0.0000068
h    -5.4701149    2.8528071    0.5943774  0.00    0.0000038   -0.0000106   -0.0000094
h    -5.7337424    1.1743154   -0.0131007  0.00   -0.0000058   -0.0000045    0.0000023
h    -5.1179907    2.4627336   -1.1284528  0.00    0.0000003    0.0000026    0.0000030
n    -3.1395446    0.6001045   -0.5765456  0.00   -0.0000191    0.0000191   -0.0000082
h    -3.6175602    1.3536792    1.3460706  0.00    0.0000000   -0.0000047   -0.0000043
h    -3.8132690    0.3690840   -1.3454318  0.00    0.0000198    0.0000114    0.0000200
h    -2.2517268    0.8668380   -1.0690276  0.00   -0.0000097   -0.0000070    0.0000088
o    -2.5528007    3.6566553   -0.9060735  0.00   -0.0000114   -0.0000894    0.0001385
o    -2.0308476    3.3089487    1.4041592  0.00    0.0000165   -0.0001055   -0.0000197
h    -1.2310243    2.7037971    1.5181711  0.00   -0.0000705    0.0000812   -0.0000337
    13
 Energy =       0.0722412225
c    -3.6289286    1.7018920    0.2858396  0.00   -0.0000012    0.0000325   -0.0000028
c    -2.7224308    2.9284037    0.2635220  0.00   -0.0001122   -0.0001726    0.0001587
c    -5.0770784    2.0674001   -0.0885934  0.00   -0.0000008   -0.0000215   -0.0000102
h    -5.4705729    2.8527785    0.5941477  0.00   -0.0000057    0.0000160    0.0000141
h    -5.7339750    1.1742593   -0.0134693  0.00    0.0000087    0.0000067   -0.0000034
h    -5.1180239    2.4626828   -1.1286454  0.00   -0.0000005   -0.0000039   -0.0000046
n    -3.1397349    0.6000303   -0.5762935  0.00    0.0000284   -0.0000288    0.0000136
h    -3.6181497    1.3536951    1.3462708  0.00    0.0000000    0.0000071    0.0000065
h    -3.8129104    0.3696527   -1.3459149  0.00   -0.0000304   -0.0000172   -0.0000308
h    -2.2512918    0.8664223   -1.0678681  0.00    0.0000155    0.0000108   -0.0000136
o    -2.5530689    3.6568992   -0.9056996  0.00    0.0000172    0.0001343   -0.0002078
o    -2.0306196    3.3082677    1.4045754  0.00   -0.0000303    0.0001624    0.0000299
h    -1.2293118    2.7044339    1.5166076  0.00    0.0001112   -0.0001258    0.0000505
    13
 Energy =       0.0722412079
c    -3.6291221    1.7018718    0.2859284  0.00   -0.0000023    0.0000618   -0.0000053
c    -2.7226037    2.9283484    0.2637564  0.00   -0.0002133   -0.0003280    0.0003015
c    -5.0772239    2.0673809   -0.0886743  0.00   -0.0000015   -0.0000409   -0.0000195
h    -5.4708143    2.8527540    0.5940471  0.00   -0.0000107    0.0000303    0.0000269
h    -5.7340984    1.1742258   -0.0136591  0.00    0.0000166    0.0000128   -0.0000065
h    -5.1180506    2.4626636   -1.1287330  0.00   -0.0000009   -0.0000075   -0.0000088
n    -3.1398402    0.5999946   -0.5761761  0.00    0.0000539   -0.0000547    0.0000261
h    -3.6184541    1.3536895    1.3463714  0.00    0.0000000    0.0000134    0.0000124
h    -3.8127258    0.3699705   -1.3461904  0.00   -0.0000580   -0.0000327   -0.0000588
h    -2.2510643    0.8662077   -1.0672664  0.00    0.0000298    0.0000206   -0.0000261
o    -2.5532078    3.6570279   -0.9054982  0.00    0.0000326    0.0002551   -0.0003948
o    -2.0305014    3.3079004    1.4048027  0.00   -0.0000591    0.0003098    0.0000568
h    -1.2283902    2.7047825    1.5157704  0.00    0.0002129   -0.0002401    0.0000960
    13
 Energy =       0.0722411566
c    -3.6281316    1.7020078    0.2854896  0.00    0.0000037   -0.0000926    0.0000078
c    -2.7217283    2.9286742    0.2625522  0.00    0.0003196    0.0004896   -0.0004546
c    -5.0764710    2.0674843   -0.0883068  0.00    0.0000021    0.0000615    0.0000292
h    -5.4695965    2.8529127    0.5944630  0.00    0.0000161   -0.0000453   -0.0000404
h    -5.7334595    1.1744029   -0.0127110  0.00   -0.0000250   -0.0000192    0.0000097
h    -5.1178756    2.4627213   -1.1283494  0.00    0.0000014    0.0000113    0.0000128
n    -3.1392611    0.6001835   -0.5766976  0.00   -0.0000825    0.0000806   -0.0000296
h    -3.6169304    1.3537907    1.3458855  0.00    0.0000000   -0.0000199   -0.0000182
h    -3.8136336    0.3682605   -1.3446674  0.00    0.0000818    0.0000478    0.0000822
h    -2.2522140    0.8673268   -1.0703043  0.00   -0.0000374   -0.0000289    0.0000359
o    -2.5526278    3.6564709   -0.9064905  0.00   -0.0000488   -0.0003821    0.0005924
o    -2.0310171    3.3097629    1.4035847  0.00    0.0000447   -0.0004317   -0.0000827
h    -1.2331503    2.7028191    1.5200309  0.00   -0.0002757    0.0003288   -0.0001446
    13
 Energy =       0.0722409776
c    -3.6274475    1.7018624    0.2850392  0.00    0.0000068   -0.0001754    0.0000148
c    -2.7213168    2.9287984    0.2623132  0.00    0.0006069    0.0009301   -0.0008630
c    -5.0761223    2.0673808   -0.0874613  0.00    0.0000036    0.0001167    0.0000556
h    -5.4688584    2.8522290    0.5961159  0.00    0.0000302   -0.0000857   -0.0000764
h    -5.7329953    1.1741703   -0.0120069  0.00   -0.0000475   -0.0000366    0.0000186
h    -5.1183128    2.4634163   -1.1271634  0.00    0.0000027    0.0000216    0.0000238
n    -3.1389562    0.6008359   -0.5782647  0.00   -0.0001574    0.0001518   -0.0000533
h    -3.6154846    1.3527816    1.3451273  0.00    0.0000001   -0.0000380   -0.0000340
h    -3.8143915    0.3683941   -1.3450541  0.00    0.0001538    0.0000906    0.0001545
h    -2.2530773    0.8690185   -1.0733592  0.00   -0.0000679   -0.0000543    0.0000663
o    -2.5529837    3.6571034   -0.9060898  0.00   -0.0000922   -0.0007257    0.0011249
o    -2.0309395    3.3098933    1.4033602  0.00    0.0000755   -0.0008134   -0.0001573
h    -1.2352110    2.7009335    1.5219225  0.00   -0.0005145    0.0006183   -0.0002746
    13
 Energy =       0.0722410206
c    -3.6276224    1.7018900    0.2851233  0.00    0.0000061   -0.0001578    0.0000134
c    -2.7213881    2.9287369    0.2624500  0.00    0.0005462    0.0008370   -0.0007767
c    -5.0761874    2.0674623   -0.0877419  0.00    0.0000032    0.0001050    0.0000501
h    -5.4690249    2.8524292    0.5956585  0.00    0.0000272   -0.0000771   -0.0000687
h    -5.7331225    1.1743009   -0.0123271  0.00   -0.0000428   -0.0000329    0.0000167
h    -5.1181253    2.4633586   -1.1275084  0.00    0.0000024    0.0000194    0.0000214
n    -3.1390303    0.6007011   -0.5779411  0.00   -0.0001417    0.0001366   -0.0000477
h    -3.6159070    1.3529619    1.3452678  0.00    0.0000001   -0.0000342   -0.0000305
h    -3.8141974    0.3684132   -1.3450323  0.00    0.0001383    0.0000815    0.0001390
h    -2.2528610    0.8686466   -1.0726543  0.00   -0.0000609   -0.0000488    0.0000595
o    -2.5527967    3.6569700   -0.9060522  0.00   -0.0000830   -0.0006531    0.0010124
o    -2.0309901    3.3097617    1.4035471  0.00    0.0000676   -0.0007318   -0.0001416
h    -1.2348438    2.7011853    1.5216894  0.00   -0.0004627    0.0005562   -0.0002471
    13
 Energy =       0.0722410567
c    -3.6277788    1.7019136    0.2851980  0.00    0.0000055   -0.0001420    0.0000120
c    -2.7214513    2.9286803    0.2625727  0.00    0.0004916    0.0007533   -0.0006990
c    -5.0762457    2.0675353   -0.0879910  0.00    0.0000028    0.0000945    0.0000451
h    -5.4691728    2.8526073    0.5952531  0.00    0.0000245   -0.0000694   -0.0000618
h    -5.7332366    1.1744180   -0.0126126  0.00   -0.0000385   -0.0000296    0.0000151
h    -5.1179587    2.4633089   -1.1278144  0.00    0.0000021    0.0000175    0.0000192
n    -3.1390982    0.6005806   -0.5776547  0.00   -0.0001276    0.0001229   -0.0000428
h    -3.6162836    1.3531206    1.3453924  0.00    0.0000001   -0.0000308   -0.0000274
h    -3.8140255    0.3684332   -1.3450166  0.00    0.0001244    0.0000734    0.0001250
h    -2.2526687    0.8683135   -1.0720257  0.00   -0.0000547   -0.0000439    0.0000535
o    -2.5526265    3.6568485   -0.9060188  0.00   -0.0000746   -0.0005878    0.0009111
o    -2.0310369    3.3096433    1.4037158  0.00    0.0000605   -0.0006584   -0.0001274
h    -1.2345134    2.7014144    1.5214809  0.00   -0.0004161    0.0005004   -0.0002224
    13
 Energy =       0.0722410725
c    -3.6312781    1.7024222    0.2868568  0.00   -0.0000086    0.0002206   -0.0000185
c    -2.7228536    2.9273850    0.2653234  0.00   -0.0007429   -0.0011408    0.0010622
c    -5.0775541    2.0691742   -0.0935322  0.00   -0.0000173   -0.0001439   -0.0000618
h    -5.4724634    2.8565750    0.5862539  0.00   -0.0000431    0.0001111    0.0000983
h    -5.7357951    1.1770433   -0.0189860  0.00    0.0000561    0.0000435   -0.0000211
h    -5.1142553    2.4622376   -1.1346109  0.00   -0.0000041   -0.0000206   -0.0000441
n    -3.1406514    0.5978838   -0.5713037  0.00    0.0001740   -0.0002111    0.0001433
h    -3.6246864    1.3566186    1.3481555  0.00    0.0000004    0.0000416    0.0000574
h    -3.8102121    0.3689403   -1.3447381  0.00   -0.0002291   -0.0001171   -0.0002329
h    -2.2483904    0.8608539   -1.0579965  0.00    0.0001629    0.0000822   -0.0001249
o    -2.5487590    3.6540866   -0.9052767  0.00    0.0001251    0.0008901   -0.0013829
o    -2.0321162    3.3069787    1.4075208  0.00   -0.0002435    0.0010982    0.0001969
h    -1.2270817    2.7066184    1.5168126  0.00    0.0007701   -0.0008539    0.0003281
    13
 Energy =       0.0722405763
c    -3.6333786    1.7028258    0.2878503  0.00   -0.0000197    0.0004196   -0.0000345
c    -2.7219097    2.9253759    0.2657799  0.00   -0.0014160   -0.0021695    0.0020226
c    -5.0782314    2.0723812   -0.0952079  0.00   -0.0000358   -0.0002718   -0.0001157
h    -5.4723533    2.8618202    0.5828834  0.00   -0.0000844    0.0002139    0.0001884
h    -5.7384887    1.1818398   -0.0203099  0.00    0.0001049    0.0000800   -0.0000390
h    -5.1125438    2.4637947   -1.1370207  0.00   -0.0000074   -0.0000371   -0.0000877
n    -3.1442277    0.5955704   -0.5679477  0.00    0.0003222   -0.0004149    0.0002919
h    -3.6290216    1.3588861    1.3498208  0.00   -0.0000000    0.0000766    0.0001130
h    -3.8119242    0.3692548   -1.3440232  0.00   -0.0004465   -0.0002226   -0.0004523
h    -2.2488271    0.8544228   -1.0513257  0.00    0.0003366    0.0001621   -0.0002506
o    -2.5446497    3.6505438   -0.9063153  0.00    0.0002441    0.0016964   -0.0026338
o    -2.0296805    3.3036615    1.4079390  0.00   -0.0004961    0.0021129    0.0003768
h    -1.2208605    2.7064407    1.5123559  0.00    0.0014981   -0.0016455    0.0006209
    13
 Energy =       0.0722347114
c    -3.6227906    1.7012949    0.2831320  0.00   -0.0000560   -0.0006331    0.0000844
c    -2.7278176    2.9369507    0.2639370  0.00    0.0020098    0.0031994   -0.0028873
c    -5.0747619    2.0550273   -0.0885215  0.00   -0.0000189    0.0004582    0.0002079
h    -5.4744191    2.8344565    0.5968860  0.00    0.0000690   -0.0002537   -0.0002462
h    -5.7241589    1.1559163   -0.0153303  0.00   -0.0002082   -0.0001994    0.0000836
h    -5.1202234    2.4538301   -1.1270383  0.00    0.0000192    0.0001014    0.0000509
n    -3.1239773    0.6075778   -0.5831006  0.00   -0.0006914    0.0002393    0.0001062
h    -3.6081795    1.3487299    1.3419929  0.00   -0.0000153   -0.0001725   -0.0000882
h    -3.8005440    0.3659134   -1.3457314  0.00    0.0003419    0.0003216    0.0004119
h    -2.2446475    0.8882038   -1.0833381  0.00    0.0002159   -0.0000582    0.0000165
o    -2.5677913    3.6705922   -0.9001611  0.00   -0.0001866   -0.0023900    0.0037594
o    -2.0425584    3.3215957    1.4059439  0.00   -0.0002145   -0.0023900   -0.0005292
h    -1.2542274    2.7067289    1.5358085  0.00   -0.0012649    0.0017770   -0.0009701
    13
 Energy =       0.0722188689
c    -3.6169796    1.7006854    0.2808935  0.00   -0.0001293   -0.0012128    0.0001766
c    -2.7320496    2.9442007    0.2627467  0.00    0.0037842    0.0060558   -0.0054339
c    -5.0729384    2.0442334   -0.0855106  0.00   -0.0000622    0.0008909    0.0004010
h    -5.4765785    2.8184239    0.6030538  0.00    0.0001139   -0.0004628   -0.0004572
h    -5.7156786    1.1399770   -0.0128225  0.00   -0.0004139   -0.0004080    0.0001662
h    -5.1243451    2.4461553   -1.1225689  0.00    0.0000378    0.0002056    0.0000771
n    -3.1115754    0.6141218   -0.5899396  0.00   -0.0013588    0.0003310    0.0003744
h    -3.5969577    1.3442823    1.3383354  0.00   -0.0000320   -0.0003450   -0.0001485
h    -3.7923899    0.3627747   -1.3452904  0.00    0.0005373    0.0005991    0.0006994