    13
 Energy =       0.0960758648
c    -3.7133889    1.6950595    0.3173519  0.00   -0.1154088    0.0665230    0.0076056
c    -2.4962693    2.6345192    0.2419999  0.00    0.3694012   -0.0360815    0.1177798
c    -4.9565486    2.3924193   -0.2155699  0.00    0.0365976    0.0342519    0.0085501
h    -4.7854386    2.7464192   -1.2386596  0.00    0.0009303    0.0008068    0.0199429
h    -5.2149185    3.2645991    0.3947669  0.00    0.0028616   -0.0112469   -0.0116690
h    -5.8205083    1.7195795   -0.2420919  0.00    0.0071587    0.0153318   -0.0029408
n    -3.4097890    0.4519539   -0.4549189  0.00    0.0803319   -0.0550375   -0.0112738
h    -3.8575589    1.4177196    1.3669296  0.00    0.0065909   -0.0101752   -0.0250759
h    -2.5963493    0.6418898   -1.0496997  0.00   -0.0247193    0.0129005    0.0422753
h    -3.0749291   -0.2623099    0.1989099  0.00   -0.0111350    0.0297164   -0.0230748
o    -1.4040496    2.4172293    0.7380088  0.00   -0.2597865    0.0471727   -0.1272157
o    -2.7835192    3.7545589   -0.4737969  0.00   -0.0698035   -0.0570941    0.0087349
h    -2.5521993    4.5104687    0.1222010  0.00   -0.0230190   -0.0370679   -0.0036385
    13
 Energy =       0.0723208110
c    -3.6710214    1.7044702    0.2980927  0.00   -0.0664673    0.0403961    0.0034913
c    -2.4721899    2.6446707    0.1633777  0.00    0.2158395   -0.0199531    0.0700362
c    -4.9479599    2.3900841   -0.1718015  0.00    0.0240317    0.0218644    0.0052689
h    -4.8315697    2.7185683   -1.2204063  0.00    0.0019201    0.0014015    0.0100354
h    -5.1668208    3.2802160    0.4408402  0.00    0.0019854   -0.0057874   -0.0060714
h    -5.8107710    1.7027372   -0.1184905  0.00    0.0016297    0.0072851   -0.0012423
n    -3.4502198    0.4575275   -0.4787983  0.00    0.0434114   -0.0309780   -0.0068460
h    -3.7564714    1.4539797    1.3719888  0.00    0.0039974   -0.0052280   -0.0120239
h    -2.6416259    0.5890551   -1.1149568  0.00   -0.0113343    0.0078156    0.0228341
h    -3.1622696   -0.3006434    0.1658779  0.00   -0.0055782    0.0139350   -0.0123497
o    -1.3217873    2.3963458    0.6877867  0.00   -0.1517658    0.0272043   -0.0734405
o    -2.7218076    3.8049732   -0.5210178  0.00   -0.0445887   -0.0722734   -0.0399560
h    -2.7109524    4.5421215    0.2029383  0.00   -0.0130807    0.0143179    0.0402640
    13
 Energy =       0.0630661635
c    -3.6747660    1.7077438    0.3011381  0.00   -0.0500378    0.0307519    0.0025099
c    -2.4869209    2.6553359    0.1485254  0.00    0.1620939   -0.0147846    0.0538611
c    -4.9666062    2.3808737   -0.1476406  0.00    0.0187996    0.0168582    0.0042068
h    -4.8768943    2.6875334   -1.2078326  0.00    0.0016472    0.0012634    0.0070662
h    -5.1690058    3.2854789    0.4537390  0.00    0.0016855   -0.0040724   -0.0044024
h    -5.8249555    1.6888816   -0.0548761  0.00    0.0006369    0.0050662   -0.0008428
n    -3.4745335    0.4604718   -0.4755259  0.00    0.0323881   -0.0229860   -0.0053775
h    -3.7416307    1.4651916    1.3809086  0.00    0.0030299   -0.0039030   -0.0088463
h    -2.6591815    0.5701517   -1.1124409  0.00   -0.0082122    0.0059306    0.0171213
h    -3.2135838   -0.3099375    0.1711900  0.00   -0.0041031    0.0099143   -0.0089809
o    -1.3064086    2.3913731    0.6593025  0.00   -0.1140655    0.0202236   -0.0560727
o    -2.7187805    3.8177580   -0.5467549  0.00   -0.0361001   -0.0704582   -0.0452601
h    -2.5521993    4.5832503    0.1356984  0.00   -0.0077623    0.0261959    0.0450176
    13
 Energy =       0.0559420459
c    -3.6791651    1.7198224    0.3090231  0.00   -0.0350905    0.0221261    0.0017048
c    -2.4918347    2.6606503    0.1193978  0.00    0.1114154   -0.0094802    0.0387466
c    -4.9820864    2.3833731   -0.1249367  0.00    0.0140011    0.0117182    0.0033618
h    -4.9202345    2.6518288   -1.2000276  0.00    0.0013801    0.0011500    0.0038630
h    -5.1624870    3.3113331    0.4521851  0.00    0.0012795   -0.0021491   -0.0026208
h    -5.8390415    1.6946710    0.0183635  0.00   -0.0004792    0.0027628   -0.0003869
n    -3.5127661    0.4569015   -0.4461991  0.00    0.0212078   -0.0158798   -0.0040430
h    -3.7259538    1.5040866    1.3983214  0.00    0.0020924   -0.0026201   -0.0055416
h    -2.6897279    0.5240417   -1.0849540  0.00   -0.0045552    0.0040006    0.0111018
h    -3.2867811   -0.3153786    0.2163265  0.00   -0.0026737    0.0058579   -0.0056460
o    -1.2812878    2.3696422    0.6054571  0.00   -0.0781251    0.0135277   -0.0397833
o    -2.7006546    3.8240608   -0.5896962  0.00   -0.0287527   -0.0630462   -0.0439702
h    -2.3934462    4.5990731    0.0321703  0.00   -0.0016998    0.0320321    0.0432137
    13
 Energy =       0.0520432033
c    -3.6905642    1.7484810    0.3283537  0.00   -0.0267787    0.0192543    0.0018732
c    -2.4852007    2.6534187    0.0695286  0.00    0.0768859   -0.0040277    0.0280927
c    -4.9888103    2.4029234   -0.1366038  0.00    0.0115123    0.0070736    0.0035784
h    -4.9370277    2.5869294   -1.2339249  0.00    0.0014020    0.0014711   -0.0008395
h    -5.1438760    3.3795101    0.3724085  0.00    0.0005307    0.0017762   -0.0002539
h    -5.8548974    1.7387202    0.0734614  0.00   -0.0019549    0.0001542    0.0004592
n    -3.5646025    0.4318401   -0.3424637  0.00    0.0112482   -0.0139253   -0.0058759
h    -3.7326500    1.6109976    1.4345080  0.00    0.0010928   -0.0019593   -0.0007660
h    -2.7349097    0.4214268   -0.9832796  0.00    0.0004283    0.0019441    0.0045669
h    -3.3732723   -0.3053532    0.3750797  0.00   -0.0012737    0.0007141   -0.0010724
o    -1.2511336    2.3206354    0.5144561  0.00   -0.0523582    0.0090158   -0.0285423
o    -2.6664834    3.8125730   -0.6600274  0.00   -0.0238053   -0.0550763   -0.0400810
h    -2.2420387    4.5820036   -0.1060654  0.00    0.0030706    0.0335852    0.0388606
    13
 Energy =       0.0503412782
c    -3.6801123    1.7437823    0.3251873  0.00   -0.0185569    0.0185381    0.0031977
c    -2.4619412    2.6191027    0.0243474  0.00    0.0602969   -0.0026278    0.0226932
c    -4.9903677    2.4577817   -0.0250738  0.00    0.0048476    0.0052726    0.0029497
h    -5.0090382    2.6794404   -1.1192153  0.00    0.0005932    0.0013933   -0.0038372
h    -5.0787167    3.4199655    0.5311616  0.00   -0.0002053    0.0041086    0.0017804
h    -5.8623901    1.8125936    0.2192798  0.00   -0.0026538    0.0001234    0.0003121
n    -3.6456859    0.4505360   -0.4047806  0.00    0.0081281   -0.0134740   -0.0104060
h    -3.6515757    1.5655523    1.4293549  0.00    0.0013427   -0.0007786    0.0029810
h    -2.8260020    0.4140501   -1.0585442  0.00    0.0010617    0.0010635    0.0032266
h    -3.4960669   -0.3329538    0.2765362  0.00   -0.0000286   -0.0033456    0.0011216
o    -1.2149180    2.2440772    0.4240996  0.00   -0.0390575    0.0065738   -0.0226141
o    -2.6265687    3.7790884   -0.7104998  0.00   -0.0210352   -0.0489727   -0.0362522
h    -2.1220834    4.5310898   -0.2064220  0.00    0.0052671    0.0321256    0.0348474
    13
 Energy =       0.0511160560
c    -3.6757771    1.7554364    0.3394463  0.00   -0.0184865    0.0193339    0.0054957
c    -2.4356998    2.5751561   -0.0346776  0.00    0.0602054   -0.0044616    0.0239467
c    -4.9735642    2.5182218    0.0418227  0.00    0.0035086    0.0045219    0.0026482
h    -5.0331949    2.7285012   -1.0539580  0.00    0.0005075    0.0012037   -0.0047078
h    -4.9993289    3.4892719    0.5922377  0.00   -0.0002950    0.0055934    0.0028878
h    -5.8597646    1.9093057    0.3315144  0.00   -0.0041987   -0.0005504    0.0006047
n    -3.7288583    0.4501602   -0.3724415  0.00    0.0052512   -0.0164014   -0.0109231
h    -3.6010768    1.5928184    1.4450069  0.00    0.0012793   -0.0000972    0.0042546
h    -2.9308243    0.3613798   -1.0503856  0.00    0.0032925    0.0003131    0.0010422
h    -3.6000217   -0.3313759    0.3155881  0.00    0.0001015   -0.0039059    0.0010624
o    -1.1916295    2.1769651    0.3546845  0.00   -0.0373921    0.0068172   -0.0222517
o    -2.5733863    3.6956496   -0.8382316  0.00   -0.0193654   -0.0445295   -0.0384364
h    -2.0623402    4.4626159   -0.3651752  0.00    0.0055917    0.0321627    0.0343767
    13
 Energy =       0.0496352309
c    -3.6875170    1.7482393    0.3227264  0.00   -0.0161926    0.0164642    0.0057349
c    -2.4454874    2.5912167    0.0068035  0.00    0.0532081   -0.0071565    0.0245094
c    -4.9864064    2.4968955   -0.0035153  0.00    0.0026646    0.0035855    0.0025655
h    -5.0160757    2.7218618   -1.0974190  0.00    0.0004571    0.0010777   -0.0047289
h    -5.0405569    3.4600730    0.5583355  0.00   -0.0002378    0.0053270    0.0028568
h    -5.8724702    1.8727223    0.2527649  0.00   -0.0042849   -0.0007635    0.0006668
n    -3.7030177    0.4561772   -0.4136310  0.00    0.0030027   -0.0151560   -0.0100876
h    -3.6467485    1.5669030    1.4272190  0.00    0.0011288    0.0000171    0.0044955
h    -2.8743449    0.3821674   -1.0574092  0.00    0.0043703    0.0002147   -0.0002944
h    -3.6014087   -0.3361165    0.2669158  0.00    0.0000743   -0.0038678    0.0016307
o    -1.1981924    2.1417481    0.3451032  0.00   -0.0308079    0.0031371   -0.0183816
o    -2.5808598    3.7840480   -0.6960408  0.00   -0.0210590   -0.0346746   -0.0423720
h    -2.0123813    4.4981704   -0.2064220  0.00    0.0076763    0.0317949    0.0334049
    13
 Energy =       0.0488178685
c    -3.6616858    1.7436283    0.3279149  0.00   -0.0147733    0.0140194    0.0059389
c    -2.4727117    2.6483292   -0.0293674  0.00    0.0486234   -0.0073717    0.0238990
c    -5.0078556    2.4241066    0.0351753  0.00    0.0013192    0.0047299    0.0019277
h    -5.0788399    2.6448275   -1.0580965  0.00    0.0001999    0.0014384   -0.0052217
h    -5.0950146    3.3860066    0.5954382  0.00   -0.0003654    0.0055798    0.0027588
h    -5.8550872    1.7561021    0.3175851  0.00   -0.0055359   -0.0018687    0.0011273
n    -3.6358758    0.4466459   -0.3990978  0.00   -0.0025549   -0.0109376   -0.0106191
h    -3.5807364    1.5710842    1.4320868  0.00    0.0012303   -0.0005141    0.0050147
h    -2.8405826    0.4228304   -1.0912188  0.00    0.0078440    0.0006235   -0.0033208
h    -3.4426556   -0.3345753    0.2804639  0.00    0.0012371   -0.0088642    0.0057832
o    -1.1866031    2.2536933    0.2443916  0.00   -0.0236922    0.0013344   -0.0160552
o    -2.6944827    3.8487803   -0.7033081  0.00   -0.0214827   -0.0282840   -0.0433275
h    -2.1133358    4.5726470   -0.2465361  0.00    0.0079505    0.0301148    0.0320947
    13
 Energy =       0.0500349013
c    -3.6630402    1.7471616    0.3331438  0.00   -0.0151637    0.0145316    0.0062681
c    -2.4644695    2.6277579   -0.0561592  0.00    0.0386769   -0.0045086    0.0233976
c    -5.0040409    2.4432727    0.0520894  0.00    0.0012337    0.0046564    0.0018782
h    -5.0841276    2.6619231   -1.0408212  0.00    0.0002026    0.0014137   -0.0052189
h    -5.0740099    3.4077247    0.6105393  0.00   -0.0003624    0.0056477    0.0028111
h    -5.8562542    1.7861808    0.3454810  0.00   -0.0055929   -0.0019127    0.0011383
n    -3.6689639    0.4400462   -0.3765410  0.00   -0.0073167   -0.0093132   -0.0105529
h    -3.5686808    1.5873318    1.4380773  0.00    0.0012128   -0.0004566    0.0051392
h    -2.9269181    0.4221206   -1.1298925  0.00    0.0114025    0.0008166   -0.0071734
h    -3.4065665   -0.3270855    0.2994765  0.00    0.0020755   -0.0112234    0.0088671
o    -1.1717669    2.1602479    0.0856385  0.00   -0.0105121   -0.0043660   -0.0139608
o    -2.6884791    3.8645257   -0.6636096  0.00   -0.0243987   -0.0257150   -0.0449060
h    -2.0881492    4.5628987   -0.1919913  0.00    0.0085425    0.0304294    0.0323122
    13
 Energy =       0.0485466700
c    -3.6969932    1.7421915    0.3360731  0.00   -0.0151286    0.0130284    0.0055783
c    -2.4559545    2.5972092    0.0213620  0.00    0.0367832   -0.0038467    0.0231761
c    -5.0071441    2.4689680   -0.0160132  0.00   -0.0001493    0.0053694    0.0022758
h    -5.0271514    2.6901685   -1.1125474  0.00    0.0000531    0.0017957   -0.0068635
h    -5.0844064    3.4344325    0.5396738  0.00   -0.0004629    0.0055859    0.0028535
h    -5.8883775    1.8305231    0.2350132  0.00   -0.0067559   -0.0025399    0.0014919
n    -3.6905217    0.4398301   -0.3805190  0.00   -0.0128440   -0.0057010   -0.0103720
h    -3.6710032    1.5724639    1.4452516  0.00    0.0011807   -0.0007099    0.0074150
h    -2.9978468    0.4632200   -1.1829445  0.00    0.0144832    0.0009394   -0.0112444
h    -3.3451054   -0.3173932    0.2745062  0.00    0.0040402   -0.0153333    0.0123373
o    -1.1824410    2.1021807    0.2443916  0.00   -0.0056966   -0.0055948   -0.0131209
o    -2.6176415    3.8422313   -0.5910658  0.00   -0.0244005   -0.0234438   -0.0455565
h    -2.0008799    4.5180807   -0.1077505  0.00    0.0088973    0.0304506    0.0320295
    13
 Energy =       0.0455867782
c    -3.7173255    1.7362914    0.3321161  0.00   -0.0141541    0.0118095    0.0046725
c    -2.4659219    2.5971794    0.0833249  0.00    0.0286881   -0.0021438    0.0193410
c    -5.0141546    2.4627617   -0.0655278  0.00   -0.0006849    0.0046769    0.0021433
h    -4.9962364    2.6878333   -1.1610622  0.00    0.0000088    0.0016731   -0.0068051
h    -5.1117977    3.4256056    0.4907598  0.00   -0.0004308    0.0051036    0.0027304
h    -5.9025302    1.8228063    0.1534052  0.00   -0.0064896   -0.0024528    0.0014332
n    -3.6776894    0.4437832   -0.3979623  0.00   -0.0127666   -0.0048944   -0.0095765
h    -3.7388178    1.5530073    1.4395735  0.00    0.0010038   -0.0005419    0.0078147
h    -2.9992332    0.4998822   -1.2098786  0.00    0.0135898    0.0008271   -0.0108227
h    -3.2970104   -0.3068465    0.2441222  0.00    0.0040089   -0.0146209    0.0114803
o    -1.2026262    2.1195539    0.4031447  0.00    0.0007290   -0.0062103   -0.0103489
o    -2.5988819    3.8436312   -0.5315703  0.00   -0.0228471   -0.0216075   -0.0412529
h    -1.9432416    4.4986173   -0.0750142  0.00    0.0093448    0.0283813    0.0291908
    13
 Energy =       0.0423172066
c    -3.7389725    1.7305377    0.3286640  0.00   -0.0120908    0.0098243    0.0033779
c    -2.4808953    2.5971374    0.1501271  0.00    0.0199201   -0.0007879    0.0141875
c    -5.0198684    2.4550734   -0.1180270  0.00   -0.0011600    0.0036611    0.0018444
h    -4.9604563    2.6857649   -1.2102621  0.00   -0.0000151    0.0014349   -0.0063641
h    -5.1417754    3.4139034    0.4390952  0.00   -0.0003687    0.0043328    0.0024737
h    -5.9134795    1.8118551    0.0641016  0.00   -0.0058759   -0.0022386    0.0012819
n    -3.6621604    0.4488080   -0.4124513  0.00   -0.0127576   -0.0031838   -0.0082079
h    -3.8113087    1.5331945    1.4314055  0.00    0.0006888   -0.0003202    0.0077393
h    -3.0103250    0.5430599   -1.2411395  0.00    0.0122423    0.0008372   -0.0102373
h    -3.2307890   -0.2875428    0.2129549  0.00    0.0041780   -0.0137621    0.0104892
o    -1.2360620    2.1327941    0.5618979  0.00    0.0058377   -0.0059496   -0.0068171
o    -2.5824684    3.8477917   -0.4599297  0.00   -0.0207718   -0.0191288   -0.0348088
h    -1.8769057    4.4717287   -0.0410054  0.00    0.0101730    0.0252806    0.0250415
    13
 Energy =       0.0390231904
c    -3.7622212    1.7252230    0.3267875  0.00   -0.0089661    0.0072305    0.0018042
c    -2.5011242    2.5960752    0.2227800  0.00    0.0115161    0.0001382    0.0084330
c    -5.0231699    2.4475179   -0.1728894  0.00   -0.0013973    0.0024265    0.0014152
h    -4.9168307    2.6878630   -1.2584506  0.00    0.0000046    0.0010975   -0.0055797
h    -5.1740772    3.3998470    0.3864785  0.00   -0.0002722    0.0033265    0.0021004
h    -5.9200341    1.7991492   -0.0352573  0.00   -0.0049972   -0.0019524    0.0010389
n    -3.6443237    0.4552505   -0.4225691  0.00   -0.0130733   -0.0006265   -0.0062605
h    -3.8889753    1.5128582    1.4210582  0.00    0.0002549   -0.0000967    0.0070469
h    -3.0338890    0.5921504   -1.2750426  0.00    0.0105158    0.0011446   -0.0096522
h    -3.1461946   -0.2560268    0.1812553  0.00    0.0048273   -0.0128866    0.0095943
o    -1.2830612    2.1387934    0.7206510  0.00    0.0087718   -0.0049745   -0.0030757
o    -2.5675036    3.8518078   -0.3789279  0.00   -0.0185004   -0.0159895   -0.0265154
h    -1.8040622    4.4335974   -0.0104424  0.00    0.0113160    0.0211624    0.0196504
    13
 Energy =       0.0362181512
c    -3.7857115    1.7206064    0.3276818  0.00   -0.0053467    0.0045000    0.0002975
c    -2.5251519    2.5927371    0.2979053  0.00    0.0043251    0.0006883    0.0030668
c    -5.0227976    2.4435761   -0.2228709  0.00   -0.0010204    0.0012139    0.0009842
h    -4.8661372    2.7019007   -1.2968856  0.00    0.0000929    0.0007203   -0.0044698
h    -5.2058420    3.3849326    0.3433351  0.00   -0.0001267    0.0022218    0.0016237
h    -5.9202710    1.7884898   -0.1384675  0.00   -0.0039468   -0.0016834    0.0007150
n    -3.6268524    0.4639073   -0.4290665  0.00   -0.0127227    0.0017700   -0.0037865
h    -3.9659065    1.4908245    1.4093400  0.00   -0.0001504    0.0000257    0.0054832
h    -3.0702153    0.6431882   -1.3082220  0.00    0.0081152    0.0016270   -0.0085912
h    -3.0543786   -0.2122409    0.1473348  0.00    0.0055059   -0.0111508    0.0083223
o    -1.3422842    2.1386938    0.8794041  0.00    0.0093298   -0.0039264    0.0002658
o    -2.5504812    3.8480295   -0.3051896  0.00   -0.0156806   -0.0119440   -0.0170380
h    -1.7294372    4.3794612    0.0011321  0.00    0.0116253    0.0159374    0.0131269
    13
 Energy =       0.0344608667
c    -3.8047106    1.7167317    0.3337440  0.00   -0.0026245    0.0024960   -0.0005641
c    -2.5449560    2.5837274    0.3607934  0.00   -0.0014928   -0.0004383    0.0000034
c    -5.0205146    2.4519076   -0.2418130  0.00    0.0000066    0.0003522    0.0006938
h    -4.8256694    2.7413450   -1.3001219  0.00    0.0001669    0.0004494   -0.0029552
h    -5.2267986    3.3757580    0.3428708  0.00    0.0000583    0.0013050    0.0010181
h    -5.9166970    1.7923745   -0.2092968  0.00   -0.0025556   -0.0013698    0.0003892
n    -3.6215802    0.4769034   -0.4390705  0.00   -0.0101459    0.0024905   -0.0010364
h    -4.0204250    1.4633349    1.4013085  0.00   -0.0002165   -0.0000230    0.0030761
h    -3.1240264    0.6926863   -1.3428309  0.00    0.0053178    0.0016338   -0.0067347
h    -2.9840783   -0.1673428    0.1006657  0.00    0.0048003   -0.0076675    0.0059912
o    -1.4081003    2.1422499    1.0381572  0.00    0.0092786   -0.0045600    0.0034791
o    -2.5155370    3.8144580   -0.2922477  0.00   -0.0112096   -0.0048606   -0.0097660
h    -1.6523731    4.2999723   -0.0467277  0.00    0.0086165    0.0101921    0.0064054
    13
 Energy =       0.0335423568
c    -3.8129723    1.7068239    0.3421374  0.00   -0.0004618    0.0022479    0.0001555
c    -2.5527834    2.5650920    0.4026064  0.00   -0.0059834   -0.0058123    0.0023368
c    -5.0265347    2.4773007   -0.1889953  0.00   -0.0003010   -0.0007253    0.0002947
h    -4.8304849    2.8315071   -1.2270553  0.00    0.0002120    0.0007150   -0.0023890
h    -5.2345524    3.3642744    0.4504898  0.00   -0.0001594    0.0019205    0.0011619
h    -5.9200775    1.8160363   -0.1995155  0.00   -0.0007535   -0.0009293    0.0001278
n    -3.6362709    0.5064528   -0.4913528  0.00   -0.0086413    0.0009316    0.0011412
h    -4.0241028    1.3984616    1.3950968  0.00   -0.0001141   -0.0002891    0.0018832
h    -3.2165395    0.7777446   -1.4193004  0.00    0.0039593    0.0014671   -0.0074390
h    -2.9347602   -0.1266068   -0.0248054  0.00    0.0050094   -0.0055812    0.0044104
o    -1.4772796    2.1622070    1.1969103  0.00    0.0090912   -0.0069454    0.0073302
o    -2.4461587    3.7312442   -0.3625607  0.00   -0.0056306    0.0081678   -0.0099108
h    -1.5529496    4.1735686   -0.1682242  0.00    0.0037733    0.0048327    0.0008970
    13
 Energy =       0.0330248307
c    -3.8063620    1.6906235    0.3374298  0.00    0.0009255    0.0025188    0.0013513
c    -2.5488462    2.5494088    0.4099147  0.00   -0.0017080   -0.0011940    0.0007823
c    -5.0363509    2.4907444   -0.1096741  0.00   -0.0017680   -0.0006108    0.0000809
h    -4.8693511    2.9127072   -1.1278303  0.00    0.0001471    0.0010091   -0.0026473
h    -5.2318771    3.3326678    0.5924954  0.00   -0.0006701    0.0023316    0.0015962
h    -5.9273114    1.8280696   -0.1406348  0.00   -0.0000747   -0.0002973    0.0000722
n    -3.6497807    0.5436409   -0.5736860  0.00   -0.0044654   -0.0017993   -0.0005906
h    -3.9859911    1.3166994    1.3758291  0.00   -0.0002522   -0.0006513    0.0026367
h    -3.2868546    0.8776988   -1.5033434  0.00    0.0022862    0.0008556   -0.0052171
h    -2.9128499   -0.0977841   -0.1835585  0.00    0.0036049   -0.0037204    0.0024485
o    -1.5109246    2.1864507    1.2623266  0.00    0.0027444   -0.0023107    0.0019236
o    -2.4001569    3.6654891   -0.4098085  0.00   -0.0009764    0.0033690   -0.0024568
h    -1.4988103    4.0876899   -0.2240290  0.00    0.0002065    0.0004996    0.0000200
    13
 Energy =       0.0328019941
c    -3.8055175    1.6863089    0.3393177  0.00    0.0006621    0.0013938    0.0007007
c    -2.5481495    2.5440033    0.4127469  0.00   -0.0053885   -0.0034011    0.0013002
c    -5.0389500    2.4994064   -0.0690392  0.00   -0.0011819   -0.0003389    0.0000427
h    -4.8847298    2.9476571   -1.0769003  0.00    0.0000622    0.0005621   -0.0015141
h    -5.2242744    3.3207359    0.6580061  0.00   -0.0003797    0.0013649    0.0009181
h    -5.9313947    1.8391463   -0.1066800  0.00   -0.0000356   -0.0001571    0.0000218
n    -3.6637089    0.5648165   -0.6033410  0.00   -0.0025125   -0.0011233   -0.0004351
h    -3.9710994    1.2855809    1.3690649  0.00   -0.0001457   -0.0003520    0.0015480
h    -3.3240479    0.9262899   -1.5302035  0.00    0.0012638    0.0005452   -0.0030340
h    -2.9154643   -0.0811294   -0.2477958  0.00    0.0021450   -0.0021782    0.0014539
o    -1.5624622    2.2511538    1.3564162  0.00    0.0068889   -0.0054340    0.0083575
o    -2.3450176    3.5844535   -0.4973405  0.00   -0.0017896    0.0089367   -0.0096648
h    -1.4506505    4.0156831   -0.2988204  0.00    0.0004115    0.0001818    0.0003049
    13
 Energy =       0.0325421360
c    -3.7948107    1.6685163    0.3289561  0.00    0.0016160    0.0022128    0.0022332
c    -2.5357120    2.5228995    0.4012222  0.00   -0.0009224    0.0001548    0.0000937
c    -5.0412032    2.5075041    0.0182004  0.00   -0.0023285   -0.0004894   -0.0001951
h    -4.9232730    3.0191362   -0.9655016  0.00   -0.0000602    0.0012769   -0.0026048
h    -5.1995438    3.2806122    0.8041455  0.00   -0.0007099    0.0022342    0.0020357
h    -5.9357097    1.8506590   -0.0291720  0.00   -0.0000547   -0.0001143   -0.0000203
n    -3.6922086    0.6054518   -0.6862383  0.00   -0.0034459   -0.0023314   -0.0015246
h    -3.9206740    1.2059540    1.3395498  0.00   -0.0001165   -0.0008355    0.0027424
h    -3.3981667    1.0256433   -1.6049140  0.00    0.0012877    0.0011883   -0.0042392
h    -2.9245109   -0.0562132   -0.4065490  0.00    0.0035607   -0.0034302    0.0014358
o    -1.5797374    2.2723294    1.3792154  0.00    0.0015108   -0.0012852    0.0012760
o    -2.3056199    3.5231158   -0.5377616  0.00   -0.0003921    0.0014262   -0.0012746
h    -1.4142968    3.9584977   -0.3357219  0.00    0.0000551   -0.0000073    0.0000416
    13
 Energy =       0.0324271947
c    -3.7949909    1.6681613    0.3302698  0.00    0.0007630    0.0008321    0.0009645
c    -2.5363581    2.5228983    0.3998319  0.00   -0.0039374   -0.0011198   -0.0008755
c    -5.0405241    2.5105632    0.0364224  0.00   -0.0010097   -0.0001889   -0.0000770
h    -4.9272256    3.0319115   -0.9410673  0.00   -0.0000088    0.0005300   -0.0011174
h    -5.1932194    3.2735718    0.8310304  0.00   -0.0003081    0.0009685    0.0008570
h    -5.9362296    1.8554925   -0.0130594  0.00   -0.0000192   -0.0000527   -0.0000121
n    -3.7016230    0.6162791   -0.6946835  0.00   -0.0014359   -0.0010082   -0.0006879
h    -3.9145678    1.1962217    1.3357299  0.00   -0.0000964   -0.0003428    0.0011780
h    -3.4154214    1.0461768   -1.6098085  0.00    0.0005616    0.0005317   -0.0018008
h    -2.9321286   -0.0463684   -0.4294698  0.00    0.0015226   -0.0014750    0.0006663
o    -1.6294761    2.3456971    1.4435365  0.00    0.0046053   -0.0029840    0.0069072
o    -2.2628016    3.4569075   -0.5980166  0.00   -0.0010245    0.0042823   -0.0063219
h    -1.3809005    3.9065938   -0.3852846  0.00    0.0003875    0.0000269    0.0003194
    13
 Energy =       0.0323129030
c    -3.7866977    1.6546118    0.3190872  0.00    0.0011619    0.0010738    0.0016447
c    -2.5224288    2.5011381    0.3831535  0.00    0.0006174    0.0006525   -0.0000261
c    -5.0360501    2.5177206    0.1126819  0.00   -0.0014278   -0.0001319   -0.0002907
h    -4.9537483    3.0875030   -0.8408005  0.00   -0.0001257    0.0007012   -0.0012617
h    -5.1560092    3.2392464    0.9510677  0.00   -0.0003316    0.0011377    0.0012680
h    -5.9374795    1.8706037    0.0613707  0.00   -0.0000887   -0.0000062   -0.0000634
n    -3.7381414    0.6540889   -0.7598979  0.00   -0.0017944   -0.0011842   -0.0014148
h    -3.8721784    1.1338375    1.3040189  0.00    0.0000538   -0.0004889    0.0014359
h    -3.4860152    1.1285087   -1.6631190  0.00    0.0004356    0.0006025   -0.0018556
h    -2.9610701   -0.0225039   -0.5592060  0.00    0.0019323   -0.0018387    0.0005190
o    -1.6471066    2.3696806    1.4530565  0.00   -0.0004067    0.0000635   -0.0010600
o    -2.2231774    3.3969566   -0.6357084  0.00    0.0000534   -0.0005694    0.0011875
h    -1.3453642    3.8527139   -0.4202735  0.00   -0.0000794   -0.0000120   -0.0000827
    13
 Energy =       0.0322937788
c    -3.7897374    1.6587515    0.3231303  0.00    0.0010986    0.0009715    0.0015308
c    -2.5263557    2.5064815    0.3869106  0.00   -0.0012104   -0.0001035   -0.0008081
c    -5.0371343    2.5207886    0.1029380  0.00   -0.0013340   -0.0001078   -0.0002551
h    -4.9491756    3.0827924   -0.8545516  0.00   -0.0001059    0.0006576   -0.0011789
h    -5.1615262    3.2485717    0.9351409  0.00   -0.0003063    0.0010503    0.0011756
h    -5.9385900    1.8736833    0.0516845  0.00   -0.0000796   -0.0000057   -0.0000568
n    -3.7358914    0.6496766   -0.7475030  0.00   -0.0016525   -0.0011266   -0.0013176
h    -3.8806955    1.1458186    1.3115997  0.00    0.0000343   -0.0004656    0.0013383
h    -3.4792103    1.1170636   -1.6530862  0.00    0.0004088    0.0005804   -0.0017178
h    -2.9596481   -0.0249460   -0.5381002  0.00    0.0017819   -0.0016971    0.0004789
o    -1.6903357    2.4329275    1.4961594  0.00    0.0015242   -0.0008113    0.0027312
o    -2.1934399    3.3523823   -0.6660037  0.00   -0.0003085    0.0010273   -0.0020369
h    -1.3237266    3.8201148   -0.4428875  0.00    0.0001494    0.0000304    0.0001164
    13
 Energy =       0.0322696951
c    -3.7890338    1.6571527    0.3206353  0.00   -0.0001760   -0.0001474   -0.0002255
c    -2.5247455    2.5035209    0.3838475  0.00   -0.0001625   -0.0000441   -0.0000918
c    -5.0350961    2.5209310    0.1163719  0.00    0.0002173    0.0000197    0.0000301
h    -4.9522863    3.0902695   -0.8355573  0.00    0.0000283   -0.0001180    0.0001800
h    -5.1524080    3.2407309    0.9542681  0.00    0.0000384   -0.0001561   -0.0001967
h    -5.9377678    1.8754973    0.0660488  0.00    0.0000125    0.0000002    0.0000077
n    -3.7440914    0.6584364   -0.7572599  0.00    0.0002705    0.0001653    0.0002056
h    -3.8746693    1.1359814    1.3036183  0.00   -0.0000209    0.0000816   -0.0002052
h    -3.4930369    1.1332587   -1.6591775  0.00   -0.0000501   -0.0000977    0.0002667
h    -2.9676829   -0.0169348   -0.5598457  0.00   -0.0002800    0.0002664   -0.0000429
o    -1.7086297    2.4585160    1.5073271  0.00    0.0001543   -0.0000879    0.0002149
o    -2.1759640    3.3267797   -0.6804435  0.00   -0.0000469    0.0001176   -0.0001541
h    -1.3100550    3.7999662   -0.4544020  0.00    0.0000153    0.0000006    0.0000113
    13
 Energy =       0.0322679361
c    -3.7900674    1.6591825    0.3227431  0.00   -0.0000249   -0.0000167   -0.0000311
c    -2.5267227    2.5069967    0.3853232  0.00   -0.0003451   -0.0001368   -0.0001827
c    -5.0361329    2.5215255    0.1109697  0.00    0.0000304    0.0000044    0.0000043
h    -4.9512020    3.0863287   -0.8436595  0.00    0.0000065   -0.0000163    0.0000223
h    -5.1561550    3.2452678    0.9453728  0.00    0.0000048   -0.0000199   -0.0000277
h    -5.9383127    1.8753345    0.0613361  0.00    0.0000023   -0.0000009    0.0000009
n    -3.7416466    0.6551860   -0.7504698  0.00    0.0000400    0.0000114    0.0000237
h    -3.8779004    1.1425737    1.3081329  0.00   -0.0000062    0.0000097   -0.0000267
h    -3.4889662    1.1259703   -1.6542297  0.00   -0.0000052   -0.0000114    0.0000375
h    -2.9648114   -0.0185217   -0.5481991  0.00   -0.0000411    0.0000393   -0.0000024
o    -1.7278444    2.4885851    1.5222435  0.00    0.0003640   -0.0001425    0.0007317
o    -2.1638572    3.3082504   -0.6912666  0.00   -0.0000733    0.0002689   -0.0005908
h    -1.3018478    3.7874268   -0.4628655  0.00    0.0000479    0.0000108    0.0000410
    13
 Energy =       0.0322674213
c    -3.7899743    1.6590608    0.3225982  0.00    0.0000023    0.0000022    0.0000030
c    -2.5270102    2.5074182    0.3855214  0.00    0.0000091    0.0000079    0.0000006
c    -5.0363983    2.5211733    0.1117843  0.00   -0.0000031   -0.0000001   -0.0000009
h    -4.9519585    3.0866883   -0.8424934  0.00   -0.0000002    0.0000015   -0.0000033
h    -5.1564577    3.2442416    0.9468216  0.00   -0.0000009    0.0000026    0.0000022
h    -5.9383684    1.8747022    0.0619346  0.00   -0.0000003    0.0000000   -0.0000006
n    -3.7414830    0.6558447   -0.7514123  0.00   -0.0000041   -0.0000019   -0.0000018
h    -3.8773282    1.1416630    1.3076478  0.00   -0.0000002   -0.0000009    0.0000034
h    -3.4893961    1.1274239   -1.6549567  0.00    0.0000013    0.0000012   -0.0000039