    24
 Energy =      49.3465272275
c    -0.3750178    1.6472058    0.7948734  0.00   -0.0669193   -0.0234379    0.0550887
c     0.0303172    2.8109335    0.1570437  0.00   -0.0624349    0.0799845    0.0458522
c     1.0081136    2.7718125   -0.8262434  0.00    0.0128065    0.1003468   -0.0310087
c     0.2069418    0.4293490    0.4310970  0.00   -2.9858106  -63.7840123  -15.9565215
c     1.2047783    0.3610782   -0.5608861  0.00   -1.0839689   -1.4407517    0.6932321
c     1.5988173    1.5541349   -1.1780186  0.00    0.0440797   -0.0160828   -0.0407025
o    -0.5069839    4.0230167    0.4710260  0.00    0.0253300   -0.0475704   -0.0831543
h    -0.9503011    4.3787342   -0.3165291  0.00    0.0248915   -0.0206031    0.0489803
h     2.3707231    1.5818724   -1.9364796  0.00    0.0012427    0.0166961   -0.0000007
h    -0.1206493   -0.4779662    0.9373943  0.00  134.8414715 -211.6175277 -437.1567887
h    -1.1350442    1.6632136    1.5694669  0.00    0.0029148   -0.0107182    0.0019025
h     1.3163936    3.6907012   -1.3176857  0.00   -0.0011534    0.0049096   -0.0015738
c     1.7669373   -1.0073413   -0.8964724  0.00   -0.6213682   -0.0093526    0.3752392
c     0.8861134   -2.0194266   -1.6556448  0.00    0.1155784    0.0870673    0.0928013
h     2.1212937   -1.4658931    0.0371405  0.00   -0.0256985    0.0133827   -0.0101340
h     2.6645729   -0.8285312   -1.5058794  0.00   -0.0008587    0.0059458   -0.0011777
c    -0.2550706   -2.4993401   -0.7313897  0.00   -0.2355394   -0.3241536    0.0186909
o    -0.8587891   -3.5562519   -0.8247086  0.00    0.1477731    0.2709286    0.0273677
o    -0.5457168   -1.5582366    0.2075950  0.00    5.8840288   14.7418813    9.3992631
h     0.1526865   -0.8630946    0.1041719  0.00 -135.9502886  261.9731383  442.5521144
n     0.2410616   -1.4915667   -2.9017470  0.00   -0.0508401    0.0114271   -0.0115578
h     1.4642165   -2.9122299   -1.9206526  0.00   -0.0125369    0.0090363   -0.0125679
h     0.3515070   -0.4710381   -2.9076552  0.00    0.0143043   -0.0324604   -0.0243194
h     0.7838113   -1.8074963   -3.7086830  0.00   -0.0170038    0.0119262    0.0189746
    24
 Energy =       8.3687016185
c    -0.3750034    1.6472109    0.7948615  0.00   -0.0681253   -0.0469140    0.0621956
c     0.0303307    2.8109163    0.1570338  0.00   -0.0609199    0.0794778    0.0470243
c     1.0081108    2.7717909   -0.8262368  0.00    0.0121686    0.0989744   -0.0302788
c     0.2075858    0.4431069    0.4345388  0.00   -0.7833889  -26.3290637   -8.0648083
c     1.2050121    0.3613890   -0.5610356  0.00   -1.1463821   -1.6292231    0.6379236
c     1.5988078    1.5541384   -1.1780098  0.00    0.0432350   -0.0149209   -0.0378283
o    -0.5069894    4.0230269    0.4710440  0.00    0.0255948   -0.0476341   -0.0834101
h    -0.9503065    4.3787387   -0.3165396  0.00    0.0248060   -0.0205348    0.0490504
h     2.3707228    1.5818688   -1.9364796  0.00    0.0013718    0.0167258    0.0000634
h    -0.1497338   -0.4323216    1.0316864  0.00    6.8541738  -19.5387479  -32.4922614
h    -1.1350449    1.6632159    1.5694665  0.00    0.0024758   -0.0118206    0.0008182
h     1.3163938    3.6907002   -1.3176854  0.00   -0.0011425    0.0049529   -0.0015816
c     1.7670713   -1.0073393   -0.8965533  0.00   -1.0214909   -0.0048285    0.5757798
c     0.8860885   -2.0194454   -1.6556648  0.00    0.0894553    0.1268140    0.1532706
h     2.1212992   -1.4658959    0.0371427  0.00   -0.0323639    0.0146310   -0.0112439
h     2.6645731   -0.8285324   -1.5058791  0.00   -0.0008396    0.0059786   -0.0011419
c    -0.2550198   -2.4992702   -0.7313937  0.00   -0.2194144   -0.3119107    0.0117247
o    -0.8588210   -3.5563104   -0.8247145  0.00    0.1474136    0.2716826    0.0277219
o    -0.5469860   -1.5614163    0.2055676  0.00    2.5548242    7.0015156    4.5692373
h     0.1820102   -0.9196006    0.0087161  0.00   -6.3555010   40.3347844   34.6166969
n     0.2410726   -1.4915692   -2.9017445  0.00   -0.0508345    0.0115695   -0.0104910
h     1.4642192   -2.9122319   -1.9206499  0.00   -0.0124532    0.0089744   -0.0126258
h     0.3515040   -0.4710310   -2.9076500  0.00    0.0143175   -0.0323785   -0.0246639
h     0.7838149   -1.8074989   -3.7086871  0.00   -0.0169801    0.0118958    0.0188281
    24
 Energy =       7.4962801530
c    -0.3678931    1.7109803    0.7909167  0.00   -0.0595385   -0.0409103    0.0542698
c     0.0551866    2.8519907    0.1292802  0.00   -0.0532066    0.0693476    0.0410129
c     1.0244406    2.7807095   -0.8579835  0.00    0.0109326    0.0864162   -0.0266849
c     0.1832516    0.4895733    0.4545186  0.00   -0.6983922  -23.1916210   -7.0956782
c     1.2022903    0.3846757   -0.5772563  0.00   -1.0016712   -1.4271923    0.5541297
c     1.5997150    1.5598948   -1.2043366  0.00    0.0379131   -0.0131774   -0.0332149
o    -0.4626104    4.0849417    0.4261179  0.00    0.0223123   -0.0407123   -0.0724455
h    -0.9063541    4.4315818   -0.3707666  0.00    0.0216188   -0.0179250    0.0427625
h     2.3651427    1.5667640   -1.9694949  0.00    0.0013412    0.0145879   -0.0001169
h    -0.1723510   -0.3925928    1.0541007  0.00    6.0387466  -17.2108942  -28.6206008
h    -1.1235627    1.7618625    1.5684588  0.00    0.0017813   -0.0103420    0.0011590
h     1.3413694    3.6890808   -1.3626184  0.00   -0.0009217    0.0044790   -0.0014577
c     1.7563201   -1.0236274   -0.8974428  0.00   -0.8948509   -0.0075765    0.5042285
c     0.8674612   -2.0654321   -1.6177535  0.00    0.0779777    0.1096077    0.1357042
h     2.1145468   -1.4580443    0.0480155  0.00   -0.0285228    0.0128176   -0.0094406
h     2.6500431   -0.8656151   -1.5182526  0.00   -0.0006012    0.0053025   -0.0012494
c    -0.2862048   -2.4921782   -0.6957377  0.00   -0.1902911   -0.2721395    0.0105888
o    -0.9299261   -3.5556077   -0.7544699  0.00    0.1271332    0.2362142    0.0247386
o    -0.5712449   -1.5304461    0.2158866  0.00    2.2501412    6.1665294    4.0236645
h     0.1617670   -0.8855988    0.0213214  0.00   -5.6045180   35.5270493   30.4967912
n     0.2647681   -1.5829805   -2.9009725  0.00   -0.0474965    0.0108612   -0.0079460
h     1.4432243   -2.9782888   -1.8231716  0.00   -0.0100281    0.0061670   -0.0112418
h     0.3985336   -0.5617516   -2.9565092  0.00    0.0128005   -0.0255631   -0.0220965
h     0.8127991   -1.9662520   -3.6807165  0.00   -0.0126596    0.0086740    0.0131236
    24
 Energy =       7.0591734764
c    -0.3584717    1.7745514    0.7830256  0.00   -0.0552983   -0.0379248    0.0503797
c     0.0808973    2.8932306    0.0951238  0.00   -0.0493072    0.0643348    0.0379103
c     1.0403394    2.7916298   -0.8999594  0.00    0.0104928    0.0801848   -0.0250830
c     0.1643076    0.5386059    0.4696972  0.00   -0.6542627  -21.5744613   -6.5951997
c     1.2007800    0.4055478   -0.6041620  0.00   -0.9249571   -1.3200536    0.5091114
c     1.6014575    1.5654656   -1.2428901  0.00    0.0353398   -0.0124356   -0.0310553
o    -0.4126379    4.1442937    0.3759081  0.00    0.0205220   -0.0369693   -0.0669493
h    -0.8564280    4.4852028   -0.4261236  0.00    0.0200297   -0.0166388    0.0396462
h     2.3598725    1.5546636   -2.0147186  0.00    0.0013646    0.0134902   -0.0002443
h    -0.1874033   -0.3461978    1.0684988  0.00    5.6190567  -16.0119303  -26.6274566
h    -1.1067115    1.8576245    1.5651035  0.00    0.0012908   -0.0095937    0.0014905
h     1.3640564    3.6900987   -1.4176543  0.00   -0.0007850    0.0042831   -0.0014404
c     1.7436884   -1.0440339   -0.8962371  0.00   -0.8263501   -0.0095830    0.4659424
c     0.8496324   -2.1157809   -1.5708182  0.00    0.0724903    0.1004354    0.1269562
h     2.1054338   -1.4477966    0.0625920  0.00   -0.0264906    0.0118367   -0.0081869
h     2.6337606   -0.9100689   -1.5281774  0.00   -0.0003729    0.0050197   -0.0014599
c    -0.3122515   -2.4869573   -0.6488978  0.00   -0.1746318   -0.2523875    0.0096404
o    -1.0013532   -3.5386838   -0.6647894  0.00    0.1160043    0.2174157    0.0231605
o    -0.5841983   -1.4882043    0.2207050  0.00    2.0936758    5.7372479    3.7434404
h     0.1474743   -0.8430110    0.0300969  0.00   -5.2247693   33.0477538   28.3784902
n     0.2756384   -1.6880457   -2.8860853  0.00   -0.0462791    0.0103607   -0.0073573
h     1.4211191   -3.0440996   -1.7197148  0.00   -0.0086048    0.0041951   -0.0106019
h     0.4232654   -0.6693900   -2.9920496  0.00    0.0120967   -0.0213586   -0.0209773
h     0.8284446   -2.1250051   -3.6373396  0.00   -0.0102544    0.0067785    0.0098438
    24
 Energy =       6.8496355691
c    -0.3488709    1.8353131    0.7719262  0.00   -0.0531592   -0.0364144    0.0484415
c     0.1043408    2.9327797    0.0580962  0.00   -0.0472762    0.0617882    0.0362495
c     1.0525289    2.8035772   -0.9470169  0.00    0.0104157    0.0770106   -0.0244326
c     0.1484149    0.5873099    0.4796554  0.00   -0.6309751  -20.7397977   -6.3364435
c     1.1971689    0.4248965   -0.6386183  0.00   -0.8832507   -1.2614485    0.4842397
c     1.6005628    1.5715845   -1.2886230  0.00    0.0340810   -0.0121581   -0.0300857
o    -0.3629673    4.1994655    0.3255856  0.00    0.0194886   -0.0348033   -0.0640990
h    -0.8072534    4.5375919   -0.4786909  0.00    0.0192233   -0.0159949    0.0380751
h     2.3520059    1.5460679   -2.0667170  0.00    0.0014002    0.0129022   -0.0003395
h    -0.1985577   -0.2976801    1.0759372  0.00    5.4028846  -15.3933957  -25.5999332
h    -1.0875534    1.9475436    1.5595494  0.00    0.0009179   -0.0091959    0.0018055
h     1.3815583    3.6931520   -1.4766104  0.00   -0.0006953    0.0042096   -0.0014649
c     1.7299811   -1.0636802   -0.8930410  0.00   -0.7882988   -0.0109576    0.4450812
c     0.8352635   -2.1670810   -1.5178872  0.00    0.0699597    0.0952102    0.1229200
h     2.0953673   -1.4317597    0.0797293  0.00   -0.0253446    0.0112645   -0.0071365
h     2.6169546   -0.9547636   -1.5343894  0.00   -0.0001659    0.0049042   -0.0017192
c    -0.3339894   -2.4815684   -0.5977733  0.00   -0.1654147   -0.2424538    0.0087606
o    -1.0713663   -3.5097888   -0.5711278  0.00    0.1092971    0.2067565    0.0223221
o    -0.5908499   -1.4412430    0.2203115  0.00    2.0127666    5.5165621    3.6000486
h     0.1360805   -0.7971317    0.0344559  0.00   -5.0350097   31.7664133   27.2890318
n     0.2846846   -1.8022688   -2.8627541  0.00   -0.0464349    0.0100784   -0.0079289
h     1.4032259   -3.1065294   -1.6087927  0.00   -0.0075756    0.0024433   -0.0102886
h     0.4374932   -0.7883893   -3.0199583  0.00    0.0117828   -0.0182869   -0.0206651
h     0.8464893   -2.2837582   -3.5821127  0.00   -0.0086169    0.0053638    0.0075612
    24
 Energy =       6.1276966142
c    -0.3230716    1.8753547    0.7893356  0.00   -0.0455415   -0.0300745    0.0415325
c     0.1547964    2.9620535    0.0748411  0.00   -0.0399123    0.0529960    0.0303975
c     1.1303444    2.8122862   -0.8921490  0.00    0.0098882    0.0669430   -0.0232584
c     0.1636315    0.6119320    0.5207724  0.00   -0.5627347  -18.2364802   -5.5714563
c     1.2851058    0.4473330   -0.5125307  0.00   -0.7466885   -1.0620908    0.4191697
c     1.6815775    1.5788361   -1.1892725  0.00    0.0284482   -0.0119356   -0.0304035
o    -0.3435174    4.2368556    0.2773431  0.00    0.0181654   -0.0269215   -0.0530553
h    -0.7920726    4.5151979   -0.5551020  0.00    0.0161143   -0.0115933    0.0289509
h     2.4104450    1.5279913   -1.9892880  0.00    0.0006475    0.0111074   -0.0032575
h    -0.1796624   -0.2810470    1.1240708  0.00    4.7519557  -13.5308303  -22.5041021
h    -1.0905644    2.0102921    1.5458467  0.00    0.0005885   -0.0058735    0.0022302
h     1.4562567    3.6848281   -1.4533531  0.00   -0.0005894    0.0044772   -0.0033294
c     1.6992111   -1.0579165   -0.9780463  0.00   -0.6721923   -0.0228690    0.3685200
c     0.7547569   -2.1704037   -1.5426647  0.00    0.0579995    0.0819321    0.1059500
h     2.1474063   -1.4906614   -0.0631247  0.00   -0.0195976    0.0087183    0.0005690
h     2.5326581   -0.9495975   -1.6931425  0.00    0.0030256    0.0013794   -0.0036006
c    -0.3899886   -2.4512935   -0.6014989  0.00   -0.1414938   -0.2131645    0.0055556
o    -1.1499372   -3.4842158   -0.5227654  0.00    0.0923024    0.1796964    0.0233959
o    -0.5684483   -1.4318230    0.2513978  0.00    1.7678712    4.8519151    3.1626191
h     0.1562583   -0.7869101    0.0722579  0.00   -4.4771065   27.9034497   24.0250250
n     0.2153108   -1.8686305   -2.9006465  0.00   -0.0414228    0.0074639   -0.0064538
h     1.3113660   -3.1239292   -1.5829398  0.00   -0.0059780   -0.0004309   -0.0056706
h     0.3436220   -0.8526060   -3.0718525  0.00    0.0114569   -0.0173662   -0.0166378
h     0.8152280   -2.3602867   -3.5863551  0.00   -0.0052060   -0.0004483    0.0073099
    24
 Energy =       5.7342649404
c    -0.3017640    1.8990365    0.7976957  0.00   -0.0415756   -0.0265205    0.0385144
c     0.2235877    2.9745376    0.1004227  0.00   -0.0356898    0.0472622    0.0277052
c     1.2587394    2.8073854   -0.7970155  0.00    0.0127403    0.0609591   -0.0244166
c     0.1721267    0.6243553    0.5498392  0.00   -0.5257593  -16.8066280   -5.1305055
c     1.3729462    0.4396636   -0.3944802  0.00   -0.6543438   -0.9326592    0.3789291
c     1.8123460    1.5693031   -1.0504880  0.00    0.0263077   -0.0098419   -0.0312336
o    -0.3087514    4.2518121    0.2224773  0.00    0.0160947   -0.0210513   -0.0438725
h    -0.7307309    4.4692252   -0.6479115  0.00    0.0131326   -0.0089283    0.0211567
h     2.5568071    1.5040222   -1.8358478  0.00    0.0004036    0.0102627   -0.0044748
h    -0.1647728   -0.2727250    1.1586490  0.00    4.3800886  -12.4643234  -20.7335906
h    -1.1108892    2.0509153    1.5082948  0.00   -0.0007421   -0.0040704    0.0033119
h     1.6137240    3.6675549   -1.3610258  0.00    0.0000252    0.0044839   -0.0044692
c     1.6517490   -1.0607049   -1.0602980  0.00   -0.6057441   -0.0347499    0.3207449
c     0.6536371   -2.1583969   -1.5877500  0.00    0.0511996    0.0743351    0.0942543
h     2.1749482   -1.5702031   -0.2218778  0.00   -0.0140925    0.0048956    0.0068795
h     2.4218447   -0.9373331   -1.8464416  0.00    0.0055874   -0.0016567   -0.0070850
c    -0.4510786   -2.4230764   -0.6140530  0.00   -0.1276626   -0.1971494    0.0013671
o    -1.2143940   -3.4617769   -0.4750824  0.00    0.0821478    0.1642339    0.0248479
o    -0.5460770   -1.4251656    0.2685413  0.00    1.6272541    4.4728850    2.9126049
h     0.1703798   -0.7840978    0.1003478  0.00   -4.1717031   25.6851204   22.1661475
n     0.0876072   -1.8731241   -2.9353629  0.00   -0.0382405    0.0047177   -0.0059285
h     1.1925003   -3.1238407   -1.6283771  0.00   -0.0054691   -0.0013471   -0.0034533
h     0.1972492   -0.8545894   -3.1037948  0.00    0.0102520   -0.0175181   -0.0152648
h     0.6889775   -2.3591375   -3.6253276  0.00   -0.0042111   -0.0027116    0.0078309
    24
 Energy =       5.4089322372
c    -0.3488701    1.8595587    0.7928732  0.00   -0.0391430   -0.0244029    0.0368368
c     0.1793493    2.9657141    0.1472614  0.00   -0.0330929    0.0445350    0.0261177
c     1.2573863    2.8365064   -0.6983578  0.00    0.0148726    0.0567166   -0.0242743
c     0.1535653    0.5934367    0.5215276  0.00   -0.4890972  -15.8127100   -4.8284597
c     1.3387688    0.4582873   -0.3530950  0.00   -0.6116402   -0.8615787    0.3575490
c     1.8200846    1.6082470   -0.9500799  0.00    0.0262108   -0.0076813   -0.0302497
o    -0.3985829    4.2252885    0.2596400  0.00    0.0144037   -0.0183041   -0.0407863
h    -0.8102128    4.4220276   -0.6228396  0.00    0.0128281   -0.0082972    0.0182156
h     2.6079928    1.5643572   -1.6963381  0.00    0.0026521    0.0096029   -0.0049370
h    -0.1926074   -0.3121435    1.1391501  0.00    4.1212641  -11.7258922  -19.5060668
h    -1.1877781    1.9789113    1.4764214  0.00   -0.0018062   -0.0031747    0.0036547
h     1.6375743    3.7120200   -1.2226222  0.00    0.0018725    0.0049213   -0.0047969
c     1.6503680   -0.9688552   -1.0980761  0.00   -0.5554817   -0.0318405    0.2915316
c     0.7016149   -2.1361176   -1.6086996  0.00    0.0468871    0.0696450    0.0901893
h     2.2466826   -1.4740697   -0.3067592  0.00   -0.0119727    0.0021389    0.0078195
h     2.3700240   -0.7785800   -1.9225670  0.00    0.0072929   -0.0005581   -0.0101865
c    -0.4204188   -2.4457941   -0.6535510  0.00   -0.1178835   -0.1831688    0.0000973
o    -1.1590748   -3.5184719   -0.5919112  0.00    0.0739623    0.1507331    0.0240077
o    -0.5857277   -1.4716609    0.2523738  0.00    1.5283047    4.2090525    2.7426781
h     0.1460744   -0.8236438    0.0756113  0.00   -3.9512866   24.1515960   20.8687329
n     0.1452985   -1.9218741   -2.9752230  0.00   -0.0395575    0.0011481   -0.0068232
h     1.2897161   -3.0758260   -1.6109996  0.00   -0.0042639   -0.0034060   -0.0024166
h     0.2239147   -0.9089135   -3.1932990  0.00    0.0083584   -0.0149078   -0.0152220
h     0.7555702   -2.4347650   -3.6393068  0.00   -0.0036840   -0.0041674    0.0067888
    24
 Energy =       5.1288427445
c    -0.3786515    1.8128431    0.7941804  0.00   -0.0372158   -0.0230015    0.0355193
c     0.1605971    2.9414204    0.2031417  0.00   -0.0315231    0.0425181    0.0247136
c     1.2802813    2.8394921   -0.5855753  0.00    0.0160413    0.0533002   -0.0241101
c     0.1464644    0.5567718    0.5027909  0.00   -0.4572124  -14.8963581   -4.5472994
c     1.3406399    0.4486004   -0.2859757  0.00   -0.5705000   -0.7950886    0.3371114
c     1.8572972    1.6178976   -0.8259481  0.00    0.0254460   -0.0049139   -0.0300176
o    -0.4497875    4.1876915    0.3071739  0.00    0.0128034   -0.0166025   -0.0372036
h    -0.8341327    4.3810923   -0.5900496  0.00    0.0118334   -0.0076907    0.0160818
h     2.6791099    1.5931563   -1.5375850  0.00    0.0034927    0.0095688   -0.0056405
h    -0.2078094   -0.3572640    1.1298538  0.00    3.8824279  -11.0454963  -18.3746320
h    -1.2475290    1.9039541    1.4458686  0.00   -0.0028417   -0.0029618    0.0043059
h     1.6808266    3.7260862   -1.0758012  0.00    0.0024751    0.0052052   -0.0051119
c     1.6345046   -0.9028315   -1.1441944  0.00   -0.5147039   -0.0317464    0.2664954
c     0.7066761   -2.0939415   -1.6593130  0.00    0.0441552    0.0655232    0.0840078
h     2.2965396   -1.4296871   -0.4193232  0.00   -0.0092787   -0.0004045    0.0098808
h     2.3004040   -0.6501840   -2.0005334  0.00    0.0088660   -0.0005384   -0.0128957
c    -0.4159775   -2.4537789   -0.7079018  0.00   -0.1090258   -0.1707244   -0.0010748
o    -1.1092152   -3.5661973   -0.6981658  0.00    0.0675938    0.1384930    0.0223880
o    -0.6129732   -1.5235208    0.2463991  0.00    1.4368565    3.9648312    2.5864812
h     0.1342682   -0.8688420    0.0611328  0.00   -3.7437273   22.7385641   19.6669924
n     0.1513230   -1.8908325   -3.0275557  0.00   -0.0373723    0.0003907   -0.0061852
h     1.3218756   -3.0172553   -1.6641991  0.00   -0.0034590   -0.0036081   -0.0017638
h     0.2319719   -0.8815259   -3.2599465  0.00    0.0078098   -0.0145362   -0.0145165
h     0.7540086   -2.4195050   -3.6873397  0.00   -0.0029410   -0.0047232    0.0064735
    24
 Energy =       4.7259636757
c    -0.4147866    1.7670994    0.7880496  0.00   -0.0341549   -0.0208843    0.0331029
c     0.1308350    2.9160645    0.2514126  0.00   -0.0290868    0.0390248    0.0225634
c     1.2882864    2.8413127   -0.4783466  0.00    0.0162995    0.0481757   -0.0229678
c     0.1367340    0.5230369    0.4820121  0.00   -0.4098890  -13.5284930   -4.1312743
c     1.3348974    0.4414954   -0.2279698  0.00   -0.5171308   -0.7105110    0.3090449
c     1.8825375    1.6281441   -0.7063409  0.00    0.0239877   -0.0021178   -0.0286706
o    -0.5105450    4.1492534    0.3496347  0.00    0.0108120   -0.0145405   -0.0323840
h    -0.8639170    4.3465593   -0.5615964  0.00    0.0103791   -0.0068897    0.0133226
h     2.7386074    1.6226521   -1.3788319  0.00    0.0043027    0.0093617   -0.0061835
h    -0.2288118   -0.4039842    1.1206580  0.00    3.5264418  -10.0267050  -16.6809833
h    -1.3115771    1.8304788    1.4060484  0.00   -0.0037284   -0.0027136    0.0047355
h     1.7060362    3.7392226   -0.9325405  0.00    0.0028386    0.0052757   -0.0052971
c     1.6242505   -0.8292272   -1.1799772  0.00   -0.4600217   -0.0278191    0.2348927
c     0.7236124   -2.0507457   -1.7009237  0.00    0.0400620    0.0592848    0.0755447
h     2.3546316   -1.3608782   -0.5243351  0.00   -0.0061214   -0.0029935    0.0113471
h     2.2309799   -0.5103863   -2.0612322  0.00    0.0101927   -0.0004015   -0.0152667
c    -0.4084189   -2.4634002   -0.7585809  0.00   -0.0963811   -0.1518881   -0.0022787
o    -1.0514399   -3.6166243   -0.8148353  0.00    0.0590864    0.1204793    0.0193525
o    -0.6547088   -1.5823242    0.2452790  0.00    1.2972935    3.5959406    2.3516182
h     0.1193185   -0.9150188    0.0433651  0.00   -3.4137753   20.6405708   17.8639306
n     0.1789116   -1.8627735   -3.0754806  0.00   -0.0354113   -0.0004453   -0.0037596
h     1.3691786   -2.9543142   -1.7008702  0.00   -0.0024190   -0.0037644   -0.0012467
h     0.2905741   -0.8636545   -3.3407860  0.00    0.0073527   -0.0118491   -0.0136577
h     0.7555261   -2.4383481   -3.7226786  0.00   -0.0009291   -0.0060974    0.0045149
    24
 Energy =       4.2269899717
c    -0.4365230    1.7456778    0.7744152  0.00   -0.0303937   -0.0195498    0.0299554
c     0.1428696    2.9046774    0.3053435  0.00   -0.0254485    0.0343333    0.0196137
c     1.3306575    2.8374249   -0.3685474  0.00    0.0150437    0.0419396   -0.0207262
c     0.1123705    0.5060763    0.4478013  0.00   -0.3555588  -11.7685373   -3.5971569
c     1.3313471    0.4312791   -0.1891023  0.00   -0.4472146   -0.6097113    0.2730397
c     1.9228106    1.6253837   -0.5949089  0.00    0.0219278    0.0018643   -0.0256621
o    -0.4875958    4.1436790    0.4280586  0.00    0.0097813   -0.0121980   -0.0268877
h    -0.8200774    4.3750671   -0.4853436  0.00    0.0085567   -0.0054928    0.0102432
h     2.8113667    1.6266081   -1.2251093  0.00    0.0050054    0.0092092   -0.0061242
h    -0.2663998   -0.4414799    1.1009906  0.00    3.0702316   -8.7042609  -14.4866619
h    -1.3536437    1.7990123    1.3628585  0.00   -0.0037663   -0.0026108    0.0046142
h     1.7820983    3.7431506   -0.7737874  0.00    0.0034673    0.0058745   -0.0055124
c     1.6031412   -0.7712758   -1.2266241  0.00   -0.3995588   -0.0232209    0.2006465
c     0.7123815   -2.0205943   -1.7417421  0.00    0.0343720    0.0517099    0.0657405
h     2.4065369   -1.2987800   -0.6533770  0.00   -0.0018747   -0.0056280    0.0126626
h     2.1340093   -0.3855134   -2.1329780  0.00    0.0111049   -0.0005500   -0.0184249
c    -0.4299955   -2.4760230   -0.7995028  0.00   -0.0815339   -0.1288676   -0.0028125
o    -1.0294802   -3.6626887   -0.9131829  0.00    0.0497756    0.1000567    0.0155373
o    -0.7294172   -1.6397883    0.2461978  0.00    1.1091159    3.1067426    2.0426582
h     0.0924411   -0.9489707    0.0104929  0.00   -2.9665361   17.9487976   15.5272741
n     0.1722773   -1.8470075   -3.1203257  0.00   -0.0374751   -0.0012392    0.0049629
h     1.3806174   -2.9080985   -1.7372925  0.00   -0.0016313   -0.0036461   -0.0007634
h     0.3598976   -0.8715062   -3.4424855  0.00    0.0079734   -0.0027471   -0.0137352
h     0.6790223   -2.5126704   -3.7507150  0.00    0.0046362   -0.0122680   -0.0024806
    24
 Energy =       4.0133899561
c    -0.4346270    1.7631898    0.7552455  0.00   -0.0286366   -0.0187015    0.0281921
c     0.1778391    2.9156515    0.3166658  0.00   -0.0237130    0.0320132    0.0183090
c     1.3837319    2.8349506   -0.3216052  0.00    0.0145139    0.0390090   -0.0195099
c     0.0995701    0.5194250    0.4289398  0.00   -0.3327426  -10.9329674   -3.3430996
c     1.3441518    0.4296111   -0.1697207  0.00   -0.4117234   -0.5636108    0.2549654
c     1.9663901    1.6174023   -0.5402990  0.00    0.0210220    0.0027412   -0.0239007
o    -0.4344478    4.1650591    0.4386408  0.00    0.0091822   -0.0112221   -0.0245053
h    -0.7459915    4.4106517   -0.4794278  0.00    0.0077828   -0.0049044    0.0089740
h     2.8714793    1.6088431   -1.1462983  0.00    0.0051662    0.0087604   -0.0058364
h    -0.2896320   -0.4460599    1.0912110  0.00    2.8570038   -8.0548920  -13.4231620
h    -1.3640829    1.8259754    1.3227634  0.00   -0.0037738   -0.0025757    0.0044677
h     1.8609541    3.7375040   -0.7035582  0.00    0.0036326    0.0058428   -0.0053653
c     1.5914956   -0.7522888   -1.2503314  0.00   -0.3724068   -0.0218408    0.1857726
c     0.6817604   -2.0121006   -1.7481187  0.00    0.0318731    0.0489560    0.0615349
h     2.4281023   -1.2793290   -0.7260106  0.00   -0.0006195   -0.0060016    0.0126001
h     2.0784284   -0.3361080   -2.1672003  0.00    0.0109814   -0.0007579   -0.0187067
c    -0.4673434   -2.4800540   -0.7915021  0.00   -0.0754537   -0.1192947   -0.0025182
o    -1.0582935   -3.6737339   -0.9314860  0.00    0.0460120    0.0922110    0.0140962
o    -0.7946534   -1.6615373    0.2732223  0.00    1.0133015    2.8570177    1.8837888
h     0.0806877   -0.9442961   -0.0076775  0.00   -2.7458250   16.6684008   14.4052859
n     0.1309383   -1.8467456   -3.1247849  0.00   -0.0491369   -0.0016174    0.0221283
h     1.3543153   -2.8962263   -1.7456473  0.00   -0.0014087   -0.0035084   -0.0004148
h     0.4396701   -0.9200293   -3.5223407  0.00    0.0127077    0.0143522   -0.0183611
h     0.5202692   -2.6261152   -3.7295458  0.00    0.0122608   -0.0274097   -0.0147350
    24
 Energy =       3.8224388216
c    -0.4196728    1.8043295    0.7160672  0.00   -0.0274410   -0.0183940    0.0265986
c     0.2521194    2.9382949    0.3173794  0.00   -0.0216553    0.0297150    0.0169898
c     1.4812464    2.8242239   -0.2719211  0.00    0.0147963    0.0361734   -0.0184167
c     0.0787600    0.5491313    0.3925676  0.00   -0.3123939  -10.0379373   -3.0721599
c     1.3675230    0.4231362   -0.1556197  0.00   -0.3692607   -0.5120630    0.2380550
c     2.0399659    1.5934606   -0.4797847  0.00    0.0212698    0.0045561   -0.0215073
o    -0.3200631    4.2089364    0.4341802  0.00    0.0084335   -0.0094575   -0.0216766
h    -0.6011880    4.4726292   -0.4900248  0.00    0.0068805   -0.0040601    0.0072114
h     2.9645927    1.5598991   -1.0549793  0.00    0.0059184    0.0081520   -0.0055847
h    -0.3271564   -0.4468398    1.0671680  0.00    2.6457240   -7.2810594  -12.2090426
h    -1.3642977    1.8929094    1.2547213  0.00   -0.0042259   -0.0027011    0.0044878
h     2.0013479    3.7163152   -0.6229337  0.00    0.0043759    0.0063121   -0.0053832
c     1.5625518   -0.7394762   -1.3033500  0.00   -0.3495487   -0.0194334    0.1702503
c     0.6309861   -2.0443415   -1.7286936  0.00    0.0279114    0.0449518    0.0583895
h     2.4774713   -1.2418616   -0.8847637  0.00    0.0064190   -0.0083871    0.0153093
h     1.9322640   -0.2697654   -2.2558783  0.00    0.0130588    0.0014552   -0.0249713
c    -0.5444366   -2.4997572   -0.7506062  0.00   -0.0682967   -0.1089399   -0.0012360
o    -1.1582854   -3.6834413   -0.9242770  0.00    0.0413824    0.0834456    0.0125419
o    -0.9091986   -1.6887676    0.3281911  0.00    0.8747036    2.5230450    1.6795582
h     0.0639907   -0.9244167   -0.0429749  0.00   -2.4917833   15.2805325   13.1638563
n     0.0797518   -1.9317185   -3.1109886  0.00   -0.0515098   -0.0053841    0.0245224
h     1.3029400   -2.9281206   -1.6941090  0.00   -0.0017393   -0.0041910   -0.0011044
h     0.2813092   -0.9659120   -3.4980226  0.00    0.0133594    0.0234177   -0.0198751
h     0.5481903   -2.6652074   -3.7202138  0.00    0.0136217   -0.0297486   -0.0168127
    24
 Energy =       3.8226907956
c    -0.4080671    1.8412356    0.6817565  0.00   -0.0275961   -0.0186299    0.0262478
c     0.3120668    2.9575812    0.3162725  0.00   -0.0209734    0.0291560    0.0166657
c     1.5609147    2.8138654   -0.2269801  0.00    0.0157591    0.0352924   -0.0181045
c     0.0623168    0.5771186    0.3619345  0.00   -0.3067950   -9.7344596   -2.9808341
c     1.3866928    0.4173482   -0.1349369  0.00   -0.3519072   -0.4924298    0.2351209
c     2.1004306    1.5714129   -0.4202109  0.00    0.0224698    0.0057111   -0.0203990
o    -0.2285639    4.2440157    0.4187457  0.00    0.0081792   -0.0086965   -0.0203597
h    -0.4797355    4.5141315   -0.5130076  0.00    0.0065901   -0.0036377    0.0062007
h     3.0410706    1.5163343   -0.9676932  0.00    0.0066750    0.0078092   -0.0055612
h    -0.3549753   -0.4405127    1.0438717  0.00    2.5859485   -6.9828484  -11.7704308
h    -1.3663592    1.9521390    1.1920874  0.00   -0.0047902   -0.0028404    0.0046277
h     2.1158543    3.6949824   -0.5532542  0.00    0.0051444    0.0066669   -0.0054038
c     1.5257532   -0.7133401   -1.3525770  0.00   -0.3461532   -0.0180564    0.1653439
c     0.5933706   -2.0676477   -1.7078063  0.00    0.0262173    0.0434067    0.0592692
h     2.5044330   -1.1865133   -1.0435168  0.00    0.0134736   -0.0107641    0.0172517
h     1.7790287   -0.1897031   -2.3216435  0.00    0.0148967    0.0043283   -0.0313253
c    -0.6106294   -2.5026448   -0.7156875  0.00   -0.0657448   -0.1052535   -0.0002295
o    -1.2502327   -3.6708435   -0.9148661  0.00    0.0395519    0.0800333    0.0119923
o    -0.9969963   -1.6958987    0.3763634  0.00    0.8133381    2.3810638    1.5948860
h     0.0513468   -0.9001686   -0.0713575  0.00   -2.4059267   14.7996851   12.7318655
n     0.0518383   -2.0245585   -3.0997888  0.00   -0.0525293   -0.0061029    0.0221829
h     1.2715189   -2.9442636   -1.6260854  0.00   -0.0017742   -0.0055409   -0.0015712
h     0.2021099   -1.0593794   -3.5132808  0.00    0.0125275    0.0256993   -0.0202225
h     0.5575256   -2.7510510   -3.6872052  0.00    0.0134187   -0.0295922   -0.0172125
    24
 Energy =       3.7743587268
c    -0.4019503    1.8838849    0.6928097  0.00   -0.0278424   -0.0182429    0.0261593
c     0.3009988    3.0023995    0.2974401  0.00   -0.0211723    0.0286301    0.0166087