    13
 Energy =       0.1240500113
c    -3.7133889    1.6950595    0.3173519  0.00   -0.0463732   -0.0207040    0.0178538
c    -2.4962693    2.6345192    0.2419999  0.00    0.0801015    0.3373614    0.0999687
c    -4.9565486    2.3924193   -0.2155699  0.00    0.0140455   -0.0001831    0.0130784
h    -4.7854386    2.7464192   -1.2386596  0.00   -0.0042009   -0.0053683    0.0164369
h    -5.2149185    3.2645991    0.3947669  0.00    0.0019884   -0.0136233   -0.0129422
h    -5.8205083    1.7195795   -0.2420919  0.00    0.0121336    0.0116154   -0.0060094
n    -3.4097890    0.4519539   -0.4549189  0.00    0.0745009   -0.0181002   -0.0541307
h    -3.8575589    1.4177196    1.3669296  0.00    0.0002449   -0.0028786   -0.0218979
h    -4.2340588    0.2238779   -1.0206697  0.00    0.0201505    0.0300837    0.0212107
h    -2.6878492    0.6694128   -1.1486897  0.00    0.0367470    0.0815285    0.0806141
o    -2.4571893    3.7760389    0.6681628  0.00   -0.0151676   -0.2709617   -0.1113815
o    -1.4389296    2.0221094   -0.3549299  0.00   -0.1353164   -0.1236611   -0.0305049
h    -0.7518168    1.9408394    0.3531709  0.00   -0.0388542   -0.0051086   -0.0122959
    13
 Energy =       0.0970618019
c    -3.7063849    1.6923962    0.3069936  0.00   -0.0295026   -0.0126501    0.0120507
c    -2.4763917    2.6012133    0.2366715  0.00    0.0515092    0.2096852    0.0657288
c    -4.9508854    2.4215970   -0.2037368  0.00    0.0119286   -0.0055245    0.0102584
h    -4.7456454    2.9051723   -1.1831366  0.00   -0.0004995    0.0010857    0.0023114
h    -5.2497892    3.2166682    0.5105354  0.00   -0.0004012   -0.0029665   -0.0016156
h    -5.8060712    1.7314043   -0.3330780  0.00    0.0044322    0.0026464   -0.0048762
n    -3.4488783    0.4533040   -0.4734267  0.00    0.0482747   -0.0104750   -0.0336069
h    -3.8436040    1.4138432    1.3646794  0.00    0.0001677   -0.0018110   -0.0136728
h    -4.2876427    0.2102864   -1.0260141  0.00    0.0117990    0.0192808    0.0132184
h    -2.7121230    0.6484192   -1.1740725  0.00    0.0284081    0.0571960    0.0541634
o    -2.4589706    3.8063968    0.6730908  0.00   -0.0106348   -0.1691128   -0.0710286
o    -1.3952550    2.0322628   -0.3849447  0.00   -0.0994096   -0.0813205   -0.0388587
h    -0.7426226    1.8215841    0.3532911  0.00   -0.0160717   -0.0060337    0.0059278
    13
 Energy =       0.0880270834
c    -3.6887648    1.6923087    0.2940574  0.00   -0.0211804   -0.0085870    0.0090783
c    -2.4662691    2.6055195    0.2069318  0.00    0.0393442    0.1561323    0.0499850
c    -4.9582443    2.4216191   -0.1599955  0.00    0.0117500   -0.0040973    0.0089338
h    -4.8181333    2.8417133   -1.1843230  0.00    0.0008232    0.0019953   -0.0028865
h    -5.1834757    3.2655019    0.5322054  0.00   -0.0003988    0.0004463    0.0017991
h    -5.8349271    1.7353120   -0.1743249  0.00   -0.0019135   -0.0017924   -0.0035180
n    -3.4623617    0.4662399   -0.5126125  0.00    0.0369537   -0.0082088   -0.0254276
h    -3.7883176    1.3998306    1.3561643  0.00    0.0001206   -0.0014786   -0.0093983
h    -4.3097647    0.2394025   -1.0665603  0.00    0.0085316    0.0143449    0.0094586
h    -2.7191398    0.6566759   -1.2149448  0.00    0.0230267    0.0447894    0.0414995
o    -2.4681041    3.8368217    0.6505083  0.00   -0.0084255   -0.1260303   -0.0529329
o    -1.3645565    2.0578319   -0.4065246  0.00   -0.0834396   -0.0597184   -0.0414527
h    -0.7622051    1.7357708    0.3462708  0.00   -0.0051921   -0.0077954    0.0148618
    13
 Energy =       0.0817871451
c    -3.6666897    1.6929134    0.2768736  0.00   -0.0123717   -0.0046437    0.0062618
c    -2.4503842    2.6110245    0.1697315  0.00    0.0276574    0.1028967    0.0348599
c    -4.9637490    2.4311163   -0.0943396  0.00    0.0066007   -0.0016738    0.0064888
h    -4.8873637    2.8510291   -1.1260397  0.00    0.0007637    0.0018052   -0.0038408
h    -5.1418734    3.2752966    0.6122795  0.00   -0.0005223    0.0009677    0.0022086
h    -5.8413597    1.7462671   -0.0493215  0.00   -0.0029430   -0.0017699   -0.0022554
n    -3.4873340    0.4853299   -0.5683347  0.00    0.0264353   -0.0068613   -0.0166916
h    -3.7168960    1.3755455    1.3397451  0.00    0.0001807   -0.0012431   -0.0047242
h    -4.3377654    0.3020962   -1.1424403  0.00    0.0042389    0.0088028    0.0048141
h    -2.7228549    0.6560895   -1.2596203  0.00    0.0180746    0.0324015    0.0286103
o    -2.4666422    3.8636372    0.6319941  0.00   -0.0058969   -0.0836882   -0.0346656
o    -1.3261393    2.0871849   -0.4337828  0.00   -0.0749715   -0.0256310   -0.0593120
h    -0.8152125    1.5770177    0.3101077  0.00    0.0127542   -0.0213629    0.0382460
    13
 Energy =       0.0807677618
c    -3.6389922    1.6749707    0.2655949  0.00   -0.0092997   -0.0034346    0.0061506
c    -2.4459983    2.6202692    0.1219354  0.00    0.0259899    0.0938966    0.0313346
c    -4.9770962    2.4032972    0.0161894  0.00    0.0020979   -0.0004092    0.0074929
h    -4.9787703    2.8694534   -1.0020264  0.00    0.0005679    0.0032988   -0.0072381
h    -5.1251439    3.2132369    0.7710326  0.00   -0.0014545    0.0022940    0.0035598
h    -5.8362375    1.6972044    0.0906436  0.00   -0.0036958   -0.0017224   -0.0016017
n    -3.4946958    0.5069900   -0.6432566  0.00    0.0263926   -0.0088467   -0.0159206
h    -3.6116460    1.3092633    1.3181237  0.00    0.0002831   -0.0023900   -0.0003951
h    -4.3623831    0.3591872   -1.2042938  0.00    0.0031289    0.0070597    0.0029156
h    -2.7506578    0.7060938   -1.3513357  0.00    0.0171838    0.0296466    0.0249815
o    -2.4769036    3.8743517    0.5931691  0.00   -0.0053512   -0.0761747   -0.0314564
o    -1.3244077    2.1252086   -0.5136099  0.00   -0.0679145   -0.0233215   -0.0555216
h    -0.8013315    1.5950215    0.2046862  0.00    0.0120717   -0.0198967    0.0356986
    13
 Energy =       0.0750135466
c    -3.6660659    1.6916096    0.2622367  0.00   -0.0055701   -0.0002258    0.0037451
c    -2.4373764    2.5939440    0.1412711  0.00    0.0113285    0.0513293    0.0181269
c    -4.9686311    2.4491527   -0.0822270  0.00   -0.0007943    0.0000604    0.0050910
h    -4.9229427    2.8473133   -1.1277454  0.00    0.0005049    0.0034852   -0.0071892
h    -5.1130416    3.3135505    0.6122795  0.00   -0.0019038    0.0036749    0.0037840
h    -5.8518900    1.7774550    0.0157535  0.00   -0.0027477   -0.0017641   -0.0002518
n    -3.5309767    0.4731097   -0.5781224  0.00    0.0112770   -0.0081030   -0.0046929
h    -3.7021557    1.3792482    1.3347070  0.00   -0.0001007   -0.0026803    0.0029775
h    -4.3798383    0.3130636   -1.1678899  0.00    0.0010043    0.0034455    0.0005960
h    -2.7344310    0.5852637   -1.2585662  0.00    0.0178142    0.0181491    0.0090359
o    -2.4642683    3.8859546    0.5745195  0.00   -0.0036120   -0.0393838   -0.0172127
o    -1.2761438    2.0662549   -0.4048463  0.00   -0.0353069   -0.0152352   -0.0347529
h    -0.7765026    1.5786281    0.3454822  0.00    0.0081067   -0.0127522    0.0207432
    13
 Energy =       0.0729348366
c    -3.6767025    1.6934611    0.2418238  0.00   -0.0033612    0.0019705    0.0016983
c    -2.4237168    2.5634668    0.1107876  0.00   -0.0003324    0.0193605    0.0110770
c    -4.9633652    2.4776817   -0.0930151  0.00   -0.0002134   -0.0000204    0.0018819
h    -4.9264094    2.8529516   -1.1429701  0.00    0.0003985    0.0015779   -0.0033462
h    -5.0720098    3.3579739    0.5843679  0.00   -0.0010075    0.0021999    0.0021753
h    -5.8598212    1.8302410    0.0341065  0.00   -0.0017819   -0.0012390   -0.0000354
n    -3.5996871    0.4569911   -0.5781752  0.00    0.0017498   -0.0071759    0.0100624
h    -3.7121390    1.3987987    1.3173555  0.00   -0.0001485   -0.0012301    0.0013954
h    -4.4147509    0.3720037   -1.2386127  0.00   -0.0080151    0.0017989   -0.0046432
h    -2.7363379    0.4701035   -1.1940657  0.00    0.0213578    0.0103962   -0.0031473
o    -2.4593158    3.9085570    0.4309313  0.00   -0.0044990   -0.0071955   -0.0062444
o    -1.2259079    1.9858647   -0.3099167  0.00   -0.0124622   -0.0096389   -0.0273532
h    -0.7541005    1.5864529    0.5042353  0.00    0.0083150   -0.0108041    0.0164796
    13
 Energy =       0.0730514727
c    -3.6750320    1.6689122    0.2152697  0.00   -0.0031289    0.0050820    0.0030186
c    -2.4328468    2.5620646    0.1398910  0.00   -0.0012495    0.0197336    0.0107279
c    -4.9750266    2.4573014   -0.0582986  0.00   -0.0003707    0.0004091    0.0028533
h    -4.9503847    2.9021416   -1.0836546  0.00    0.0004954    0.0027234   -0.0055854
h    -5.0917676    3.2918142    0.6769555  0.00   -0.0014138    0.0041213    0.0036991
h    -5.8605932    1.7875519    0.0313531  0.00   -0.0023096   -0.0020040    0.0003213
n    -3.5857430    0.4906797   -0.6911258  0.00    0.0031722   -0.0120035    0.0115429
h    -3.7017859    1.2988006    1.2702950  0.00   -0.0003318   -0.0022347    0.0041077
h    -4.3703828    0.4717255   -1.3973658  0.00   -0.0111523   -0.0000033   -0.0094580
h    -2.6933168    0.5282085   -1.2659457  0.00    0.0221351    0.0100050   -0.0047865
o    -2.5027626    3.9055590    0.4647011  0.00   -0.0043314   -0.0061356   -0.0056866
o    -1.2088048    2.0041938   -0.2308169  0.00   -0.0099199   -0.0088529   -0.0279158
h    -0.7758172    1.5855948    0.5955944  0.00    0.0084052   -0.0108403    0.0171616
    13
 Energy =       0.0718165275
c    -3.6676725    1.6774785    0.2045483  0.00   -0.0001187    0.0004366    0.0005117
c    -2.4346029    2.5882512    0.1852475  0.00   -0.0030185   -0.0006680    0.0037568
c    -4.9609795    2.4502693   -0.1289938  0.00   -0.0013788   -0.0001846    0.0003752
h    -4.9114167    2.8637465   -1.1615956  0.00   -0.0001027    0.0007050   -0.0012630
h    -5.0993266    3.3022331    0.5762443  0.00   -0.0002845    0.0009224    0.0010555
h    -5.8465182    1.7842975   -0.0425676  0.00   -0.0002579   -0.0002028    0.0000721
n    -3.5375829    0.4989295   -0.6880449  0.00    0.0016411   -0.0031211    0.0074219
h    -3.7369532    1.3165492    1.2578413  0.00    0.0001151   -0.0002873    0.0013498
h    -4.3573589    0.3964306   -1.3416186  0.00   -0.0078173    0.0004325   -0.0067414
h    -2.6896561    0.5866719   -1.3099131  0.00    0.0087677    0.0025043   -0.0016043
o    -2.5372982    3.9204940    0.5652746  0.00    0.0003408    0.0019142    0.0003974
o    -1.1773727    2.0758467   -0.1215035  0.00   -0.0075423    0.0151484   -0.0376120
h    -0.8675255    1.4933499    0.6719335  0.00    0.0096560   -0.0175997    0.0322805
    13
 Energy =       0.0719646487
c    -3.6680350    1.6684548    0.1949392  0.00    0.0001732    0.0007127    0.0005607
c    -2.4365915    2.5816962    0.1875006  0.00   -0.0026965   -0.0009523    0.0032492
c    -4.9662059    2.4461531   -0.1072995  0.00   -0.0014388   -0.0000913    0.0005019
h    -4.9264157    2.8868565   -1.1293222  0.00   -0.0000884    0.0008369   -0.0015534
h    -5.1013206    3.2791417    0.6212429  0.00   -0.0003461    0.0011675    0.0012198
h    -5.8485981    1.7746230   -0.0315281  0.00   -0.0002769   -0.0002584    0.0001100
n    -3.5456857    0.5101111   -0.7255000  0.00    0.0021349   -0.0035053    0.0078565
h    -3.7271296    1.2827156    1.2402425  0.00    0.0000975   -0.0003906    0.0015713
h    -4.3500376    0.4462463   -1.4035853  0.00   -0.0083912   -0.0000132   -0.0073674
h    -2.6793794    0.5893361   -1.3226479  0.00    0.0086175    0.0025239   -0.0018311
o    -2.5396043    3.9060594    0.5946216  0.00    0.0002806    0.0021979    0.0004890
o    -1.1786620    2.0750450   -0.1245018  0.00   -0.0067987    0.0138623   -0.0340875
h    -0.8565985    1.5081091    0.6726905  0.00    0.0087331   -0.0160902    0.0292810
    13
 Energy =       0.0719856364
c    -3.6683146    1.6636267    0.1895574  0.00    0.0002460    0.0007315    0.0005213
c    -2.4384230    2.5789815    0.1873920  0.00   -0.0024187   -0.0010015    0.0028692
c    -4.9696998    2.4423001   -0.0951593  0.00   -0.0013603   -0.0000504    0.0005087
h    -4.9360913    2.8972953   -1.1110770  0.00   -0.0000762    0.0008138   -0.0015208
h    -5.1032370    3.2647215    0.6454857  0.00   -0.0003405    0.0011469    0.0011749
h    -5.8498003    1.7671879   -0.0247067  0.00   -0.0002634   -0.0002546    0.0001143
n    -3.5504800    0.5160752   -0.7448928  0.00    0.0021411   -0.0033746    0.0075853
h    -3.7209270    1.2651871    1.2303733  0.00    0.0000839   -0.0003896    0.0015158
h    -4.3436129    0.4757285   -1.4375085  0.00   -0.0080821   -0.0001379   -0.0071144
h    -2.6730539    0.5867861   -1.3261180  0.00    0.0080764    0.0023783   -0.0018156
o    -2.5420219    3.8981000    0.6109605  0.00    0.0002356    0.0021545    0.0004911
o    -1.1800490    2.0765900   -0.1284834  0.00   -0.0061268    0.0126169   -0.0308226
h    -0.8485531    1.5219681    0.6710291  0.00    0.0078849   -0.0146333    0.0264928
    13
 Energy =       0.0717045234
c    -3.6704517    1.6407206    0.1633597  0.00    0.0020380    0.0020056    0.0004558
c    -2.4488819    2.5670537    0.1877746  0.00   -0.0001696   -0.0039035   -0.0014115
c    -4.9863414    2.4210929   -0.0406464  0.00   -0.0015324    0.0005568    0.0014408
h    -4.9807181    2.9426420   -1.0261174  0.00    0.0000150    0.0015953   -0.0028036
h    -5.1138348    3.1925225    0.7555349  0.00   -0.0006661    0.0021660    0.0019494
h    -5.8552273    1.7288841    0.0028884  0.00   -0.0003464   -0.0006101    0.0003169
n    -3.5739288    0.5445246   -0.8348513  0.00    0.0042260   -0.0064472    0.0141458
h    -3.6935667    1.1834465    1.1817823  0.00   -0.0000310   -0.0009731    0.0023413
h    -4.3056058    0.6203967   -1.5962616  0.00   -0.0134949   -0.0012046   -0.0136822
h    -2.6447207    0.5657390   -1.3362245  0.00    0.0096330    0.0025096   -0.0038593
o    -2.5569898    3.8578726    0.6946739  0.00   -0.0003842    0.0047641    0.0016561
o    -1.1877373    2.0881368   -0.1451135  0.00   -0.0009244    0.0059690   -0.0079584
h    -0.8062596    1.6015159    0.6600531  0.00    0.0016370   -0.0064279    0.0074089
    13
 Energy =       0.0717296400
c    -3.6730979    1.6415831    0.1630556  0.00    0.0018354    0.0017747    0.0003841
c    -2.4465302    2.5609477    0.2006598  0.00   -0.0001047   -0.0034713   -0.0012617
c    -4.9822478    2.4297999   -0.0530990  0.00   -0.0014288    0.0005238    0.0013254
h    -4.9646886    2.9506626   -1.0385327  0.00    0.0000095    0.0014709   -0.0025838
h    -5.1119190    3.2022001    0.7414295  0.00   -0.0006074    0.0019502    0.0017612
h    -5.8559911    1.7433438   -0.0167543  0.00   -0.0003573   -0.0005758    0.0002919
n    -3.5724934    0.5465013   -0.8356670  0.00    0.0037633   -0.0058306    0.0127959
h    -3.7088350    1.1831469    1.1804161  0.00   -0.0000260   -0.0009089    0.0021780
h    -4.3083939    0.6157223   -1.5921200  0.00   -0.0121876   -0.0010652   -0.0123718
h    -2.6470839    0.5755307   -1.3425458  0.00    0.0087450    0.0022427   -0.0035128
o    -2.5519623    3.8509674    0.7093714  0.00   -0.0003349    0.0042976    0.0014933
o    -1.1855790    2.0770237   -0.1255827  0.00   -0.0008840    0.0054933   -0.0073852
h    -0.8154418    1.5771185    0.6762215  0.00    0.0015777   -0.0059014    0.0068855
    13
 Energy =       0.0716899842
c    -3.6896618    1.6482035    0.1628159  0.00    0.0003683   -0.0010848   -0.0010267
c    -2.4328130    2.5233569    0.2828081  0.00    0.0020976    0.0012519    0.0004871
c    -4.9543888    2.4848637   -0.1336021  0.00   -0.0022052    0.0011209    0.0012451
h    -4.8594659    2.9987627   -1.1184705  0.00    0.0000101    0.0015579   -0.0027370
h    -5.0986819    3.2646491    0.6482477  0.00   -0.0004111    0.0001896    0.0004107
h    -5.8585524    1.8356298   -0.1433819  0.00   -0.0019499   -0.0010382    0.0002269
n    -3.5620278    0.5585757   -0.8361311  0.00   -0.0012621   -0.0017314    0.0038760
h    -3.8065314    1.1853842    1.1731476  0.00   -0.0001414   -0.0014237    0.0030427
h    -4.3244457    0.5820515   -1.5576954  0.00   -0.0027912    0.0007139   -0.0035187
h    -2.6641002    0.6376831   -1.3800318  0.00    0.0039390   -0.0002520   -0.0019568
o    -2.5219858    3.8084736    0.8006589  0.00    0.0003481    0.0006169    0.0002081
o    -1.1735736    2.0085488   -0.0026105  0.00   -0.0020419    0.0067533   -0.0104782
h    -0.8780358    1.4183654    0.7710976  0.00    0.0040397   -0.0066744    0.0102206
    13
 Energy =       0.0716308250
c    -3.6897430    1.6390658    0.1507788  0.00    0.0009332    0.0016319    0.0005159
c    -2.4449794    2.5243979    0.2511465  0.00   -0.0011742   -0.0011766   -0.0003069
c    -4.9688108    2.4643917   -0.0802116  0.00    0.0004886   -0.0001309   -0.0003042
h    -4.9041894    3.0164233   -1.0422363  0.00    0.0002542   -0.0006391    0.0008876
h    -5.1065562    3.2111813    0.7346511  0.00   -0.0000796    0.0006446    0.0003716
h    -5.8580177    1.8005695   -0.0991417  0.00    0.0013339    0.0006707    0.0000045
n    -3.5878761    0.5722964   -0.8749660  0.00    0.0008658   -0.0041006    0.0143718
h    -3.7682427    1.1545938    1.1494157  0.00   -0.0001273    0.0008566   -0.0014532
h    -4.2750344    0.7072836   -1.6658304  0.00   -0.0109084    0.0007088   -0.0103426
h    -2.6350006    0.5674402   -1.3308951  0.00    0.0102486    0.0020009   -0.0038468
o    -2.5358445    3.8014968    0.7870672  0.00   -0.0003833   -0.0002882   -0.0000759
o    -1.1872766    2.0180685   -0.0476622  0.00    0.0017472   -0.0030464    0.0065927
h    -0.8626924    1.4773390    0.7347364  0.00   -0.0031988    0.0028682   -0.0064144
    13
 Energy =       0.0715701279
c    -3.6992738    1.6315797    0.1344543  0.00    0.0003165    0.0016351    0.0007047
c    -2.4417370    2.4928065    0.2978344  0.00   -0.0003308   -0.0006323   -0.0000811
c    -4.9610037    2.4863738   -0.0897984  0.00    0.0007392   -0.0003777   -0.0000196
h    -4.8660784    3.0801104   -1.0262155  0.00    0.0001962    0.0004685   -0.0006920
h    -5.1056446    3.1993287    0.7545816  0.00    0.0000314    0.0010740    0.0010526
h    -5.8604988    1.8370604   -0.1582373  0.00   -0.0000508   -0.0004123   -0.0001726
n    -3.5923793    0.6064971   -0.9336253  0.00    0.0007275   -0.0045035    0.0101114
h    -3.8066621    1.1060388    1.1114068  0.00   -0.0001130   -0.0001511    0.0002157
h    -4.2589717    0.7837281   -1.7315395  0.00   -0.0087103    0.0004019   -0.0087504
h    -2.6317515    0.6030837   -1.3690309  0.00    0.0074469    0.0013562   -0.0031027
o    -2.5247933    3.7536329    0.8739728  0.00    0.0002424    0.0009777    0.0004531
o    -1.1846787    1.9748722    0.0150660  0.00    0.0013000   -0.0007033    0.0033322
h    -0.8907909    1.3994354    0.7879834  0.00   -0.0017952    0.0008667   -0.0030514
    13
 Energy =       0.0715151795
c    -3.6790907    1.6247613    0.1424451  0.00    0.0002806    0.0012675    0.0003025
c    -2.4520058    2.5422017    0.2437393  0.00   -0.0009999    0.0005698    0.0001322
c    -4.9882905    2.4233224   -0.0257593  0.00   -0.0003664    0.0004329    0.0008842
h    -4.9603093    3.0226731   -0.9658641  0.00    0.0002428    0.0019947   -0.0028351
h    -5.1278796    3.1294272    0.8261653  0.00   -0.0001952    0.0016437    0.0016797
h    -5.8612140    1.7329866   -0.0568650  0.00   -0.0016645   -0.0015743   -0.0001389
n    -3.5795466    0.5993502   -0.9268830  0.00    0.0011055   -0.0068097    0.0152153
h    -3.7178735    1.0984624    1.1266730  0.00   -0.0002060   -0.0015148    0.0022438
h    -4.2606760    0.7726381   -1.7183661  0.00   -0.0131896    0.0005097   -0.0133499
h    -2.6223277    0.6037543   -1.3753433  0.00    0.0112219    0.0019057   -0.0049491
o    -2.5629771    3.7994365    0.8244117  0.00    0.0004588    0.0019905    0.0009675
o    -1.1854271    2.0788292   -0.0958863  0.00    0.0045136    0.0005244    0.0013736
h    -0.8266461    1.5267050    0.6683852  0.00   -0.0012016   -0.0009401   -0.0015259
    13
 Energy =       0.0716015230
c    -3.6845380    1.6258292    0.1411129  0.00    0.0002580    0.0009845    0.0001672
c    -2.4483543    2.5282150    0.2653970  0.00   -0.0007468    0.0005216    0.0000714
c    -4.9812245    2.4409877   -0.0449765  0.00   -0.0004908    0.0004544    0.0008626
h    -4.9334428    3.0390166   -0.9849479  0.00    0.0002144    0.0019082   -0.0027083
h    -5.1231945    3.1492079    0.8045618  0.00   -0.0002022    0.0014816    0.0015242
h    -5.8625294    1.7620823   -0.0865704  0.00   -0.0016285   -0.0014960   -0.0001139
n    -3.5795231    0.6026189   -0.9297745  0.00    0.0009133   -0.0061758    0.0137800
h    -3.7450137    1.0970242    1.1228757  0.00   -0.0001849   -0.0014821    0.0022202
h    -4.2669428    0.7674266   -1.7162263  0.00   -0.0119286    0.0004929   -0.0121126
h    -2.6260601    0.6180218   -1.3845071  0.00    0.0102203    0.0016685   -0.0045251
o    -2.5513559    3.7793764    0.8604370  0.00    0.0005014    0.0019875    0.0009520
o    -1.1839504    2.0562324   -0.0698660  0.00    0.0040229    0.0007095    0.0009818
h    -0.8381345    1.4885087    0.6893369  0.00   -0.0009484   -0.0010547   -0.0010995
    13
 Energy =       0.0716438088
c    -3.6881826    1.6266742    0.1402873  0.00    0.0002364    0.0008152    0.0001008
c    -2.4461881    2.5185400    0.2802935  0.00   -0.0005978    0.0004823    0.0000481
c    -4.9758472    2.4531214   -0.0581910  0.00   -0.0005191    0.0004415    0.0008088
h    -4.9143971    3.0497949   -0.9979616  0.00    0.0001913    0.0017715   -0.0025126
h    -5.1193911    3.1629896    0.7894812  0.00   -0.0001953    0.0013349    0.0013780
h    -5.8627513    1.7822728   -0.1069497  0.00   -0.0015276   -0.0013838   -0.0000969
n    -3.5792094    0.6049075   -0.9314624  0.00    0.0007757   -0.0055861    0.0124570
h    -3.7636540    1.0965046    1.1201196  0.00   -0.0001669   -0.0013904    0.0020942
h    -4.2713016    0.7631636   -1.7138579  0.00   -0.0107702    0.0004646   -0.0109588
h    -2.6288926    0.6286044   -1.3910336  0.00    0.0092704    0.0014780   -0.0041111
o    -2.5441497    3.7656547    0.8844240  0.00    0.0004909    0.0018690    0.0008901
o    -1.1833083    2.0406524   -0.0517340  0.00    0.0035976    0.0007658    0.0007459
h    -0.8469910    1.4616677    0.7034369  0.00   -0.0007853   -0.0010626   -0.0008433
    13
 Energy =       0.0716639182
c    -3.6907567    1.6273437    0.1397162  0.00    0.0002152    0.0006985    0.0000651
c    -2.4447920    2.5115084    0.2910360  0.00   -0.0004992    0.0004455    0.0000383
c    -4.9716824    2.4618803   -0.0677180  0.00   -0.0005076    0.0004150    0.0007452
h    -4.9003088    3.0574082   -1.0072265  0.00    0.0001713    0.0016230   -0.0023011
h    -5.1163454    3.1729673    0.7785312  0.00   -0.0001828    0.0012023    0.0012435
h    -5.8625438    1.7969707   -0.1217049  0.00   -0.0014077   -0.0012652   -0.0000841
n    -3.5788318    0.6066496   -0.9325913  0.00    0.0006701   -0.0050440    0.0112444
h    -3.7770957    1.0963366    1.1179996  0.00   -0.0001507   -0.0012811    0.0019353
h    -4.2743610    0.7599065   -1.7117353  0.00   -0.0097128    0.0004312   -0.0098966
h    -2.6311037    0.6366496   -1.3958600  0.00    0.0083863    0.0013169   -0.0037218
o    -2.5393517    3.7558946    0.9010851  0.00    0.0004613    0.0017175    0.0008156
o    -1.1830226    2.0292582   -0.0383235  0.00    0.0032245    0.0007640    0.0005893
h    -0.8540685    1.4417741    0.7136436  0.00   -0.0006680   -0.0010237   -0.0006731
    13
 Energy =       0.0716729124
c    -3.6926568    1.6278829    0.1392855  0.00    0.0001949    0.0006097    0.0000444
c    -2.4438287    2.5061786    0.2991088  0.00   -0.0004274    0.0004101    0.0000336
c    -4.9683769    2.4684766   -0.0748838  0.00   -0.0004795    0.0003838    0.0006808
h    -4.8894823    3.0630798   -1.0140959  0.00    0.0001535    0.0014772   -0.0020940
h    -5.1138867    3.1804607    0.7702711  0.00   -0.0001685    0.0010825    0.0011211
h    -5.8621673    1.8081183   -0.1328824  0.00   -0.0012860   -0.0011502   -0.0000739
n    -3.5784520    0.6080477   -0.9334268  0.00    0.0005851   -0.0045498    0.0101406
h    -3.7872044    1.0963105    1.1162969  0.00   -0.0001358   -0.0011699    0.0017707
h    -4.2765657    0.7574199   -1.7099200  0.00   -0.0087531    0.0003966   -0.0089275
h    -2.6328732    0.6429643   -1.3995775  0.00    0.0075744    0.0011770   -0.0033627
o    -2.5359713    3.7487065    0.9130836  0.00    0.0004254    0.0015624    0.0007407
o    -1.1828975    2.0205132   -0.0279044  0.00    0.0028943    0.0007348    0.0004779
h    -0.8599013    1.4263888    0.7214973  0.00   -0.0005774   -0.0009642   -0.0005516
    13
 Energy =       0.0716470001
c    -3.7114019    1.6335893    0.1348105  0.00    0.0000104   -0.0019756   -0.0014191
c    -2.4347716    2.4522354    0.3800754  0.00    0.0023227    0.0009508    0.0002765
c    -4.9337233    2.5348176   -0.1469068  0.00   -0.0020839    0.0011007    0.0007308
h    -4.7786712    3.1198884   -1.0821023  0.00    0.0000702    0.0012330   -0.0017502
h    -5.0879078    3.2553774    0.6872183  0.00   -0.0003583   -0.0002561   -0.0001572
h    -5.8565347    1.9209291   -0.2461753  0.00   -0.0016481   -0.0007617    0.0001280
n    -3.5737561    0.6230573   -0.9420127  0.00   -0.0020395    0.0001660   -0.0006901
h    -3.8887181    1.0967045    1.0980617  0.00   -0.0002225   -0.0014003    0.0024010
h    -4.2976312    0.7325554   -1.6900544  0.00    0.0012812    0.0007262    0.0004407
h    -2.6515558    0.7088221   -1.4378658  0.00    0.0006739   -0.0010244   -0.0005260
o    -2.5038469    3.6783944    1.0278591  0.00    0.0008427    0.0008345    0.0003732
o    -1.1822586    1.9305412    0.0806581  0.00   -0.0011099    0.0054066   -0.0057562
h    -0.9234868    1.2676356    0.8032864  0.00    0.0022610   -0.0049996    0.0059485
    13
 Energy =       0.0716494663
c    -3.7116636    1.6332563    0.1339643  0.00    0.0000117   -0.0017760   -0.0012764
c    -2.4352036    2.4513944    0.3798249  0.00    0.0020894    0.0008564    0.0002492
c    -4.9338421    2.5348226   -0.1454977  0.00   -0.0018761    0.0009915    0.0006589
h    -4.7788604    3.1219727   -1.0791737  0.00    0.0000636    0.0011112   -0.0015781
h    -5.0880571    3.2534750    0.6903021  0.00   -0.0003229   -0.0002284   -0.0001392
h    -5.8563423    1.9210214   -0.2463815  0.00   -0.0014841   -0.0006867    0.0001154
n    -3.5747700    0.6243455   -0.9444862  0.00   -0.0018343    0.0001350   -0.0005857
h    -3.8884954    1.0950160    1.0962464  0.00   -0.0002004   -0.0012607    0.0021624
h    -4.2950490    0.7391666   -1.6953376  0.00    0.0011252    0.0006575    0.0003679
h    -2.6501760    0.7065755   -1.4363897  0.00    0.0006323   -0.0009167   -0.0004830
o    -2.5043114    3.6776287    1.0273746  0.00    0.0007583    0.0007510    0.0003359
o    -1.1827430    1.9289498    0.0816830  0.00   -0.0009984    0.0048667   -0.0051811
h    -0.9247500    1.2669235    0.8047235  0.00    0.0020356   -0.0045008    0.0053539
    13
 Energy =       0.0716514594
c    -3.7118813    1.6329522    0.1331883  0.00    0.0000125   -0.0015967   -0.0011480
c    -2.4355792    2.4506466    0.3795561  0.00    0.0018796    0.0007714    0.0002246
c    -4.9339580    2.5347997   -0.1441813  0.00   -0.0016890    0.0008931    0.0005939
h    -4.7790702    3.1238662   -1.0764597  0.00    0.0000575    0.0010014   -0.0014227
h    -5.0882007    3.2516907    0.6931565  0.00   -0.0002909   -0.0002038   -0.0001234
h    -5.8561661    1.9210651   -0.2465316  0.00   -0.0013364   -0.0006190    0.0001040
n    -3.5756792    0.6255381   -0.9467549  0.00   -0.0016499    0.0001098   -0.0004991
h    -3.8882336    1.0934623    1.0945865  0.00   -0.0001804   -0.0011350    0.0019474
h    -4.2927295    0.7451355   -1.7000665  0.00    0.0009906    0.0005949    0.0003079
h    -2.6489847    0.7045991   -1.4351378  0.00    0.0005895   -0.0008210   -0.0004422
o    -2.5047191    3.6769890    1.0268185  0.00    0.0006823    0.0006759    0.0003023
o    -1.1831665    1.9275000    0.0826132  0.00   -0.0008981    0.0043807   -0.0046635
h    -0.9258958    1.2663032    0.8060653  0.00    0.0018326   -0.0040518    0.0048187
    13
 Energy =       0.0716530590
c    -3.7120620    1.6326747    0.1324774  0.00    0.0000129   -0.0014356   -0.0010325
c    -2.4359055    2.4499802    0.3792783  0.00    0.0016909    0.0006947    0.0002023
c    -4.9340693    2.5347566   -0.1429562  0.00   -0.0015206    0.0008043    0.0005353
h    -4.7792916    3.1255853   -1.0739516  0.00    0.0000520    0.0009024   -0.0012824
h    -5.0883362    3.2500249    0.6957916  0.00   -0.0002622   -0.0001819   -0.0001094
h    -5.8560048    1.9210724   -0.2466364  0.00   -0.0012033   -0.0005579    0.0000938
n    -3.5764944    0.6266398   -0.9488336  0.00   -0.0014841    0.0000893   -0.0004269
h    -3.8879466    1.0920345    1.0930698  0.00   -0.0001625   -0.0010218    0.0017537
h    -4.2906495    0.7505223   -1.7043009  0.00    0.0008739    0.0005381    0.0002586
h    -2.6479547    0.7028635   -1.4340794  0.00    0.0005469   -0.0007356   -0.0004038
o    -2.5050766    3.6764553    1.0262153  0.00    0.0006140    0.0006083    0.0002721
o    -1.1835367    1.9261780    0.0834602  0.00   -0.0008078    0.0039432   -0.0041977
h    -0.9269361    1.2657603    0.8073178  0.00    0.0016499   -0.0036475    0.0043370
    13
 Energy =       0.0716543362
c    -3.7122117    1.6324215    0.1318267  0.00    0.0000130   -0.0012909   -0.0009287
c    -2.4361889    2.4493853    0.3789987  0.00    0.0015212    0.0006257    0.0001822
c    -4.9341746    2.5346990   -0.1418195  0.00   -0.0013689    0.0007243    0.0004824
h    -4.7795179    3.1271450   -1.0716392  0.00    0.0000470    0.0008131   -0.0011559
h    -5.0884620    3.2484757    0.6982189  0.00   -0.0002362   -0.0001624   -0.0000971
h    -5.8558571    1.9210527   -0.2467049  0.00   -0.0010834   -0.0005027    0.0000845
n    -3.5772252    0.6276556   -0.9507362  0.00   -0.0013351    0.0000727   -0.0003666
h    -3.8876453    1.0907238    1.0916848  0.00   -0.0001463   -0.0009199    0.0015792
h    -4.2887866    0.7553824   -1.7080943  0.00    0.0007725    0.0004864    0.0002178