    27
 Energy =       2.7426328076
c    -1.4235396    2.6054793   -0.0667700  0.00   -0.0469445    0.0383867    0.0027891
c    -1.3072796    1.2134697   -0.1072300  0.00   -0.0851419   -0.0326012    0.0019813
c    -0.0178900    0.6711998   -0.1697000  0.00   -0.0893817   -0.1882775   -0.0005722
c    -0.2940599    3.4190890   -0.0891300  0.00   -0.0161026    0.0690183   -0.0004095
c     0.9872197    2.8590292   -0.1560400  0.00    1.2596780    0.5028584   -1.4280656
c     1.1340797    1.4562096   -0.1970299  0.00    0.0788674    0.0870276   -0.0221807
n     0.3879399   -0.6395298   -0.2140799  0.00    0.1433418    0.1120524   -0.0040123
c     2.2666594    0.5727398   -0.2659299  0.00    0.1565673   -0.0779347   -0.0042930
c     1.7555995   -0.7123598   -0.2706899  0.00   -0.0978147   -0.0965707    0.0003848
h    -0.2400399   -1.4313496   -0.2047299  0.00    0.0369325    0.0478845   -0.0002731
c     3.7030089    1.0223397   -0.3320099  0.00   -0.0317358    0.0865827   -0.0339943
c     4.2197688    1.4064496   -1.7267995  0.00    0.0416034   -0.0234498    0.1482113
h     4.3261788    0.2093419    0.0639454  0.00   -0.0091998    0.0096559   -0.0020578
h     3.8370289    1.8640295    0.3610799  0.00   -0.0093205   -0.0046555   -0.0182384
c     3.6319390    2.7753292   -2.1168494  0.00    0.0106639    0.2380666   -0.3030434
n     3.8331589    0.4251339   -2.8019292  0.00   -0.0066492   -0.0369995   -0.0817975
h     5.3112285    1.5100896   -1.7329195  0.00   -0.0183976   -0.0133467   -0.0175264
h     4.6999387    0.1207120   -3.2570191  0.00   -0.0252453    0.0107790    0.0277174
h     3.4878990   -0.4228179   -2.3386293  0.00    0.0118736    0.0337339    0.0055536
h    -2.4108593    3.0588691   -0.0157800  0.00   -0.0008010    0.0002841    0.0001280
h    -2.1896094    0.5822398   -0.0890100  0.00   -0.0036269    0.0036241    0.0001679
h    -0.4052699    4.5000487   -0.0535400  0.00    0.0011989   -0.0006453    0.0003305
h     1.8590495    3.5066790   -0.1715100  0.00   11.1837275   -3.7731754  -13.9911847
h     2.2327294   -1.6813195   -0.3062999  0.00   -0.0401206   -0.0116782    0.0021406
o     3.8981789    3.3994790   -3.1304891  0.00   -0.0588148   -0.1515358    0.2434877
o     2.7558992    3.2202791   -1.1760297  0.00  -11.7231926    3.3126995   12.8690042
h     1.8876295    3.2967291   -1.6502395  0.00   -0.6619647   -0.1417834    2.6057527
    27
 Energy =       2.3858542025
c    -1.3783560    2.6338706    0.0148078  0.00   -0.0395321    0.0323056    0.0022498
c    -1.2753773    1.2485895   -0.0433506  0.00   -0.0716242   -0.0276307    0.0015162
c    -0.0011850    0.6946284   -0.1160141  0.00   -0.0750193   -0.1558393    0.0001796
c    -0.2443828    3.4323019   -0.0025565  0.00   -0.0136455    0.0580689   -0.0005121
c     1.0263045    2.8629487   -0.0837451  0.00    1.0727210    0.4277177   -1.2174085
c     1.1534759    1.4613537   -0.1463087  0.00    0.0653989    0.0740725   -0.0185616
n     0.3638631   -0.6317806   -0.2130586  0.00    0.1206758    0.0922737   -0.0037931
c     2.2627296    0.5658916   -0.2612181  0.00    0.1294926   -0.0650893   -0.0028243
c     1.7387046   -0.7082440   -0.2909124  0.00   -0.0825126   -0.0805547    0.0005074
h    -0.2833031   -1.4157894   -0.2173535  0.00    0.0306584    0.0398898   -0.0003271
c     3.7179207    0.9546936   -0.3894597  0.00   -0.0263778    0.0725687   -0.0295715
c     4.1854895    1.3774945   -1.7961522  0.00    0.0365565   -0.0195233    0.1265471
h     4.3284822    0.0939833   -0.0657925  0.00   -0.0052076    0.0055092   -0.0009798
h     3.9283700    1.7612027    0.3342466  0.00   -0.0071885   -0.0015448   -0.0124125
c     3.6458334    2.7816749   -2.0975993  0.00    0.0072247    0.2007500   -0.2552415
n     3.7149229    0.4516916   -2.8863597  0.00   -0.0104739   -0.0305545   -0.0709446
h     5.2849677    1.4328993   -1.8405736  0.00   -0.0132408   -0.0114885   -0.0141406
h     4.5418592    0.1291304   -3.4117174  0.00   -0.0173758    0.0064294    0.0201665
h     3.3291459   -0.4005829   -2.4559763  0.00    0.0094865    0.0258205    0.0040071
h    -2.3609609    3.0965057    0.0736659  0.00   -0.0007526    0.0002794    0.0001068
h    -2.1633840    0.6249660   -0.0365110  0.00   -0.0031013    0.0029135    0.0001051
h    -0.3452157    4.5141428    0.0454371  0.00    0.0009764   -0.0004070    0.0002832
h     1.9015799    3.5239402   -0.1021369  0.00    9.5375262   -3.2154686  -11.9305400
h     2.2242084   -1.6714485   -0.3883615  0.00   -0.0326916   -0.0114607    0.0014690
o     3.8843870    3.4521353   -3.1226487  0.00   -0.0494681   -0.1257020    0.2037285
o     2.8096235    3.2330772   -1.1186908  0.00   -9.9979285    2.8282005   10.9765950
h     1.9368831    3.3083129   -1.5970184  0.00   -0.5645769   -0.1215364    2.2197959
    27
 Energy =       1.5304983066
c    -1.3884233    2.5099568    0.0616994  0.00   -0.0173097    0.0165219    0.0008999
c    -1.2447471    1.1499099   -0.0363411  0.00   -0.0330303   -0.0125004    0.0011080
c     0.0201848    0.6385722   -0.1429740  0.00   -0.0338455   -0.0718519    0.0028327
c    -0.2881597    3.3265310    0.0480782  0.00   -0.0067105    0.0241901   -0.0006942
c     0.9839831    2.8076383   -0.0671132  0.00    0.5639975    0.1739382   -0.6983187
c     1.1362622    1.4276713   -0.1633724  0.00    0.0360168    0.0377139   -0.0110106
n     0.3778311   -0.7090704   -0.2798621  0.00    0.0506859    0.0412909   -0.0037302
c     2.2395757    0.5919046   -0.2874847  0.00    0.0607619   -0.0283974   -0.0010267
c     1.7815144   -0.6883070   -0.3369461  0.00   -0.0384307   -0.0323053    0.0017827
h    -0.2476759   -1.5313836   -0.3118302  0.00    0.0131661    0.0166259   -0.0011021
c     3.7008903    0.9736889   -0.3937721  0.00   -0.0145958    0.0364130   -0.0158712
c     4.1683000    1.4467591   -1.7899298  0.00    0.0187007   -0.0088656    0.0573550
h     4.3133078    0.0929759   -0.1104188  0.00   -0.0024952    0.0004765   -0.0015612
h     3.9152738    1.7574324    0.3605605  0.00   -0.0034371   -0.0003180   -0.0066560
c     3.6687058    2.8563278   -2.0435466  0.00    0.0019898    0.0925925   -0.1142189
n     3.7135431    0.5548465   -2.8990953  0.00   -0.0008504   -0.0007806   -0.0401521
h     5.2747610    1.5055910   -1.8058807  0.00   -0.0060985   -0.0057866   -0.0073417
h     4.5462806    0.1927157   -3.4071330  0.00   -0.0074575    0.0026167    0.0079477
h     3.2049213   -0.2858420   -2.5416363  0.00   -0.0044710   -0.0001924    0.0064610
h    -2.3814104    2.9449641    0.1584021  0.00   -0.0008496    0.0014217    0.0010002
h    -2.1115983    0.4973408   -0.0286362  0.00   -0.0019011    0.0016028    0.0005255
h    -0.4200774    4.4041602    0.1410994  0.00    0.0008751    0.0016207    0.0015130
h     1.8632482    3.6826933   -0.0415776  0.00    5.6433280   -1.8150016   -6.9732731
h     2.3712323   -1.5964707   -0.4485214  0.00   -0.0117339   -0.0091930   -0.0005318
o     3.9440192    3.5169329   -3.1588110  0.00   -0.0219586   -0.0606631    0.0895287
o     2.7992554    3.3725980   -1.1076146  0.00   -5.9030069    1.6689675    6.4290659
h     1.9855882    3.3674519   -1.5827006  0.00   -0.2813395   -0.0701365    1.2754682
    27
 Energy =       1.4260012538
c    -1.3825478    2.5343009    0.0402689  0.00   -0.0161671    0.0156033    0.0008832
c    -1.2382471    1.1722920   -0.0119487  0.00   -0.0302723   -0.0123400    0.0009656
c     0.0244677    0.6594613   -0.1140999  0.00   -0.0310208   -0.0633994    0.0023914
c    -0.2836264    3.3509155   -0.0121613  0.00   -0.0057465    0.0228490   -0.0005982
c     0.9871297    2.8293243   -0.1235472  0.00    0.5203805    0.1612361   -0.6413777
c     1.1376502    1.4485111   -0.1720122  0.00    0.0332536    0.0352506   -0.0101579
n     0.3819405   -0.6972759   -0.1743861  0.00    0.0470942    0.0350369   -0.0032676
c     2.2388236    0.6119333   -0.2675982  0.00    0.0563237   -0.0250851   -0.0008812
c     1.7859804   -0.6710314   -0.2614101  0.00   -0.0353946   -0.0299801    0.0015193
h    -0.2422462   -1.5238869   -0.1530771  0.00    0.0107940    0.0133415   -0.0008780
c     3.6983731    0.9919221   -0.3882587  0.00   -0.0138267    0.0330310   -0.0140818
c     4.1582132    1.4115786   -1.8045760  0.00    0.0180181   -0.0078656    0.0529319
h     4.3144293    0.1242178   -0.0717170  0.00   -0.0020669   -0.0001212   -0.0011851
h     3.9121265    1.8068914    0.3346897  0.00   -0.0029664    0.0003492   -0.0054240
c     3.6624892    2.8122174   -2.1100787  0.00    0.0015803    0.0840805   -0.1037562
n     3.7030468    0.4786828   -2.8787497  0.00   -0.0012993   -0.0003711   -0.0380704
h     5.2651434    1.4720266   -1.8244198  0.00   -0.0055479   -0.0051923   -0.0067316
h     4.5362153    0.0880289   -3.3669489  0.00   -0.0062674    0.0017906    0.0066567
h     3.1859813   -0.3441820   -2.4919066  0.00   -0.0045540   -0.0010735    0.0061452
h    -2.3749204    2.9710747    0.1344308  0.00   -0.0007808    0.0013385    0.0009465
h    -2.1034381    0.5179914    0.0344644  0.00   -0.0022377    0.0008233    0.0005296
h    -0.4161653    4.4313479    0.0473250  0.00    0.0008831    0.0020923    0.0014490
h     1.8477637    3.6878043   -0.1292875  0.00    5.1973550   -1.6721765   -6.4228854
h     2.3813258   -1.5793722   -0.3404463  0.00   -0.0107672   -0.0091214   -0.0005520
o     3.9986322    3.4504406   -3.2294621  0.00   -0.0192077   -0.0545685    0.0800492
o     2.7943732    3.3752737   -1.1978984  0.00   -5.4353116    1.5376560    5.9255923
h     1.9536724    3.3971006   -1.6825466  0.00   -0.2622477   -0.0631839    1.1697873
    27
 Energy =       1.2492418183
c    -1.3915038    2.5022351    0.0428752  0.00   -0.0140355    0.0132532    0.0007790
c    -1.2224915    1.1440918    0.0332326  0.00   -0.0253927   -0.0112639    0.0007050
c     0.0448721    0.6518549   -0.0709619  0.00   -0.0259220   -0.0514308    0.0013932
c    -0.3099086    3.3360880   -0.0536517  0.00   -0.0042221    0.0198411   -0.0004827
c     0.9674046    2.8356906   -0.1693303  0.00    0.4426059    0.1356875   -0.5388918
c     1.1404445    1.4577080   -0.1717585  0.00    0.0281805    0.0298675   -0.0085081
n     0.4228111   -0.7050099   -0.0675826  0.00    0.0389649    0.0271626   -0.0021673
c     2.2517121    0.6405579   -0.2516783  0.00    0.0475089   -0.0197613   -0.0007844
c     1.8266168   -0.6489742   -0.1922455  0.00   -0.0292458   -0.0252513    0.0009357
h    -0.1847891   -1.5449163    0.0056760  0.00    0.0076003    0.0089691   -0.0004300
c     3.7056132    1.0368220   -0.3969061  0.00   -0.0115744    0.0271712   -0.0113477
c     4.1436380    1.4132386   -1.8342321  0.00    0.0160518   -0.0059455    0.0445024
h     4.3397626    0.1914031   -0.0537485  0.00   -0.0014115   -0.0006808   -0.0005869
h     3.9130482    1.8828688    0.2941048  0.00   -0.0021399    0.0010241   -0.0038613
c     3.6261767    2.7936483   -2.1870069  0.00   -0.0013080    0.0688742   -0.0836971
n     3.7052353    0.4319206   -2.8695211  0.00   -0.0020183   -0.0003754   -0.0333087
h     5.2501372    1.4980034   -1.8591434  0.00   -0.0042902   -0.0040154   -0.0053281
h     4.5461463    0.0232520   -3.3321367  0.00   -0.0047203    0.0008039    0.0050068
h     3.1873486   -0.3766157   -2.4545764  0.00   -0.0040794   -0.0016677    0.0053035
h    -2.3906139    2.9230062    0.1384070  0.00   -0.0008162    0.0011747    0.0008092
h    -2.0738546    0.4745679    0.1189044  0.00   -0.0025584   -0.0000934    0.0005121
h    -0.4634838    4.4157286   -0.0294355  0.00    0.0008659    0.0026368    0.0012396
h     1.7846754    3.7043080   -0.2231314  0.00    4.3940025   -1.4130156   -5.4330997
h     2.4456023   -1.5433083   -0.2468990  0.00   -0.0088535   -0.0083149   -0.0005334
o     4.0388738    3.4401804   -3.2897145  0.00   -0.0138148   -0.0439387    0.0637885
o     2.7502229    3.3836362   -1.2986372  0.00   -4.5884467    1.2986530    5.0188731
h     1.8728899    3.4456028   -1.7962607  0.00   -0.2309311   -0.0493642    0.9791793
    27
 Energy =       1.1498108635
c    -1.4133011    2.3820222    0.1097237  0.00   -0.0136509    0.0119632    0.0007744
c    -1.1918646    1.0328555    0.1027493  0.00   -0.0234788   -0.0106774    0.0006761
c     0.0903455    0.5886679   -0.0241828  0.00   -0.0232084   -0.0458820    0.0011384
c    -0.3674406    3.2557524   -0.0124097  0.00   -0.0041005    0.0186354   -0.0004033
c     0.9263362    2.8068211   -0.1529411  0.00    0.3927713    0.1163567   -0.4750222
c     1.1534385    1.4340591   -0.1531569  0.00    0.0256563    0.0262670   -0.0074730
n     0.5152185   -0.7568703   -0.0216108  0.00    0.0329060    0.0234630   -0.0015840
c     2.2905970    0.6559332   -0.2603773  0.00    0.0428019   -0.0172179   -0.0004903
c     1.9139563   -0.6467913   -0.1885577  0.00   -0.0244111   -0.0225922    0.0006411
h    -0.0586432   -1.6203092    0.0733621  0.00    0.0057363    0.0064319   -0.0001990
c     3.7320205    1.0923833   -0.4452293  0.00   -0.0096525    0.0241985   -0.0095184
c     4.1216222    1.4905725   -1.8932951  0.00    0.0143500   -0.0057002    0.0383755
h     4.4004076    0.2636628   -0.1240452  0.00   -0.0006165   -0.0012384   -0.0001916
h     3.9351135    1.9400349    0.2455592  0.00   -0.0018123    0.0009016   -0.0033337
c     3.5620778    2.8598156   -2.2184385  0.00   -0.0027305    0.0586694   -0.0718696
n     3.6848322    0.5054211   -2.9231009  0.00   -0.0021543    0.0004116   -0.0294164
h     5.2258189    1.6057580   -1.9434635  0.00   -0.0030257   -0.0034764   -0.0047877
h     4.5252414    0.1188826   -3.4071058  0.00   -0.0035078    0.0005009    0.0040765
h     3.1919591   -0.3159419   -2.5025130  0.00   -0.0039009   -0.0019640    0.0048425
h    -2.4268594    2.7642531    0.2225443  0.00   -0.0017237    0.0013683    0.0008225
h    -2.0154797    0.3309817    0.2082434  0.00   -0.0031786   -0.0007878    0.0005618
h    -0.5648497    4.3290823    0.0076471  0.00    0.0006384    0.0033864    0.0010996
h     1.6896541    3.7344446   -0.2379782  0.00    3.9044329   -1.2502585   -4.8284161
h     2.5672431   -1.5156337   -0.2606477  0.00   -0.0071034   -0.0081474   -0.0005580
o     3.9984266    3.5754792   -3.2780036  0.00   -0.0103301   -0.0364833    0.0528769
o     2.6685760    3.4028728   -1.3171984  0.00   -4.0720775    1.1521053    4.4630036
h     1.7721399    3.4933794   -1.8209318  0.00   -0.2086297   -0.0402338    0.8643745
    27
 Energy =       0.8418719613
c    -1.4434043    2.3773237    0.1733589  0.00   -0.0084815    0.0046683    0.0013106
c    -1.1975594    1.0366649    0.1706102  0.00   -0.0136911   -0.0074670    0.0008034
c     0.0777701    0.6125433   -0.0012954  0.00   -0.0117706   -0.0271091    0.0004876
c    -0.4219327    3.2723700    0.0016102  0.00   -0.0017915    0.0094561   -0.0001334
c     0.8689264    2.8462128   -0.1786415  0.00    0.2379870    0.0929752   -0.3085421
c     1.1180317    1.4685293   -0.1690465  0.00    0.0168163    0.0150075   -0.0038390
n     0.5081387   -0.7356581    0.0087242  0.00    0.0188092    0.0125792   -0.0001770
c     2.2623382    0.6938621   -0.2926963  0.00    0.0247547   -0.0092335   -0.0006382
c     1.9031247   -0.6054107   -0.1966847  0.00   -0.0119991   -0.0125337   -0.0001972
h    -0.0500214   -1.6094960    0.1282085  0.00    0.0043331    0.0020832    0.0002191
c     3.7278024    1.0836874   -0.4829261  0.00   -0.0056744    0.0148202   -0.0060812
c     4.1479841    1.4672878   -1.9345167  0.00    0.0078281   -0.0027704    0.0207134
h     4.3777820    0.2419855   -0.1581434  0.00    0.0003035   -0.0003155   -0.0010230
h     3.9585915    1.9242382    0.2097361  0.00   -0.0006963    0.0013505   -0.0022303
c     3.6134409    2.8315946   -2.2558724  0.00   -0.0104498    0.0248206   -0.0331890
n     3.7157867    0.4887549   -2.9640973  0.00   -0.0027629    0.0151355   -0.0201357
h     5.2544086    1.5791460   -1.9674607  0.00   -0.0018664   -0.0003887   -0.0035570
h     4.5625492    0.0207374   -3.3743336  0.00    0.0061614   -0.0019479   -0.0024505
h     3.1091482   -0.2736155   -2.5658101  0.00   -0.0097327   -0.0096388    0.0078797
h    -2.4607642    2.7337821    0.3289836  0.00   -0.0025011   -0.0009957    0.0016600
h    -2.0002464    0.3174951    0.3197223  0.00   -0.0021596   -0.0029047    0.0011999
h    -0.6383762    4.3393401    0.0281970  0.00   -0.0003850    0.0009104    0.0012996
h     1.6785524    3.6895625   -0.2613939  0.00    2.5452315   -0.8186527   -3.1317243
h     2.5784486   -1.4577664   -0.2647079  0.00   -0.0023887   -0.0044952   -0.0010109
o     4.1571797    3.6276312   -3.2381917  0.00    0.0015537   -0.0098521    0.0211097
o     2.6840609    3.3368877   -1.3796950  0.00   -2.6486549    0.7454499    2.8993661
h     1.8348259    3.4998992   -1.8989963  0.00   -0.1287730   -0.0309517    0.5588796
    27
 Energy =       0.8199217688
c    -1.4190240    2.4612780    0.1655314  0.00   -0.0087441    0.0046935    0.0013341
c    -1.2110059    1.1137672    0.1560020  0.00   -0.0136222   -0.0076157    0.0008362
c     0.0524942    0.6547384   -0.0140717  0.00   -0.0114332   -0.0261637    0.0004684
c    -0.3715035    3.3284001    0.0030950  0.00   -0.0018654    0.0097198   -0.0001289
c     0.9074819    2.8656994   -0.1743043  0.00    0.2290439    0.0898164   -0.2965527
c     1.1167826    1.4819698   -0.1731048  0.00    0.0164399    0.0144680   -0.0037241
n     0.4437259   -0.7057604   -0.0129960  0.00    0.0179016    0.0116348   -0.0001215
c     2.2393273    0.6763738   -0.2980891  0.00    0.0239474   -0.0086626   -0.0006283
c     1.8436250   -0.6134778   -0.2113989  0.00   -0.0112357   -0.0125184   -0.0001480
h    -0.1408698   -1.5641213    0.0969580  0.00    0.0037099    0.0013099    0.0002976
c     3.7162641    1.0236153   -0.4845481  0.00   -0.0050256    0.0142722   -0.0057788
c     4.1538496    1.4098335   -1.9307892  0.00    0.0083838   -0.0039419    0.0211636
h     4.3404460    0.1591744   -0.1669037  0.00    0.0006726   -0.0007514   -0.0008078
h     3.9716274    1.8497456    0.2174762  0.00   -0.0004622    0.0016377   -0.0018961
c     3.6783482    2.8004087   -2.2367153  0.00   -0.0123678    0.0213133   -0.0291166
n     3.6935913    0.4599636   -2.9757651  0.00   -0.0041032    0.0371403   -0.0233838
h     5.2647681    1.4803402   -1.9582431  0.00   -0.0008769   -0.0001582   -0.0032308
h     4.5198545   -0.1274333   -3.2913267  0.00    0.0217439   -0.0112091   -0.0071481
h     2.9503951   -0.2141697   -2.6177947  0.00   -0.0251854   -0.0231081    0.0151126
h    -2.4267813    2.8456663    0.3192505  0.00   -0.0028401   -0.0007952    0.0016634
h    -2.0344354    0.4163805    0.2976375  0.00   -0.0024554   -0.0031354    0.0012204
h    -0.5571207    4.4014788    0.0353822  0.00   -0.0004555    0.0014165    0.0012602
h     1.7433148    3.6744353   -0.2468320  0.00    2.4521013   -0.7881944   -3.0168119
h     2.4956595   -1.4840551   -0.2844708  0.00   -0.0020238   -0.0047450   -0.0010161
o     4.3008613    3.6083619   -3.1668847  0.00    0.0035560   -0.0055340    0.0166830
o     2.7494621    3.3237023   -1.3709687  0.00   -2.5512769    0.7184739    2.7924644
h     1.9054479    3.4812734   -1.8914843  0.00   -0.1235267   -0.0293632    0.5379895
    27
 Energy =       0.7868826369
c    -1.4195017    2.5296654    0.0965926  0.00   -0.0086444    0.0047183    0.0013003
c    -1.2321224    1.1785012    0.1103424  0.00   -0.0132787   -0.0073750    0.0008432
c     0.0269309    0.6980568   -0.0323343  0.00   -0.0109496   -0.0248051    0.0004242
c    -0.3556739    3.3781904   -0.0620208  0.00   -0.0021426    0.0095887   -0.0000847
c     0.9180077    2.8910185   -0.2112347  0.00    0.2178515    0.0856372   -0.2816225
c     1.1042417    1.5071882   -0.1844789  0.00    0.0156483    0.0137191   -0.0035290
n     0.4007865   -0.6675753   -0.0014187  0.00    0.0167101    0.0107843   -0.0000949
c     2.2185042    0.6891568   -0.2719719  0.00    0.0228423   -0.0081598   -0.0002861
c     1.8072886   -0.5946792   -0.1694893  0.00   -0.0102080   -0.0121091   -0.0000316
h    -0.1973434   -1.5165999    0.1101530  0.00    0.0033885    0.0010614    0.0002953
c     3.7007266    1.0251211   -0.4290525  0.00   -0.0049971    0.0137400   -0.0044839
c     4.1738029    1.3569962   -1.8788301  0.00    0.0087444   -0.0041430    0.0221240
h     4.3129856    0.1696609   -0.0639182  0.00    0.0013248   -0.0016142   -0.0003762
h     3.9403151    1.8767615    0.2485510  0.00   -0.0004818    0.0020059   -0.0011315
c     3.6867870    2.7274137   -2.2650706  0.00   -0.0160963    0.0122448   -0.0185893
n     3.7572333    0.3541204   -2.8938343  0.00   -0.0052381    0.0341985   -0.0245436
h     5.2841923    1.4432543   -1.8774273  0.00   -0.0002189   -0.0004112   -0.0028379
h     4.6030923   -0.2185497   -3.1830896  0.00    0.0214046   -0.0113731   -0.0071098
h     3.0281162   -0.3280855   -2.5257218  0.00   -0.0239978   -0.0224394    0.0137682
h    -2.4236351    2.9320905    0.2278195  0.00   -0.0030891   -0.0005454    0.0016349
h    -2.0682410    0.4957810    0.2489144  0.00   -0.0025135   -0.0030774    0.0011870
h    -0.5239982    4.4547664   -0.0497004  0.00   -0.0005457    0.0017176    0.0012243
h     1.7716713    3.6649351   -0.2834541  0.00    2.3334125   -0.7501375   -2.8706447
h     2.4523353   -1.4730880   -0.2097796  0.00   -0.0015061   -0.0049781   -0.0010139
o     4.2391158    3.4496088   -3.3161922  0.00    0.0093461    0.0040995    0.0032911
o     2.7812875    3.3173087   -1.4134088  0.00   -2.4297950    0.6854861    2.6588459
h     1.9396812    3.4665705   -1.9353029  0.00   -0.1169706   -0.0278330    0.5114412
    27
 Energy =       0.7196077738
c    -1.4321190    2.5586881    0.0217601  0.00   -0.0077016    0.0044955    0.0011520
c    -1.2456844    1.2081348    0.0709188  0.00   -0.0117108   -0.0067275    0.0007853
c     0.0144139    0.7240579   -0.0414932  0.00   -0.0096250   -0.0214642    0.0003090
c    -0.3656510    3.4022392   -0.1420685  0.00   -0.0022688    0.0085976   -0.0000220
c     0.9083863    2.9089298   -0.2601459  0.00    0.1922920    0.0763461   -0.2482949
c     1.0917910    1.5289483   -0.1959308  0.00    0.0134298    0.0119970   -0.0030763
n     0.3895132   -0.6407605    0.0307002  0.00    0.0147743    0.0088614   -0.0000357
c     2.2082589    0.7149956   -0.2417644  0.00    0.0199478   -0.0069918   -0.0001048
c     1.8003922   -0.5668686   -0.1113772  0.00   -0.0086967   -0.0108958    0.0001109
h    -0.2093305   -1.4881425    0.1528016  0.00    0.0030355    0.0007691    0.0003032
c     3.6910823    1.0586580   -0.3755898  0.00   -0.0047939    0.0120238   -0.0030141
c     4.1927263    1.3283500   -1.8305449  0.00    0.0088555   -0.0032335    0.0237966
h     4.3025311    0.2262441    0.0438519  0.00    0.0021289   -0.0025539    0.0003158
h     3.9057078    1.9449790    0.2670180  0.00   -0.0003113    0.0028560    0.0001386
c     3.6727096    2.6612855   -2.3118675  0.00   -0.0172029    0.0060447   -0.0086865
n     3.8376943    0.2543173   -2.7978254  0.00   -0.0077051    0.0273215   -0.0253559
h     5.2999844    1.4513267   -1.8031204  0.00    0.0008918   -0.0003235   -0.0019016
h     4.7049367   -0.3093229   -3.0353945  0.00    0.0205522   -0.0117434   -0.0070543
h     3.1144957   -0.4240073   -2.4190669  0.00   -0.0208289   -0.0199898    0.0115450
h    -2.4377266    2.9649950    0.1269101  0.00   -0.0030221   -0.0003386    0.0014764
h    -2.0838259    0.5292636    0.2130226  0.00   -0.0021642   -0.0028173    0.0010731
h    -0.5327955    4.4790873   -0.1611267  0.00   -0.0007198    0.0019365    0.0010854
h     1.7636506    3.6626876   -0.3444322  0.00    2.0565776   -0.6620509   -2.5306717
h     2.4512317   -1.4423724   -0.1118054  0.00   -0.0007183   -0.0050068   -0.0008943
o     4.1551726    3.2908557   -3.4624687  0.00    0.0121099    0.0112728   -0.0089169
o     2.7834871    3.3122571   -1.4850949  0.00   -2.1438358    0.6061705    2.3449379
h     1.9455533    3.4687625   -2.0112241  0.00   -0.1032901   -0.0245553    0.4509998
    27
 Energy =       0.6331826797
c    -1.4428548    2.5765181   -0.0409220  0.00   -0.0063375    0.0039965    0.0009492
c    -1.2531134    1.2288151    0.0474140  0.00   -0.0094369   -0.0059174    0.0006993
c     0.0082484    0.7457539   -0.0386430  0.00   -0.0077599   -0.0172158    0.0001658
c    -0.3774685    3.4176132   -0.2169244  0.00   -0.0021189    0.0071427    0.0000271
c     0.8974200    2.9232622   -0.3074284  0.00    0.1589990    0.0639885   -0.2048656
c     1.0823195    1.5489117   -0.2037244  0.00    0.0106790    0.0097020   -0.0025000
n     0.3873473   -0.6161282    0.0756378  0.00    0.0123225    0.0064633    0.0000718
c     2.2016943    0.7429978   -0.2141181  0.00    0.0161365   -0.0053531   -0.0000525
c     1.8009069   -0.5365670   -0.0505052  0.00   -0.0069922   -0.0091761    0.0002056
h    -0.2095744   -1.4628392    0.2140838  0.00    0.0025172    0.0003227    0.0003411
c     3.6833729    1.0962875   -0.3368986  0.00   -0.0043203    0.0095907   -0.0017124
c     4.2047097    1.3052376   -1.7964370  0.00    0.0082283   -0.0017409    0.0232435
h     4.2960372    0.2899220    0.1306319  0.00    0.0025226   -0.0029933    0.0008590
h     3.8781523    2.0144306    0.2676764  0.00   -0.0001029    0.0034274    0.0010605
c     3.6563351    2.5954021   -2.3650039  0.00   -0.0155469    0.0026497   -0.0026083
n     3.9043401    0.1666466   -2.7077233  0.00   -0.0092587    0.0199100   -0.0238774
h     5.3073030    1.4639525   -1.7528372  0.00    0.0015331   -0.0000144   -0.0010348
h     4.7854429   -0.3954059   -2.8853386  0.00    0.0187614   -0.0115278   -0.0066395
h     3.1765438   -0.4963277   -2.3207299  0.00   -0.0167521   -0.0163955    0.0092064
h    -2.4503757    2.9829596    0.0402136  0.00   -0.0027136   -0.0002033    0.0012423
h    -2.0904356    0.5516337    0.1982788  0.00   -0.0016835   -0.0025055    0.0009311
h    -0.5469706    4.4930543   -0.2711363  0.00   -0.0008596    0.0020915    0.0008698
h     1.7473672    3.6628800   -0.4119465  0.00    1.6936995   -0.5461780   -2.0853602
h     2.4593308   -1.4056780   -0.0137044  0.00   -0.0000337   -0.0046519   -0.0006936
o     4.0868612    3.1321026   -3.5856606  0.00    0.0122279    0.0138788   -0.0157907
o     2.7830718    3.3055934   -1.5684586  0.00   -1.7677112    0.5009397    1.9332563
h     1.9505749    3.4765603   -2.1011542  0.00   -0.0859990   -0.0202306    0.3720061
    27
 Energy =       0.5779164228
c    -1.4194049    2.6945978   -0.1006204  0.00   -0.0065469    0.0037836    0.0008794
c    -1.2794852    1.3407231   -0.0024437  0.00   -0.0090049   -0.0057327    0.0007410
c    -0.0347085    0.8127029   -0.0663943  0.00   -0.0066910   -0.0151014    0.0001302
c    -0.3207286    3.4960780   -0.2632904  0.00   -0.0022100    0.0072581   -0.0000434
c     0.9362798    2.9532542   -0.3294361  0.00    0.1382074    0.0563998   -0.1767493
c     1.0678490    1.5767138   -0.2177982  0.00    0.0098425    0.0081804   -0.0022080
n     0.2962894   -0.5613805    0.0602319  0.00    0.0099679    0.0049314    0.0001315
c     2.1595643    0.7384559   -0.2044722  0.00    0.0142860   -0.0042136    0.0001880
c     1.7161307   -0.5269461   -0.0386532  0.00   -0.0053029   -0.0084183    0.0004010
h    -0.3322409   -1.3870787    0.1916962  0.00    0.0014261   -0.0006749    0.0004380
c     3.6522716    1.0528127   -0.2953746  0.00   -0.0036526    0.0085801   -0.0006563
c     4.2161213    1.2197079   -1.7454162  0.00    0.0077398   -0.0023331    0.0197202
h     4.2319995    0.2406451    0.2040207  0.00    0.0027374   -0.0033108    0.0011730
h     3.8549516    1.9777210    0.2954442  0.00   -0.0001622    0.0030724    0.0010600
c     3.7104981    2.5068021   -2.3635865  0.00   -0.0128810    0.0006242   -0.0021374
n     3.9206491    0.0640595   -2.6346240  0.00   -0.0075748    0.0173234   -0.0210827
h     5.3202902    1.3587541   -1.6731256  0.00    0.0019339   -0.0001579   -0.0010456
h     4.8074964   -0.4825235   -2.8217602  0.00    0.0163513   -0.0100134   -0.0056280
h     3.2156085   -0.6083166   -2.2273053  0.00   -0.0148114   -0.0146625    0.0076434
h    -2.4132728    3.1378615   -0.0392915  0.00   -0.0032673    0.0002138    0.0011305
h    -2.1431826    0.6943807    0.1375655  0.00   -0.0021936   -0.0026892    0.0009224
h    -0.4492594    4.5771635   -0.3279047  0.00   -0.0008921    0.0027521    0.0006968
h     1.8172226    3.6415317   -0.4282572  0.00    1.4694488   -0.4738833   -1.8086634
h     2.3479062   -1.4146617    0.0227615  0.00    0.0005321   -0.0046972   -0.0005425
o     4.1519835    2.9733495   -3.6089326  0.00    0.0117197    0.0130148   -0.0166252
o     2.8620044    3.2851883   -1.6004087  0.00   -1.5353840    0.4373278    1.6777944
h     2.0337529    3.4459929   -2.1379826  0.00   -0.0736183   -0.0175734    0.3223318
    27
 Energy =       0.5234606716
c    -1.3946070    2.8015283   -0.1589334  0.00   -0.0064035    0.0034994    0.0007782
c    -1.3007845    1.4440209   -0.0502801  0.00   -0.0083104   -0.0053312    0.0007337
c    -0.0731191    0.8754971   -0.0927521  0.00   -0.0056074   -0.0129168    0.0000942
c    -0.2670172    3.5652175   -0.3096446  0.00   -0.0021628    0.0070460   -0.0000981
c     0.9713464    2.9787039   -0.3521372  0.00    0.1176771    0.0486292   -0.1492245
c     1.0537246    1.6026529   -0.2319046  0.00    0.0088064    0.0066810   -0.0019007
n     0.2137430   -0.5078212    0.0469424  0.00    0.0078399    0.0035982    0.0001622
c     2.1189017    0.7368649   -0.1955234  0.00    0.0122721   -0.0031369    0.0003801
c     1.6374914   -0.5141408   -0.0266928  0.00   -0.0039792   -0.0074389    0.0006101
h    -0.4423666   -1.3133733    0.1730341  0.00    0.0005828   -0.0013122    0.0004787
c     3.6194263    1.0183099   -0.2549582  0.00   -0.0031214    0.0075691    0.0003219
c     4.2223860    1.1408648   -1.6941946  0.00    0.0072737   -0.0027810    0.0164014
h     4.1684054    0.2051585    0.2769933  0.00    0.0027983   -0.0034755    0.0014052
h     3.8277569    1.9515326    0.3198951  0.00   -0.0002348    0.0027253    0.0010611
c     3.7574639    2.4204323   -2.3627271  0.00   -0.0103951   -0.0011149   -0.0014706