    27
 Energy =       0.3148334045
c    -1.4235396    2.6054793   -0.0667700  0.00   -0.0462589    0.0383221    0.0029404
c    -1.3072796    1.2134697   -0.1072300  0.00   -0.0852180   -0.0325308    0.0021463
c    -0.0178900    0.6711998   -0.1697000  0.00   -0.0892623   -0.1881147   -0.0018376
c    -0.2940599    3.4190890   -0.0891300  0.00   -0.0230366    0.0690092    0.0031679
c     0.9872197    2.8590292   -0.1560400  0.00    0.0106320    0.0639569    0.0014520
c     1.1340797    1.4562096   -0.1970299  0.00    0.0533303    0.0511479    0.0018924
n     0.3879399   -0.6395298   -0.2140799  0.00    0.1434301    0.1114104   -0.0022787
c     2.2666594    0.5727398   -0.2659299  0.00    0.1814599   -0.0913228    0.0809227
c     1.7555995   -0.7123598   -0.2706899  0.00   -0.0657336   -0.0914812    0.0689663
h    -0.2400399   -1.4313496   -0.2047299  0.00    0.0369764    0.0479203   -0.0007362
c     3.7030089    1.0223397   -0.3320099  0.00   -0.0374803   -0.0366140    0.0543576
c     4.7465686   -0.0024900    0.1378100  0.00   -0.0945907    0.0559969   -0.1025361
h     3.7978489    1.9290294    0.2803699  0.00   -0.0069957   -0.0082697   -0.0128547
h     3.9233889    1.3348996   -1.3618196  0.00   -0.0059640    0.0011804    0.0114739
c     4.2682788   -0.6309508    1.4598596  0.00    0.1572741   -0.2659540    0.2272930
n     6.1061283    0.5956748    0.3870399  0.00    0.0977917   -0.0281348    0.0631489
h     4.8578986   -0.8184518   -0.5859768  0.00    0.0175120    0.0144104    0.0164331
h     6.3010282    0.4926839    1.3882896  0.00   -0.0416417   -0.0225788   -0.0372676
h     6.7998681   -0.0124192   -0.0622002  0.00   -0.0291657    0.0153411    0.0161859
h    -2.4108593    3.0588691   -0.0157800  0.00   -0.0008721    0.0002730   -0.0000857
h    -2.1896094    0.5822398   -0.0890100  0.00   -0.0036532    0.0037409   -0.0000685
h    -0.4052699    4.5000487   -0.0535400  0.00    0.0008033    0.0003003    0.0001002
h     1.8590495    3.5066790   -0.1715100  0.00   -0.0004974    0.0027312    0.0002652
h     2.2327294   -1.6813195   -0.3062999  0.00   -0.0386615   -0.0095931    0.0055463
o     4.8294286   -1.5313296    2.0617994  0.00   -0.1274952    0.2244623   -0.1388344
o     3.1170891   -0.0494250    1.8924795  0.00   -0.0182432    0.0545412   -0.1887636
h     2.4621293   -0.7923058    1.9537994  0.00    0.0155601    0.0198495   -0.0710290
    27
 Energy =       0.3061659480
c    -1.3966305    2.6646898   -0.0526150  0.00   -0.0444177    0.0367083    0.0028188
c    -1.2966450    1.2733760   -0.0925466  0.00   -0.0817156   -0.0312492    0.0020540
c    -0.0163873    0.7165729   -0.1565764  0.00   -0.0854454   -0.1800294   -0.0017866
c    -0.2579495    3.4635394   -0.0767110  0.00   -0.0221050    0.0661919    0.0030375
c     1.0154225    2.8880034   -0.1451306  0.00    0.0102361    0.0613429    0.0013895
c     1.1433790    1.4854861   -0.1861575  0.00    0.0510667    0.0490706    0.0018088
n     0.3647315   -0.6014408   -0.1999868  0.00    0.1373297    0.1066197   -0.0021333
c     2.2615473    0.5887356   -0.2588775  0.00    0.1736711   -0.0873779    0.0774515
c     1.7333653   -0.6890130   -0.2689400  0.00   -0.0628188   -0.0877888    0.0659130
h    -0.2783983   -1.3831121   -0.1852001  0.00    0.0352059    0.0456836   -0.0006806
c     3.7078980    1.0070231   -0.3277261  0.00   -0.0363006   -0.0348106    0.0518449
c     4.7230205   -0.0562950    0.1223168  0.00   -0.0924066    0.0528776   -0.0977090
h     3.8303993    1.9024146    0.2978367  0.00   -0.0066412   -0.0074801   -0.0120342
h     3.9306532    1.3254328   -1.3558204  0.00   -0.0057457    0.0011700    0.0109555
c     4.2540420   -0.6576149    1.4606398  0.00    0.1496269   -0.2548712    0.2180472
n     6.1123947    0.4900327    0.3244246  0.00    0.0946542   -0.0230629    0.0617077
h     4.7757621   -0.8810724   -0.6004523  0.00    0.0166411    0.0124478    0.0146621
h     6.3287269    0.4052864    1.3237412  0.00   -0.0395524   -0.0214973   -0.0350759
h     6.7648817   -0.1711723   -0.1195647  0.00   -0.0255768    0.0123195    0.0138093
h    -2.3784217    3.1299293   -0.0003888  0.00   -0.0009202    0.0002954   -0.0000779
h    -2.1861222    0.6521037   -0.0725850  0.00   -0.0035614    0.0035274   -0.0000642
h    -0.3557871    4.5458936   -0.0414182  0.00    0.0007570    0.0003834    0.0000992
h     1.8959180    3.5239055   -0.1625184  0.00   -0.0003798    0.0026802    0.0002541
h     2.2019460   -1.6623771   -0.3142206  0.00   -0.0369384   -0.0092764    0.0052849
o     4.8152850   -1.5625080    2.0700609  0.00   -0.1221159    0.2149198   -0.1329128
o     3.1074872   -0.0704548    1.8994363  0.00   -0.0174310    0.0522527   -0.1806539
h     2.4468750   -0.8096146    1.9609511  0.00    0.0148836    0.0189531   -0.0680093
    27
 Energy =       0.2963554861
c    -1.4185411    2.5935281   -0.0719592  0.00   -0.0424554    0.0350864    0.0026950
c    -1.2999581    1.2044427   -0.1101522  0.00   -0.0780636   -0.0298681    0.0019542
c    -0.0141166    0.6649888   -0.1737224  0.00   -0.0817210   -0.1715987   -0.0017336
c    -0.2915912    3.4071850   -0.0965196  0.00   -0.0210555    0.0632746    0.0029045
c     0.9871631    2.8490900   -0.1635517  0.00    0.0099494    0.0585581    0.0013289
c     1.1314025    1.4507034   -0.2030449  0.00    0.0486023    0.0470363    0.0017533
n     0.3889029   -0.6517406   -0.2096445  0.00    0.1308040    0.1016711   -0.0019915
c     2.2622332    0.5783676   -0.2703926  0.00    0.1655285   -0.0833094    0.0736772
c     1.7623563   -0.7081293   -0.2771182  0.00   -0.0598181   -0.0838414    0.0627467
h    -0.2361063   -1.4502177   -0.1928781  0.00    0.0333083    0.0431557   -0.0006281
c     3.6985457    1.0344496   -0.3278818  0.00   -0.0348235   -0.0329738    0.0492100
c     4.7378751    0.0072525    0.1472239  0.00   -0.0891657    0.0498418   -0.0928066
h     3.7901612    1.9402602    0.2901818  0.00   -0.0063278   -0.0066444   -0.0111852
h     3.9259936    1.3472989   -1.3571957  0.00   -0.0055077    0.0011138    0.0104040
c     4.2631503   -0.6075668    1.4749565  0.00    0.1427073   -0.2433327    0.2078298
n     6.1019409    0.6045753    0.3713017  0.00    0.0904662   -0.0195173    0.0601815
h     4.8337586   -0.8194395   -0.5723651  0.00    0.0158301    0.0110704    0.0133894
h     6.3132888    0.5154444    1.3727018  0.00   -0.0376099   -0.0204198   -0.0333772
h     6.7913620   -0.0124192   -0.0852643  0.00   -0.0223875    0.0101803    0.0119748
h    -2.4065641    3.0455844   -0.0200333  0.00   -0.0009790    0.0003323   -0.0000688
h    -2.1806141    0.5707825   -0.0881609  0.00   -0.0034967    0.0032958   -0.0000584
h    -0.4039449    4.4882535   -0.0622033  0.00    0.0007167    0.0004784    0.0000981
h     1.8593465    3.4964391   -0.1806442  0.00   -0.0002437    0.0025906    0.0002470
h     2.2581509   -1.6680810   -0.3144616  0.00   -0.0350011   -0.0092588    0.0050047
o     4.8381095   -1.5186654    2.0774152  0.00   -0.1163236    0.2049056   -0.1267393
o     3.1005123   -0.0456454    1.9111884  0.00   -0.0168703    0.0503592   -0.1719639
h     2.4545769   -0.7989915    1.9741957  0.00    0.0139370    0.0178136   -0.0648465
    27
 Energy =       0.2778545735
c    -1.4328328    2.5199897   -0.0952598  0.00   -0.0380943    0.0315619    0.0024207
c    -1.2953310    1.1352002   -0.1275843  0.00   -0.0700936   -0.0268264    0.0017209
c    -0.0068940    0.6137841   -0.1925827  0.00   -0.0735214   -0.1535437   -0.0018118
c    -0.3187986    3.3472039   -0.1248138  0.00   -0.0187961    0.0568644    0.0026257
c     0.9630572    2.8066311   -0.1915019  0.00    0.0091777    0.0525165    0.0012188
c     1.1210582    1.4149669   -0.2263987  0.00    0.0433725    0.0424908    0.0016193
n     0.4142820   -0.7047977   -0.2086568  0.00    0.1167858    0.0909107   -0.0013897
c     2.2617292    0.5718432   -0.2876369  0.00    0.1485430   -0.0748009    0.0661460
c     1.7942899   -0.7226387   -0.2905813  0.00   -0.0533251   -0.0749431    0.0561941
h    -0.1920425   -1.5217265   -0.1779531  0.00    0.0295279    0.0380629   -0.0004604
c     3.6880436    1.0649861   -0.3285482  0.00   -0.0314263   -0.0294478    0.0441414
c     4.7448636    0.0730578    0.1783497  0.00   -0.0807521    0.0441770   -0.0828147
h     3.7482618    1.9802867    0.2826629  0.00   -0.0057207   -0.0054697   -0.0097072
h     3.9266295    1.3697510   -1.3589769  0.00   -0.0049555    0.0009842    0.0092189
c     4.2644289   -0.5492984    1.4967567  0.00    0.1286609   -0.2183821    0.1859555
n     6.0814408    0.7191480    0.4134446  0.00    0.0809389   -0.0155093    0.0551903
h     4.8773774   -0.7579400   -0.5346239  0.00    0.0141504    0.0092662    0.0115450
h     6.2967872    0.6321942    1.4166243  0.00   -0.0337050   -0.0182918   -0.0298744
h     6.8028972    0.1463339   -0.0574724  0.00   -0.0180983    0.0078749    0.0096765
h    -2.4267827    2.9587845   -0.0421178  0.00   -0.0009781    0.0003508   -0.0000568
h    -2.1663075    0.4885986   -0.0973760  0.00   -0.0032714    0.0028609   -0.0000455
h    -0.4453932    4.4268901   -0.0940446  0.00    0.0006437    0.0005438    0.0000919
h     1.8271563    3.4645963   -0.2119317  0.00   -0.0000825    0.0023321    0.0002335
h     2.3254676   -1.6639926   -0.3211580  0.00   -0.0309978   -0.0089166    0.0044278
o     4.8601602   -1.4720395    2.0942651  0.00   -0.1039808    0.1835825   -0.1136861
o     3.0791085   -0.0250821    1.9304155  0.00   -0.0158681    0.0463813   -0.1541503
h     2.4547372   -0.7989811    1.9986715  0.00    0.0118664    0.0153705   -0.0584295
    27
 Energy =       0.2691254918
c    -1.4471904    2.4825122   -0.0888539  0.00   -0.0361036    0.0299610    0.0023112
c    -1.3004512    1.1005185   -0.1447562  0.00   -0.0664532   -0.0259001    0.0016864
c    -0.0096242    0.5887394   -0.1944849  0.00   -0.0679868   -0.1408849   -0.0008496
c    -0.3388881    3.3165761   -0.0900932  0.00   -0.0175633    0.0540546    0.0024631
c     0.9454051    2.7854431   -0.1462378  0.00    0.0088291    0.0498052    0.0011039
c     1.1105644    1.3975126   -0.1959023  0.00    0.0412066    0.0407820    0.0015398
n     0.4169904   -0.7303187   -0.2888419  0.00    0.1052593    0.0831189   -0.0023813
c     2.2557161    0.5686972   -0.2535572  0.00    0.1405556   -0.0707675    0.0622607
c     1.8058524   -0.7290637   -0.2673827  0.00   -0.0435468   -0.0683970    0.0543558
h    -0.1840019   -1.5560333   -0.3367062  0.00    0.0249028    0.0319363   -0.0008582
c     3.6766425    1.0765984   -0.3188843  0.00   -0.0295885   -0.0277104    0.0416091
c     4.7459268    0.0950813    0.1792517  0.00   -0.0767743    0.0416305   -0.0787154
h     3.7406368    1.9980287    0.2837810  0.00   -0.0053699   -0.0051173   -0.0091495
h     3.8977605    1.3724413   -1.3566180  0.00   -0.0046673    0.0009858    0.0085202
c     4.2907904   -0.5085341    1.5136998  0.00    0.1217717   -0.2069075    0.1761449
n     6.0821319    0.7505458    0.3750974  0.00    0.0770750   -0.0141996    0.0515745
h     4.8644110   -0.7468027   -0.5244960  0.00    0.0132768    0.0086144    0.0107667
h     6.3227980    0.6853940    1.3752552  0.00   -0.0315815   -0.0172875   -0.0274368
h     6.7968596    0.1752497   -0.1046728  0.00   -0.0170040    0.0074183    0.0091025
h    -2.4448692    2.9141792   -0.0471854  0.00   -0.0010547    0.0003072   -0.0000490
h    -2.1680802    0.4476431   -0.1540651  0.00   -0.0037428    0.0021655   -0.0000566
h    -0.4727352    4.3950318   -0.0459939  0.00    0.0006521    0.0006451    0.0000891
h     1.8057883    3.4488579   -0.1451475  0.00    0.0001331    0.0023692    0.0002113
h     2.3540832   -1.6605129   -0.2988073  0.00   -0.0294383   -0.0087383    0.0042936
o     4.8993960   -1.4366905    2.1051323  0.00   -0.0982948    0.1735595   -0.1075894
o     3.1183902    0.0263225    1.9729477  0.00   -0.0156209    0.0440852   -0.1455622
h     2.4830905   -0.7396673    2.0394929  0.00    0.0111287    0.0144713   -0.0553847
    27
 Energy =       0.2431754787
c    -1.4395316    2.4339687   -0.1235519  0.00   -0.0286007    0.0239752    0.0018259
c    -1.2802897    1.0578913   -0.1504579  0.00   -0.0528227   -0.0212077    0.0011380
c     0.0061155    0.5586774   -0.2134474  0.00   -0.0522858   -0.1058727   -0.0028830
c    -0.3415390    3.2744849   -0.1558926  0.00   -0.0135760    0.0431774    0.0020991
c     0.9402232    2.7540680   -0.2196981  0.00    0.0072756    0.0396708    0.0010965
c     1.1092265    1.3745010   -0.2487808  0.00    0.0325903    0.0332258    0.0013001
n     0.4342305   -0.7736689   -0.2158181  0.00    0.0779715    0.0615041    0.0015629
c     2.2551670    0.5726369   -0.3007080  0.00    0.1124106   -0.0563989    0.0504286
c     1.8332136   -0.7296544   -0.2996555  0.00   -0.0276224   -0.0504778    0.0418670
h    -0.1571278   -1.6171493   -0.1779531  0.00    0.0162896    0.0202214    0.0002081
c     3.6721772    1.1031542   -0.3288149  0.00   -0.0238171   -0.0221761    0.0341661
c     4.7399527    0.1451072    0.2167308  0.00   -0.0610676    0.0327761   -0.0619637
h     3.7059300    2.0292037    0.2734577  0.00   -0.0043567   -0.0037877   -0.0068578
h     3.9251080    1.3911959   -1.3637871  0.00   -0.0035625    0.0008090    0.0062774
c     4.2627217   -0.4663090    1.5361618  0.00    0.0992041   -0.1646303    0.1388397
n     6.0490493    0.8386433    0.4262206  0.00    0.0608717   -0.0099912    0.0418547
h     4.8898378   -0.6999750   -0.4822295  0.00    0.0105394    0.0063867    0.0081145
h     6.2944116    0.7755273    1.4294901  0.00   -0.0252943   -0.0138155   -0.0216774
h     6.7903246    0.3039933   -0.0676989  0.00   -0.0119009    0.0050098    0.0063090
h    -2.4402569    2.8571896   -0.0714954  0.00   -0.0009648    0.0002175   -0.0000418
h    -2.1400900    0.3945002   -0.1158531  0.00   -0.0037843    0.0009934    0.0000049
h    -0.4836341    4.3525606   -0.1291213  0.00    0.0005803    0.0007158    0.0000840
h     1.7959087    3.4231669   -0.2423946  0.00    0.0003760    0.0020535    0.0002033
h     2.4190165   -1.6392660   -0.3262439  0.00   -0.0231634   -0.0077231    0.0031614
o     4.8955312   -1.4112926    2.1336774  0.00   -0.0777415    0.1376776   -0.0855473
o     3.0529903    0.0079960    1.9827607  0.00   -0.0142411    0.0387987   -0.1164480
h     2.4587269   -0.7934016    2.0770745  0.00    0.0066927    0.0088681   -0.0451221
    27
 Energy =       0.2116778542
c    -1.4355025    2.3640410   -0.1646134  0.00   -0.0155666    0.0134244    0.0011028
c    -1.2577170    1.0002557   -0.1980831  0.00   -0.0294351   -0.0117461    0.0008789
c     0.0216103    0.5201289   -0.2466113  0.00   -0.0287179   -0.0581430   -0.0001464
c    -0.3519165    3.2118975   -0.1815571  0.00   -0.0073462    0.0239703    0.0011746
c     0.9262431    2.7074071   -0.2313912  0.00    0.0045190    0.0218788    0.0005190
c     1.0990161    1.3428697   -0.2610463  0.00    0.0174844    0.0192201    0.0007389
n     0.4479161   -0.8230464   -0.2828135  0.00    0.0399193    0.0337783   -0.0012916
c     2.2422063    0.5810110   -0.2955008  0.00    0.0648251   -0.0327893    0.0319579
c     1.8624961   -0.7250087   -0.3011620  0.00   -0.0109882   -0.0263076    0.0305494
h    -0.1339675   -1.6833882   -0.2917616  0.00    0.0080996    0.0094995   -0.0003646
c     3.6551944    1.1341192   -0.3132220  0.00   -0.0133963   -0.0127641    0.0201252
c     4.7208352    0.1935575    0.2670524  0.00   -0.0358104    0.0177265   -0.0343445
h     3.6767794    2.0690317    0.2815116  0.00   -0.0025571   -0.0019564   -0.0037316
h     3.9245055    1.4022876   -1.3528341  0.00   -0.0019263    0.0004571    0.0032208
c     4.2534309   -0.3913708    1.5966192  0.00    0.0556036   -0.0917602    0.0771816
n     6.0111207    0.9178303    0.4201874  0.00    0.0333059   -0.0045873    0.0210325
h     4.8620507   -0.6717805   -0.4149892  0.00    0.0054270    0.0029920    0.0044029
h     6.3074320    0.8929784    1.4195671  0.00   -0.0135536   -0.0080464   -0.0094180
h     6.7536778    0.4039779   -0.1020731  0.00   -0.0055871    0.0026355    0.0031344
h    -2.4417651    2.7747681   -0.1235366  0.00   -0.0006847    0.0001880   -0.0000028
h    -2.1069905    0.3235724   -0.1842550  0.00   -0.0024120    0.0003771    0.0000158
h    -0.5060187    4.2881856   -0.1530517  0.00    0.0003441    0.0004775    0.0000457
h     1.7761430    3.3834053   -0.2420922  0.00    0.0004656    0.0010417    0.0001127
h     2.5042288   -1.5996617   -0.3187732  0.00   -0.0114848   -0.0052948    0.0022621
o     4.9312485   -1.3614370    2.2051082  0.00   -0.0418409    0.0768247   -0.0479699
o     3.0333175    0.0419719    2.0754652  0.00   -0.0079608    0.0274792   -0.0710830
h     2.4718192   -0.7798538    2.2358277  0.00   -0.0007258    0.0014246   -0.0301030
    27
 Energy =       0.2010743594
c    -1.4358320    2.3326565   -0.2240794  0.00   -0.0109427    0.0094832    0.0008374
c    -1.2474440    0.9739081   -0.2514499  0.00   -0.0207468   -0.0082124    0.0006949
c     0.0305198    0.5037061   -0.2857431  0.00   -0.0202753   -0.0408344   -0.0000533
c    -0.3595280    3.1856095   -0.2328257  0.00   -0.0051837    0.0168757    0.0008758
c     0.9188786    2.6896747   -0.2669959  0.00    0.0033044    0.0153255    0.0003747
c     1.0967438    1.3307116   -0.2898749  0.00    0.0121199    0.0135762    0.0005168
n     0.4596478   -0.8421334   -0.3110749  0.00    0.0276569    0.0236884   -0.0010200
c     2.2403279    0.5851784   -0.3039363  0.00    0.0459921   -0.0235765    0.0234821
c     1.8775988   -0.7226335   -0.3092221  0.00   -0.0068684   -0.0183336    0.0241381
h    -0.1168907   -1.7085395   -0.3265406  0.00    0.0056722    0.0065933   -0.0002769
c     3.6517174    1.1487711   -0.2952931  0.00   -0.0093390   -0.0090661    0.0144721
c     4.7127780    0.2163139    0.3098355  0.00   -0.0250774    0.0125355   -0.0238330
h     3.6575993    2.0843282    0.3009328  0.00   -0.0017975   -0.0013033   -0.0025111
h     3.9412256    1.4152953   -1.3311778  0.00   -0.0012737    0.0003361    0.0020804
c     4.2365160   -0.3666258    1.6365247  0.00    0.0387298   -0.0649254    0.0538275
n     5.9912749    0.9560147    0.4588753  0.00    0.0232103   -0.0030714    0.0147921
h     4.8630606   -0.6530092   -0.3672830  0.00    0.0037810    0.0020206    0.0030384
h     6.3001501    0.9357005    1.4567988  0.00   -0.0095629   -0.0057174   -0.0064978
h     6.7389337    0.4591270   -0.0752042  0.00   -0.0036181    0.0017305    0.0020327
h    -2.4452429    2.7363830   -0.1943892  0.00   -0.0005707    0.0001738    0.0000060
h    -2.0907357    0.2902593   -0.2435861  0.00   -0.0017516    0.0002447    0.0000183
h    -0.5208264    4.2609178   -0.2095724  0.00    0.0002274    0.0003759    0.0000348
h     1.7648430    3.3703635   -0.2705448  0.00    0.0003792    0.0007363    0.0000744
h     2.5392242   -1.5831891   -0.3101650  0.00   -0.0077689   -0.0039129    0.0017381
o     4.9373842   -1.3326266    2.2637795  0.00   -0.0289062    0.0539331   -0.0334376
o     3.0072474    0.0429077    2.1196023  0.00   -0.0000986    0.0313062   -0.0549731
h     2.4982225   -0.7913200    2.3945808  0.00   -0.0072917   -0.0099816   -0.0204319
    27
 Energy =       0.1946367740
c    -1.4382026    2.3116719   -0.2776239  0.00   -0.0084820    0.0072692    0.0006788
c    -1.2424272    0.9560022   -0.3029950  0.00   -0.0160424   -0.0062796    0.0005925
c     0.0354056    0.4926777   -0.3208072  0.00   -0.0155933   -0.0313899    0.0000267
c    -0.3667467    3.1685411   -0.2722124  0.00   -0.0040055    0.0130164    0.0006902
c     0.9124727    2.6786844   -0.2891203  0.00    0.0026773    0.0117319    0.0002761
c     1.0946388    1.3229899   -0.3095127  0.00    0.0093002    0.0104588    0.0003709
n     0.4674305   -0.8539854   -0.3425149  0.00    0.0209242    0.0182232   -0.0009023
c     2.2389090    0.5874431   -0.3063333  0.00    0.0356215   -0.0183670    0.0185356
c     1.8867659   -0.7213759   -0.3190783  0.00   -0.0047750   -0.0139978    0.0197840
h    -0.1051467   -1.7241641   -0.3692819  0.00    0.0042927    0.0049595   -0.0002284
c     3.6482927    1.1576891   -0.2759017  0.00   -0.0070549   -0.0069992    0.0112388
c     4.7052324    0.2280053    0.3424361  0.00   -0.0191472    0.0097703   -0.0181241
h     3.6429104    2.0914566    0.3242500  0.00   -0.0013657   -0.0009554   -0.0018685
h     3.9519475    1.4272740   -1.3076223  0.00   -0.0009300    0.0002710    0.0015006
c     4.2260547   -0.3505957    1.6701651  0.00    0.0292141   -0.0501387    0.0409691
n     5.9790376    0.9739019    0.4851200  0.00    0.0177440   -0.0023232    0.0113013
h     4.8576683   -0.6448652   -0.3306287  0.00    0.0028805    0.0015217    0.0023166
h     6.2973700    0.9576233    1.4813741  0.00   -0.0073300   -0.0044069   -0.0049200
h     6.7269064    0.4837075   -0.0560833  0.00   -0.0027076    0.0013074    0.0015242
h    -2.4498822    2.7103963   -0.2611456  0.00   -0.0005435    0.0001589    0.0000096
h    -2.0816928    0.2676298   -0.3067003  0.00   -0.0014293    0.0001520    0.0000187
h    -0.5332325    4.2430582   -0.2511119  0.00    0.0001664    0.0003061    0.0000269
h     1.7555799    3.3627829   -0.2812464  0.00    0.0003681    0.0005937    0.0000513
h     2.5595305   -1.5734162   -0.3085078  0.00   -0.0058305   -0.0030553    0.0014339
o     4.9470684   -1.3038960    2.3152414  0.00   -0.0218054    0.0411654   -0.0253438
o     2.9932180    0.0464529    2.1584786  0.00    0.0055278    0.0362524   -0.0484142
h     2.5382850   -0.7779401    2.5533339  0.00   -0.0116745   -0.0192449   -0.0115444
    27
 Energy =       0.1894053374
c    -1.4461708    2.2827672   -0.3284779  0.00   -0.0064887    0.0053847    0.0005360
c    -1.2401675    0.9303499   -0.3555287  0.00   -0.0121634   -0.0046938    0.0005024
c     0.0387758    0.4765680   -0.3545744  0.00   -0.0116508   -0.0235046    0.0001028
c    -0.3814795    3.1460040   -0.3032745  0.00   -0.0029763    0.0098412    0.0005238
c     0.8996875    2.6650083   -0.3011648  0.00    0.0022137    0.0087494    0.0001861
c     1.0894409    1.3126409   -0.3228522  0.00    0.0070488    0.0078706    0.0002394
n     0.4773884   -0.8693812   -0.3781826  0.00    0.0152884    0.0136319   -0.0008093
c     2.2360534    0.5887027   -0.3046347  0.00    0.0270019   -0.0138424    0.0143554
c     1.8970110   -0.7216426   -0.3326228  0.00   -0.0031358   -0.0103907    0.0155624
h    -0.0890215   -1.7442743   -0.4198859  0.00    0.0030883    0.0035116   -0.0001898
c     3.6414464    1.1681972   -0.2545010  0.00   -0.0051346   -0.0052579    0.0084546
c     4.6976177    0.2421846    0.3718094  0.00   -0.0143348    0.0074501   -0.0134576
h     3.6245711    2.0992363    0.3506005  0.00   -0.0010094   -0.0006525   -0.0013373
h     3.9556183    1.4433128   -1.2821795  0.00   -0.0006480    0.0002096    0.0010577
c     4.2251663   -0.3268338    1.7067789  0.00    0.0208543   -0.0374063    0.0297567
n     5.9688550    0.9932023    0.4973380  0.00    0.0132086   -0.0016150    0.0082551
h     4.8473773   -0.6365137   -0.2950150  0.00    0.0021013    0.0010788    0.0016986
h     6.3021897    0.9847822    1.4899021  0.00   -0.0053856   -0.0032941   -0.0034738
h     6.7128422    0.5058577   -0.0527797  0.00   -0.0019386    0.0009585    0.0010987
h    -2.4608063    2.6742944   -0.3269572  0.00   -0.0005576    0.0001423    0.0000104
h    -2.0738632    0.2356146   -0.3758126  0.00   -0.0012271    0.0000252    0.0000164
h    -0.5555125    4.2192882   -0.2815496  0.00    0.0001242    0.0002630    0.0000199
h     1.7381928    3.3544114   -0.2779850  0.00    0.0004116    0.0005117    0.0000347
h     2.5814159   -1.5644404   -0.3163922  0.00   -0.0042378   -0.0023166    0.0011578
o     4.9758528   -1.2548332    2.3731062  0.00   -0.0154324    0.0301241   -0.0181376
o     2.9902252    0.0557774    2.2047194  0.00    0.0087772    0.0383357   -0.0433636
h     2.5946873   -0.7425313    2.7120870  0.00   -0.0137974   -0.0251146   -0.0027999
    27
 Energy =       0.1853527512
c    -1.4731289    2.2166477   -0.3837002  0.00   -0.0049291    0.0036846    0.0003908
c    -1.2431762    0.8695555   -0.4162543  0.00   -0.0088499   -0.0033978    0.0004059
c     0.0412676    0.4380325   -0.3914237  0.00   -0.0080991   -0.0163631    0.0001784
c    -0.4243783    3.0968473   -0.3301216  0.00   -0.0019809    0.0072104    0.0003726
c     0.8632522    2.6375432   -0.3043727  0.00    0.0020259    0.0061732    0.0001092
c     1.0744954    1.2903550   -0.3312616  0.00    0.0051716    0.0055858    0.0001213
n     0.5009761   -0.9023762   -0.4213926  0.00    0.0099562    0.0092605   -0.0007467
c     2.2306312    0.5894119   -0.2971734  0.00    0.0192678   -0.0094590    0.0104870
c     1.9185794   -0.7255229   -0.3489880  0.00   -0.0015590   -0.0072917    0.0113357
h    -0.0497460   -1.7874327   -0.4834746  0.00    0.0018155    0.0018904   -0.0001772
c     3.6249100    1.1933183   -0.2246105  0.00   -0.0032479   -0.0036229    0.0057187
c     4.6929382    0.2810288    0.4029885  0.00   -0.0107259    0.0054231   -0.0096057
h     3.5868025    2.1188381    0.3890400  0.00   -0.0007078   -0.0002138   -0.0007708
h     3.9447050    1.4824503   -1.2473229  0.00   -0.0003201    0.0001571    0.0006472
c     4.2497820   -0.2707146    1.7571497  0.00    0.0096160   -0.0235447    0.0160136
n     5.9588072    1.0456786    0.4883976  0.00    0.0093397   -0.0004484    0.0049461
h     4.8374971   -0.6077364   -0.2521055  0.00    0.0012718    0.0005626    0.0010707
h     6.3216460    1.0537091    1.4720891  0.00   -0.0033097   -0.0022732   -0.0015315
h     6.6938809    0.5623156   -0.0781208  0.00   -0.0010287    0.0006024    0.0006337
h    -2.4943386    2.5908127   -0.4010699  0.00   -0.0007565    0.0001667    0.0000045
h    -2.0638986    0.1603347   -0.4602881  0.00   -0.0012552   -0.0002605    0.0000005
h    -0.6168963    4.1670110   -0.3049046  0.00    0.0000787    0.0003815    0.0000176
h     1.6897020    3.3406496   -0.2596639  0.00    0.0006347    0.0005906    0.0000316
h     2.6226999   -1.5521216   -0.3299421  0.00   -0.0026354   -0.0017654    0.0009137
o     5.0758523   -1.1139489    2.4717401  0.00   -0.0040223    0.0157150   -0.0074744
o     2.9965359    0.0543692    2.2559172  0.00    0.0081706    0.0412920   -0.0396445
h     2.6879957   -0.7113060    2.8708401  0.00   -0.0139209   -0.0300553    0.0065515
    27
 Energy =       0.1824725651
c    -1.4659337    2.2040093   -0.4326842  0.00   -0.0039146    0.0027218    0.0003027
c    -1.2303472    0.8589194   -0.4691430  0.00   -0.0069092   -0.0026107    0.0003339
c     0.0539610    0.4322496   -0.4266100  0.00   -0.0061730   -0.0125302    0.0001760
c    -0.4216811    3.0871437   -0.3578734  0.00   -0.0014705    0.0056046    0.0002859
c     0.8663306    2.6323259   -0.3146194  0.00    0.0017130    0.0047197    0.0000731
c     1.0818744    1.2870521   -0.3457529  0.00    0.0040738    0.0043087    0.0000751
n     0.5172651   -0.9073735   -0.4589721  0.00    0.0074139    0.0070426   -0.0006056
c     2.2385613    0.5915140   -0.2998684  0.00    0.0148719   -0.0073202    0.0082816
c     1.9337223   -0.7235829   -0.3674663  0.00   -0.0008487   -0.0054893    0.0092192
h    -0.0297889   -1.7942885   -0.5339865  0.00    0.0012933    0.0013174   -0.0001543
c     3.6306658    1.1984111   -0.2061256  0.00   -0.0024656   -0.0027360    0.0043037
c     4.6888206    0.2841949    0.4358970  0.00   -0.0095450    0.0045012   -0.0078020
h     3.5824143    2.1214759    0.4110613  0.00   -0.0005344   -0.0001426   -0.0005194
h     3.9659844    1.4909457   -1.2231739  0.00   -0.0002017    0.0001447    0.0003662
c     4.2162917   -0.2891398    1.7703594  0.00    0.0049646   -0.0098718    0.0048859
n     5.9472681    1.0549399    0.5614572  0.00    0.0075882    0.0004113    0.0035814
h     4.8532344   -0.5945508   -0.2292046  0.00    0.0009279    0.0002095    0.0005953
h     6.2871927    1.0528666    1.5539839  0.00   -0.0024001   -0.0018937   -0.0005311
h     6.6986810    0.5836680    0.0053525  0.00   -0.0004626    0.0002825    0.0002542
h    -2.4880961    2.5744945   -0.4640274  0.00   -0.0006937    0.0001288    0.0000022
h    -2.0473117    0.1467434   -0.5303301  0.00   -0.0010995   -0.0002856   -0.0000039
h    -0.6183669    4.1564268   -0.3298605  0.00    0.0000710    0.0003092    0.0000141
h     1.6895974    3.3378911   -0.2535916  0.00    0.0006129    0.0005256    0.0000284
h     2.6432439   -1.5459085   -0.3499239  0.00   -0.0020090   -0.0013560    0.0007257
o     4.9652626   -1.2727020    2.4116675  0.00    0.0094342   -0.0017315    0.0009055
o     3.0083812    0.1385361    2.3198242  0.00   -0.0022283    0.0381280   -0.0312114
h     2.6801666   -0.5885121    2.9655824  0.00   -0.0120087   -0.0243881    0.0064176
    27
 Energy =       0.1799567522
c    -1.4921077    2.1826172   -0.4015827  0.00   -0.0025711    0.0017941    0.0001943
c    -1.2478215    0.8403333   -0.4466503  0.00   -0.0045010   -0.0017444    0.0002223
c     0.0374704    0.4216682   -0.4028390  0.00   -0.0040496   -0.0080546    0.0001377
c    -0.4540917    3.0710457   -0.3177842  0.00   -0.0009225    0.0036998    0.0001763
c     0.8356150    2.6238283   -0.2749195  0.00    0.0011327    0.0031145    0.0000356
c     1.0583883    1.2812527   -0.3147354  0.00    0.0026137    0.0028593    0.0000358
n     0.5075653   -0.9157732   -0.4491138  0.00    0.0047720    0.0045017   -0.0004139
c     2.2182029    0.5948328   -0.2796875  0.00    0.0094180   -0.0046605    0.0059829
c     1.9238137   -0.7208070   -0.3645365  0.00   -0.0005003   -0.0035161    0.0063267
h    -0.0343784   -1.8058340   -0.5297750  0.00    0.0008220    0.0007965   -0.0000997
c     3.6073827    1.2113383   -0.2028691  0.00   -0.0023568   -0.0017425    0.0026076
c     4.6913281    0.2927958    0.3922778  0.00   -0.0060031    0.0024725   -0.0056621
h     3.5651772    2.1201993    0.4365679  0.00   -0.0005358    0.0002185   -0.0001311
h     3.9158799    1.5300398   -1.2214835  0.00    0.0000266    0.0002843   -0.0004027
c     4.2725089   -0.2916604    1.7408867  0.00    0.0055552   -0.0062034    0.0010787