    24
 Energy =       0.1786324657
c     1.6703672    2.6182922    0.2614132  0.00    0.0361860    0.0887521    0.0345779
c     0.3248649    2.9356558    0.1418766  0.00   -0.0042682    0.1039617    0.0335861
c    -0.5827484    1.9945952   -0.3219261  0.00   -0.0879323    0.0364905   -0.0017308
c     2.1038063    1.3347474   -0.0833024  0.00    0.0676343   -0.0118138    0.0080569
c     1.2047783    0.3610782   -0.5608861  0.00    0.0189706   -0.0958800   -0.0238270
c    -0.1441045    0.7159142   -0.6796715  0.00   -0.0320519   -0.0450827   -0.0211416
o    -0.1504797    4.1703171    0.4675790  0.00    0.0414983   -0.0054329    0.0041227
h     0.5965194    4.7277081    0.7407382  0.00   -0.0327318   -0.0688737   -0.0265452
h    -0.8895274    0.0262790   -1.0546636  0.00   -0.0057687    0.0128588   -0.0004008
h     3.1621727    1.0964802    0.0165124  0.00    0.0024582    0.0000560   -0.0006778
h     2.3926004    3.3457758    0.6178375  0.00    0.0024953   -0.0013809   -0.0007435
h    -1.6336796    2.2563998   -0.4108671  0.00   -0.0033689   -0.0039972   -0.0010605
c     1.7669373   -1.0073413   -0.8964724  0.00    0.0174393   -0.0120275   -0.0221722
c     0.8861134   -2.0194266   -1.6556448  0.00   -0.0224969    0.0624557    0.0142762
h     2.1212937   -1.4658931    0.0371405  0.00   -0.0034036    0.0076055   -0.0118472
h     2.6645729   -0.8285312   -1.5058794  0.00   -0.0142324   -0.0015443    0.0089119
c     1.7481012   -3.2276699   -2.0845864  0.00    0.3368550   -0.0715150   -0.0713067
o     2.9166907   -3.1880566   -2.4354089  0.00   -0.2808397   -0.0079804    0.0780358
o     1.0176544   -4.3756256   -2.0624861  0.00   -0.2641828    0.2025631    0.2143459
h     1.5430918   -5.0077742   -1.5093229  0.00   -0.0216553    0.0417065    0.0007706
n    -0.2697763   -2.5678537   -0.8742070  0.00   -0.0176378   -0.1209283    0.0029544
h     0.4960411   -1.5757973   -2.5789902  0.00   -0.0017638   -0.0087163    0.0183518
h    -0.2733198   -3.5880456   -0.9878198  0.00    0.2697902   -0.0976589   -0.1962451
h    -0.0861426   -2.4268019    0.1217436  0.00   -0.0009930   -0.0036182   -0.0402916
    24
 Energy =       0.1502251954
c     1.6792631    2.5968075    0.2449224  0.00    0.0267766    0.0665095    0.0259889
c     0.3425770    2.9142128    0.1201468  0.00   -0.0030005    0.0776017    0.0253313
c    -0.5561918    1.9737107   -0.3331482  0.00   -0.0656258    0.0273104   -0.0011422
c     2.1124939    1.3210622   -0.0865453  0.00    0.0504631   -0.0087917    0.0060031
c     1.2202922    0.3533267   -0.5548532  0.00    0.0137805   -0.0710712   -0.0183537
c    -0.1212873    0.7008619   -0.6740717  0.00   -0.0237921   -0.0337392   -0.0159215
o    -0.1334376    4.1613582    0.4329518  0.00    0.0307254   -0.0043040    0.0027844
h     0.6058973    4.7404881    0.7198586  0.00   -0.0241468   -0.0514310   -0.0197402
h    -0.8648206    0.0005326   -1.0343937  0.00   -0.0042957    0.0092520   -0.0003794
h     3.1695740    1.0826120    0.0217286  0.00    0.0018750    0.0000043   -0.0005099
h     2.3977563    3.3291845    0.5983744  0.00    0.0018574   -0.0010126   -0.0005521
h    -1.6059984    2.2371512   -0.4249773  0.00   -0.0025220   -0.0029757   -0.0007935
c     1.7713023   -1.0287637   -0.8601925  0.00    0.0116107   -0.0082752   -0.0165234
c     0.8843104   -2.0060398   -1.6651518  0.00   -0.0179867    0.0471683    0.0096562
h     2.0606310   -1.5020699    0.0943626  0.00   -0.0023360    0.0044562   -0.0068736
h     2.7117693   -0.8778980   -1.4218870  0.00   -0.0084403   -0.0005715    0.0058684
c     1.7188767   -3.2068805   -2.1408179  0.00    0.2532495   -0.0557357   -0.0518681
o     2.9265806   -3.1504755   -2.5017569  0.00   -0.2101726   -0.0063456    0.0595987
o     1.0107008   -4.3758259   -2.1265301  0.00   -0.2343061    0.1856198    0.1196686
h     1.4316781   -4.9147102   -1.3505697  0.00    0.0082910    0.0056433    0.0456336
n    -0.2736184   -2.5463296   -0.8883133  0.00   -0.0124056   -0.0908056    0.0016311
h     0.5036763   -1.5197493   -2.5772362  0.00   -0.0017303   -0.0059572    0.0130780
h    -0.2908502   -3.5736991   -1.0075701  0.00    0.2127892   -0.0798721   -0.1529783
h    -0.1153474   -2.4044407    0.1183762  0.00   -0.0006579   -0.0026774   -0.0296063
    24
 Energy =       0.1256452054
c     1.7217171    2.5762375    0.2433313  0.00    0.0196722    0.0494953    0.0194699
c     0.3960979    2.9118601    0.1112103  0.00   -0.0022840    0.0574228    0.0190020
c    -0.5082930    1.9810625   -0.3289653  0.00   -0.0488283    0.0203481   -0.0006139
c     2.1381750    1.2982560   -0.0686967  0.00    0.0375268   -0.0063332    0.0044825
c     1.2384252    0.3437259   -0.5240000  0.00    0.0093620   -0.0513766   -0.0149377
c    -0.0929576    0.7044313   -0.6471174  0.00   -0.0174829   -0.0253371   -0.0119189
o    -0.0616880    4.1779689    0.4062293  0.00    0.0222672   -0.0027147    0.0017874
h     0.6787292    4.7588396    0.7152440  0.00   -0.0175338   -0.0382111   -0.0144183
h    -0.8456927    0.0051548   -0.9910603  0.00   -0.0032476    0.0063436   -0.0003609
h     3.1904367    1.0456655    0.0513307  0.00    0.0015879   -0.0000837   -0.0003590
h     2.4473309    3.3045935    0.5903505  0.00    0.0013952   -0.0006858   -0.0003906
h    -1.5535031    2.2593465   -0.4261309  0.00   -0.0019983   -0.0021622   -0.0005976
c     1.7551709   -1.0646346   -0.7823636  0.00    0.0064529   -0.0041057   -0.0130798
c     0.8721465   -1.9853696   -1.6643822  0.00   -0.0127657    0.0352126    0.0058410
h     1.9361635   -1.5562784    0.1979349  0.00   -0.0008518    0.0003789    0.0001475
h     2.7552329   -0.9661707   -1.2631339  0.00   -0.0004283    0.0007991    0.0025090
c     1.6727952   -3.1924317   -2.1636068  0.00    0.1886339   -0.0398807   -0.0365841
o     2.9068762   -3.1418655   -2.5499956  0.00   -0.1561388   -0.0053787    0.0430783
o     0.9499804   -4.3609054   -2.2052043  0.00   -0.1837701    0.1432402    0.0872808
h     1.3899736   -4.9670864   -1.4977866  0.00    0.0077346    0.0010512    0.0398109
n    -0.3318840   -2.4998086   -0.9434114  0.00   -0.0113074   -0.0696120   -0.0022090
h     0.5470296   -1.4464455   -2.5751833  0.00   -0.0021097   -0.0029423    0.0075593
h    -0.3679137   -3.5328224   -1.0600969  0.00    0.1651856   -0.0636458   -0.1183102
h    -0.2485211   -2.3488971    0.0782105  0.00   -0.0010716   -0.0018221   -0.0171887
    24
 Energy =       0.1095828904
c     1.6608249    2.5917623    0.2233641  0.00    0.0155702    0.0387238    0.0152449
c     0.3336468    2.9032276    0.0841049  0.00   -0.0015236    0.0447361    0.0148352
c    -0.5477687    1.9575769   -0.3579705  0.00   -0.0382184    0.0159920   -0.0004731
c     2.1005943    1.3257756   -0.0830279  0.00    0.0294380   -0.0050856    0.0034982
c     1.2232735    0.3588047   -0.5395367  0.00    0.0070250   -0.0398977   -0.0120220
c    -0.1102535    0.6919205   -0.6702300  0.00   -0.0139016   -0.0197318   -0.0092912
o    -0.1513893    4.1646029    0.3768378  0.00    0.0165696   -0.0023547    0.0012134
h     0.5719440    4.7747359    0.6874019  0.00   -0.0131625   -0.0291579   -0.0109839
h    -0.8463076   -0.0241772   -1.0167996  0.00   -0.0027496    0.0048327   -0.0003710
h     3.1568076    1.0925705    0.0417158  0.00    0.0014497   -0.0001463   -0.0002596
h     2.3697608    3.3348425    0.5739333  0.00    0.0012651   -0.0003648   -0.0002211
h    -1.5969505    2.2181912   -0.4606410  0.00   -0.0017490   -0.0016146   -0.0004779
c     1.7749479   -1.0348934   -0.8055553  0.00    0.0047492   -0.0023624   -0.0102376
c     0.8884324   -1.9999038   -1.6396274  0.00   -0.0094233    0.0274307    0.0038524
h     2.0177395   -1.5104231    0.1716661  0.00   -0.0001321   -0.0006503    0.0017540
h     2.7496737   -0.9052537   -1.3332040  0.00    0.0013343    0.0012130    0.0013255
c     1.7020661   -3.1988006   -2.1260332  0.00    0.1468932   -0.0304750   -0.0279605
o     2.9533880   -3.1170525   -2.5238546  0.00   -0.1210900   -0.0035489    0.0332883
o     1.0191950   -4.3951119   -2.1370302  0.00   -0.1535417    0.1197266    0.0625917
h     1.5487267   -5.0242093   -1.5139576  0.00    0.0113047   -0.0059791    0.0393962
n    -0.2846206   -2.5098948   -0.8696149  0.00   -0.0103868   -0.0553787   -0.0028142
h     0.5302329   -1.4931209   -2.5593953  0.00   -0.0019622   -0.0017920    0.0049602
h    -0.3172303   -3.5497492   -0.9692348  0.00    0.1329872   -0.0527768   -0.0949303
h    -0.1609060   -2.3469938    0.1493952  0.00   -0.0007455   -0.0013382   -0.0119175
    24
 Energy =       0.0968070133
c     1.6029637    2.6050934    0.2079890  0.00    0.0122590    0.0300761    0.0118652
c     0.2744110    2.8940716    0.0602627  0.00   -0.0010016    0.0346193    0.0115213
c    -0.5853822    1.9340416   -0.3831172  0.00   -0.0297363    0.0124813   -0.0003573
c     2.0648968    1.3497359   -0.0912070  0.00    0.0229679   -0.0040644    0.0027029
c     1.2088120    0.3703901   -0.5485615  0.00    0.0052897   -0.0308408   -0.0095463
c    -0.1265359    0.6782169   -0.6881428  0.00   -0.0109881   -0.0152893   -0.0072140
o    -0.2351564    4.1510427    0.3475717  0.00    0.0122004   -0.0019772    0.0008147
h     0.4727780    4.7865515    0.6566986  0.00   -0.0098049   -0.0220303   -0.0083179
h    -0.8467347   -0.0530322   -1.0371815  0.00   -0.0023122    0.0036376   -0.0003652
h     3.1243013    1.1349363    0.0393525  0.00    0.0013194   -0.0001784   -0.0001821
h     2.2960169    3.3618567    0.5612317  0.00    0.0011370   -0.0001319   -0.0000964
h    -1.6378688    2.1777456   -0.4926007  0.00   -0.0015360   -0.0011891   -0.0003833
c     1.7907665   -1.0104057   -0.8178427  0.00    0.0036319   -0.0013712   -0.0079238
c     0.9076630   -2.0119828   -1.6138624  0.00   -0.0070952    0.0212363    0.0024748
h     2.0784510   -1.4694753    0.1560058  0.00    0.0002298   -0.0010522    0.0022654
h     2.7443164   -0.8576699   -1.3785225  0.00    0.0019359    0.0013277    0.0006861
c     1.7355489   -3.2020295   -2.0901504  0.00    0.1134941   -0.0235310   -0.0209059
o     2.9969856   -3.0903211   -2.5059089  0.00   -0.0930266   -0.0021697    0.0254385
o     1.0889730   -4.4207447   -2.0817581  0.00   -0.1325369    0.1042526    0.0414783
h     1.7074798   -5.0768831   -1.5724839  0.00    0.0184656   -0.0148733    0.0396934
n    -0.2407635   -2.5174742   -0.8076205  0.00   -0.0088837   -0.0433029   -0.0028910
h     0.5245191   -1.5322799   -2.5399174  0.00   -0.0017410   -0.0010633    0.0032539
h    -0.2659583   -3.5632358   -0.8846433  0.00    0.1062385   -0.0436202   -0.0755892
h    -0.0946555   -2.3337218    0.2071155  0.00   -0.0005067   -0.0009456   -0.0084221
    24
 Energy =       0.0863663810
c     1.5384466    2.6205648    0.1856627  0.00    0.0094409    0.0226264    0.0090009
c     0.2082101    2.8839418    0.0263183  0.00   -0.0005998    0.0258842    0.0087162
c    -0.6279299    1.9056354   -0.4137869  0.00   -0.0224917    0.0094500   -0.0002614
c     2.0252666    1.3752033   -0.0998468  0.00    0.0174621   -0.0031957    0.0020169
c     1.1927813    0.3796145   -0.5546282  0.00    0.0038976   -0.0231500   -0.0073761
c    -0.1448097    0.6591740   -0.7055080  0.00   -0.0084970   -0.0115219   -0.0054730
o    -0.3275246    4.1369908    0.2987614  0.00    0.0081838   -0.0017494    0.0004526
h     0.3657259    4.8019935    0.5917557  0.00   -0.0067078   -0.0155946   -0.0060141
h    -0.8473502   -0.0895457   -1.0543349  0.00   -0.0019589    0.0025773   -0.0003738
h     3.0877794    1.1816488    0.0387461  0.00    0.0012603   -0.0002037   -0.0001065
h     2.2137432    3.3936813    0.5382122  0.00    0.0010571    0.0001020    0.0000286
h    -1.6837462    2.1296926   -0.5326649  0.00   -0.0014050   -0.0008133   -0.0003097
c     1.8063598   -0.9886010   -0.8190677  0.00    0.0028784   -0.0007159   -0.0059193
c     0.9345116   -2.0266909   -1.5817530  0.00   -0.0053081    0.0159019    0.0015416
h     2.1288810   -1.4275876    0.1534738  0.00    0.0004320   -0.0011975    0.0023198
h     2.7421444   -0.8163674   -1.4038631  0.00    0.0020154    0.0013105    0.0003333
c     1.7824069   -3.2047767   -2.0482512  0.00    0.0847019   -0.0174865   -0.0148998
o     3.0498214   -3.0586436   -2.4832762  0.00   -0.0686572   -0.0009578    0.0185979
o     1.1776241   -4.4466648   -2.0219177  0.00   -0.1120186    0.0877082    0.0268299
h     1.8662329   -5.1137575   -1.6275062  0.00    0.0229789   -0.0199731    0.0359666
n    -0.1924019   -2.5302064   -0.7467355  0.00   -0.0074123   -0.0318905   -0.0036763
h     0.5301932   -1.5737638   -2.5136286  0.00   -0.0015221   -0.0005104    0.0019418
h    -0.1968349   -3.5819233   -0.7850485  0.00    0.0823921   -0.0362771   -0.0584112
h    -0.0437034   -2.3051859    0.2615934  0.00   -0.0001221   -0.0003230   -0.0049251
    24
 Energy =       0.0831908878
c     1.4897990    2.6111809    0.2286769  0.00    0.0088645    0.0207271    0.0082023
c     0.1600228    2.8623980    0.0516568  0.00   -0.0001757    0.0232623    0.0077824
c    -0.6543549    1.8868998   -0.4332360  0.00   -0.0207621    0.0079156   -0.0005146
c     1.9962927    1.3792390   -0.0762745  0.00    0.0161564   -0.0027076    0.0019502
c     1.1844087    0.3849232   -0.5676921  0.00    0.0033575   -0.0211002   -0.0068174
c    -0.1517733    0.6534114   -0.7435930  0.00   -0.0080051   -0.0109190   -0.0050949
o    -0.3985790    4.0994074    0.3573272  0.00    0.0016055   -0.0061710   -0.0027112
h     0.2686601    4.7487003    0.7505088  0.00   -0.0004826   -0.0079765   -0.0017302
h    -0.8379501   -0.0948073   -1.1265301  0.00   -0.0022318    0.0018124   -0.0005989
h     3.0583115    1.1946626    0.0781622  0.00    0.0013399   -0.0001092   -0.0000270
h     2.1488284    3.3836284    0.6135995  0.00    0.0013877    0.0005854    0.0002663
h    -1.7102727    2.1018548   -0.5675876  0.00   -0.0014699   -0.0007943   -0.0003339
c     1.8214559   -0.9686219   -0.8525704  0.00    0.0023265   -0.0009559   -0.0053493
c     0.9606428   -2.0231673   -1.6047189  0.00   -0.0048656    0.0143954    0.0014488
h     2.1681996   -1.4076488    0.1118985  0.00    0.0004665   -0.0013132    0.0023280
h     2.7435491   -0.7727166   -1.4520031  0.00    0.0022178    0.0012997    0.0000600
c     1.8242809   -3.1944267   -2.0595808  0.00    0.0764527   -0.0154863   -0.0133701
o     3.0935319   -3.0303358   -2.4963921  0.00   -0.0616530   -0.0007829    0.0167087
o     1.2446611   -4.4483819   -2.0160818  0.00   -0.1026304    0.0796991    0.0237588
h     1.9574868   -5.1084838   -1.6598407  0.00    0.0218169   -0.0189978    0.0330735
n    -0.1614598   -2.5278182   -0.7645715  0.00   -0.0071675   -0.0276128   -0.0050585
h     0.5524519   -1.5835845   -2.5414426  0.00   -0.0014216   -0.0004079    0.0016641
h    -0.1388359   -3.5816273   -0.7647440  0.00    0.0746392   -0.0347001   -0.0529106
h    -0.0335299   -2.2602594    0.2377356  0.00    0.0002342    0.0003375   -0.0027266
    24
 Energy =       0.0780457040
c     1.4273989    2.6241006    0.1992313  0.00    0.0073765    0.0165950    0.0066605
c     0.0996393    2.8566252   -0.0082667  0.00   -0.0001771    0.0183581    0.0062199
c    -0.6917156    1.8641889   -0.4924001  0.00   -0.0168724    0.0065100   -0.0003474
c     1.9548079    1.3959569   -0.0761449  0.00    0.0132535   -0.0023985    0.0015164
c     1.1662841    0.3860035   -0.5679112  0.00    0.0027399   -0.0169522   -0.0054573
c    -0.1682890    0.6341195   -0.7740794  0.00   -0.0066723   -0.0089533   -0.0041444
o    -0.4797651    4.0942574    0.2637193  0.00    0.0003734   -0.0045464   -0.0022685
h     0.1735370    4.7670417    0.6434725  0.00   -0.0000318   -0.0056730   -0.0011140
h    -0.8366066   -0.1289090   -1.1597379  0.00   -0.0019730    0.0012256   -0.0004996
h     3.0158229    1.2270781    0.1026876  0.00    0.0014989   -0.0001996    0.0000348
h     2.0686895    3.4108216    0.5851897  0.00    0.0013006    0.0006386    0.0003083
h    -1.7472185    2.0647515   -0.6515239  0.00   -0.0015868   -0.0004938   -0.0003043
c     1.8261375   -0.9640064   -0.8183997  0.00    0.0022058   -0.0007388   -0.0042762
c     0.9959272   -2.0403399   -1.5752116  0.00   -0.0037050    0.0111889    0.0012464
h     2.1560993   -1.3857372    0.1595099  0.00    0.0005668   -0.0011162    0.0022000
h     2.7588910   -0.7648961   -1.3997618  0.00    0.0019789    0.0009431   -0.0001061
c     1.8907236   -3.1982271   -2.0069916  0.00    0.0611983   -0.0112667   -0.0106589
o     3.1645581   -3.0003710   -2.4426195  0.00   -0.0481350   -0.0003348    0.0131708
o     1.3592791   -4.4740256   -1.9352374  0.00   -0.0883675    0.0662005    0.0175714
h     2.1162399   -5.1212912   -1.6601941  0.00    0.0222749   -0.0191566    0.0284155
n    -0.1336652   -2.5503624   -0.7485852  0.00   -0.0097126   -0.0152704   -0.0190774
h     0.5980099   -1.6159378   -2.5236771  0.00   -0.0012597   -0.0003329    0.0010875
h    -0.0365160   -3.6034175   -0.6462617  0.00    0.0623661   -0.0411825   -0.0424997
h    -0.0924415   -2.1729975    0.2358998  0.00    0.0013596    0.0069561    0.0123220
    24
 Energy =       0.0713881421
c     1.3655439    2.6213554    0.2341846  0.00    0.0052881    0.0119692    0.0047086
c     0.0351739    2.8277544    0.0257312  0.00    0.0000383    0.0128630    0.0042755
c    -0.7301844    1.8264733   -0.4763023  0.00   -0.0120822    0.0047403   -0.0002911
c     1.9212243    1.4120052   -0.0578134  0.00    0.0095675   -0.0018142    0.0011180
c     1.1584815    0.3943170   -0.5667004  0.00    0.0012638   -0.0116073   -0.0040131
c    -0.1789688    0.6147123   -0.7742524  0.00   -0.0047960   -0.0066895   -0.0029879
o    -0.5729354    4.0495284    0.3169276  0.00   -0.0003502   -0.0026789   -0.0015202
h     0.0625995    4.7347593    0.7070641  0.00    0.0001814   -0.0035652   -0.0005576
h    -0.8278683   -0.1576777   -1.1742878  0.00   -0.0015336    0.0005074   -0.0004809
h     2.9856345    1.2648584    0.1192733  0.00    0.0013150   -0.0002380    0.0000546
h     1.9870168    3.4165877    0.6346820  0.00    0.0010870    0.0007283    0.0003410
h    -1.7891542    2.0061653   -0.6360968  0.00   -0.0013444   -0.0002611   -0.0002338
c     1.8541880   -0.9307742   -0.8549318  0.00    0.0010362   -0.0005710   -0.0034425
c     1.0222921   -2.0364100   -1.5667808  0.00   -0.0021290    0.0076090    0.0002495
h     2.2510220   -1.3424982    0.1040759  0.00    0.0013272   -0.0018252    0.0034713
h     2.7474909   -0.6971828   -1.4865092  0.00    0.0034509    0.0013258   -0.0013668
c     1.9254358   -3.1772111   -2.0235266  0.00    0.0414923   -0.0076286   -0.0060870
o     3.1903292   -2.9475763   -2.4990138  0.00   -0.0320728    0.0000997    0.0081378
o     1.4224194   -4.4664351   -1.9732087  0.00   -0.0724721    0.0545160    0.0106458
h     2.2095920   -5.1172695   -1.8189472  0.00    0.0243799   -0.0210481    0.0226301
n    -0.0697822   -2.5489135   -0.6929830  0.00   -0.0091049   -0.0108658   -0.0155948
h     0.5836029   -1.6315756   -2.5071432  0.00   -0.0013401    0.0001967   -0.0000943
h     0.0012433   -3.6059230   -0.6298389  0.00    0.0461928   -0.0318429   -0.0312488
h     0.0314309   -2.2046433    0.2991039  0.00    0.0006049    0.0060804    0.0122866
    24
 Energy =       0.0671886324
c     1.3074516    2.6092009    0.2855001  0.00    0.0037892    0.0090446    0.0034675
c    -0.0269907    2.7906797    0.0863134  0.00    0.0001296    0.0091888    0.0029731
c    -0.7703365    1.7843001   -0.4346961  0.00   -0.0089893    0.0037680   -0.0002048
c     1.8891421    1.4206998   -0.0348630  0.00    0.0071874   -0.0016046    0.0008041
c     1.1482796    0.3986662   -0.5623369  0.00    0.0002980   -0.0081202   -0.0029687
c    -0.1935609    0.5930522   -0.7604490  0.00   -0.0034384   -0.0053163   -0.0022919
o    -0.6612150    3.9933218    0.4075662  0.00   -0.0009405   -0.0010781   -0.0008989
h    -0.0403977    4.6866826    0.8084390  0.00    0.0002296   -0.0022329   -0.0002291
h    -0.8261470   -0.1853236   -1.1747403  0.00   -0.0011704    0.0000562   -0.0004842
h     2.9577006    1.2943594    0.1326418  0.00    0.0012379   -0.0003103    0.0000533
h     1.9119650    3.4096247    0.7011196  0.00    0.0008831    0.0007796    0.0003533
h    -1.8335438    1.9439287   -0.5868134  0.00   -0.0012090   -0.0000546   -0.0001713
c     1.8751999   -0.8992664   -0.8979062  0.00    0.0003985   -0.0008873   -0.0029738
c     1.0441594   -2.0268594   -1.5750062  0.00   -0.0012184    0.0058070   -0.0002846
h     2.3331470   -1.3060729    0.0367510  0.00    0.0018526   -0.0022563    0.0041353
h     2.7276939   -0.6302299   -1.5721083  0.00    0.0042603    0.0014950   -0.0022444
c     1.9583651   -3.1399412   -2.0781681  0.00    0.0253738   -0.0061987   -0.0007447
o     3.1857552   -2.8598608   -2.6453327  0.00   -0.0161915    0.0017947    0.0019208
o     1.5056155   -4.4484978   -2.0203923  0.00   -0.0623272    0.0447737    0.0066743
h     2.3219868   -5.0790902   -1.9777003  0.00    0.0258624   -0.0214903    0.0176039
n    -0.0008656   -2.5584502   -0.6554243  0.00   -0.0089597   -0.0085712   -0.0119345
h     0.5579727   -1.6319710   -2.4973197  0.00   -0.0015927    0.0007291   -0.0010791
h     0.0624393   -3.6155080   -0.6199479  0.00    0.0343736   -0.0242225   -0.0229202
h     0.1520111   -2.2390187    0.3375801  0.00    0.0001608    0.0049066    0.0114444
    24
 Energy =       0.0662874177
c     1.2823597    2.6179135    0.2822549  0.00    0.0037621    0.0088948    0.0034209
c    -0.0521812    2.7883406    0.0741806  0.00    0.0001246    0.0090015    0.0029123
c    -0.7834390    1.7762591   -0.4529034  0.00   -0.0088686    0.0036851   -0.0002153
c     1.8760853    1.4346983   -0.0350997  0.00    0.0071095   -0.0015679    0.0008035
c     1.1473285    0.4068648   -0.5679417  0.00    0.0003041   -0.0079663   -0.0029396
c    -0.1944309    0.5902757   -0.7759690  0.00   -0.0034226   -0.0052613   -0.0022651
o    -0.6987025    3.9854479    0.3921383  0.00   -0.0010368   -0.0010177   -0.0008903
h    -0.0866037    4.6835887    0.7982597  0.00    0.0002806   -0.0021022   -0.0001806
h    -0.8171334   -0.1930350   -1.1959187  0.00   -0.0011956   -0.0000047   -0.0004935
h     2.9446247    1.3172336    0.1391556  0.00    0.0012766   -0.0003088    0.0000618
h     1.8773661    3.4230616    0.7025192  0.00    0.0009061    0.0008120    0.0003722
h    -1.8468828    1.9271214   -0.6122702  0.00   -0.0012496   -0.0000484   -0.0001791
c     1.8883695   -0.8832775   -0.9016774  0.00    0.0003566   -0.0006545   -0.0027458
c     1.0684616   -2.0275404   -1.5643872  0.00   -0.0016876    0.0054070   -0.0003831
h     2.3593283   -1.2780344    0.0317779  0.00    0.0018945   -0.0022720    0.0041370
h     2.7318860   -0.6073119   -1.5840339  0.00    0.0042058    0.0016992   -0.0021540
c     1.9869049   -3.1485152   -2.0406874  0.00    0.0192101   -0.0049377    0.0023491
o     3.2758320   -2.8914605   -2.4865796  0.00   -0.0049002    0.0055659   -0.0019331
o     1.4839209   -4.4437289   -2.0678963  0.00   -0.0665627    0.0391906    0.0068326
h     2.2801769   -5.0989953   -2.0075211  0.00    0.0262998   -0.0215796    0.0174321
n     0.0211741   -2.5484599   -0.6424806  0.00   -0.0095010   -0.0069604   -0.0132343
h     0.5856788   -1.6509441   -2.4962077  0.00   -0.0015937    0.0007588   -0.0012302
h     0.0480092   -3.6090794   -0.6430677  0.00    0.0336528   -0.0258172   -0.0225242
h     0.2076944   -2.2659965    0.3570618  0.00    0.0006351    0.0054838    0.0130468
    24
 Energy =       0.0647373980
c     1.2160594    2.6121011    0.3272671  0.00    0.0034278    0.0080923    0.0031240
c    -0.1226290    2.7532205    0.1246564  0.00    0.0000931    0.0078846    0.0025286
c    -0.8307657    1.7301964   -0.4121562  0.00   -0.0081341    0.0034415   -0.0001942
c     1.8370889    1.4476756   -0.0058962  0.00    0.0065871   -0.0015506    0.0007161
c     1.1319144    0.4096003   -0.5495349  0.00    0.0003769   -0.0070699   -0.0025858
c    -0.2145262    0.5626123   -0.7506059  0.00   -0.0031630   -0.0048623   -0.0021119
o    -0.7967822    3.9313977    0.4585807  0.00   -0.0015238   -0.0003891   -0.0007053
h    -0.2005245    4.6401806    0.8704958  0.00    0.0003817   -0.0015476   -0.0000072
h    -0.8193512   -0.2310286   -1.1774502  0.00   -0.0012206   -0.0001377   -0.0005216
h     2.9088714    1.3539458    0.1636703  0.00    0.0014334   -0.0003378    0.0000906
h     1.7927651    3.4263146    0.7557052  0.00    0.0009165    0.0009141    0.0004274
h    -1.8981486    1.8574944   -0.5665884  0.00   -0.0014014    0.0000450   -0.0001835
c     1.9037510   -0.8566533   -0.9051065  0.00    0.0005757   -0.0007292   -0.0023656
c     1.1113281   -2.0104326   -1.5846906  0.00   -0.0011040    0.0053754   -0.0008952
h     2.3874554   -1.2538289    0.0201417  0.00    0.0017194   -0.0021096    0.0036839
h     2.7379907   -0.5489924   -1.5851312  0.00    0.0040820    0.0016600   -0.0021807
c     2.0545631   -3.0981902   -2.0892212  0.00    0.0165333   -0.0027567    0.0023454
o     3.3534431   -2.8075880   -2.4884037  0.00   -0.0022847    0.0058436   -0.0022771
o     1.5686988   -4.3972878   -2.1904247  0.00   -0.0598378    0.0319206    0.0055631
h     2.3711404   -5.0437833   -2.1662742  0.00    0.0235463   -0.0199117    0.0153724
n     0.0828895   -2.5741928   -0.6663003  0.00   -0.0095108   -0.0050583   -0.0122586
h     0.6137140   -1.6288396   -2.5065485  0.00   -0.0014007    0.0007974   -0.0012207
h     0.1079853   -3.6346425   -0.7141020  0.00    0.0293393   -0.0245341   -0.0196025
h     0.2888961   -2.3348532    0.3406240  0.00    0.0005684    0.0050202    0.0132583
    24
 Energy =       0.0615930587
c     1.1874911    2.5989782    0.3630625  0.00    0.0023093    0.0065774    0.0024754
c    -0.1525246    2.7261964    0.1649131  0.00    0.0002519    0.0058417    0.0018608
c    -0.8442542    1.7099994   -0.4035917  0.00   -0.0062673    0.0027434   -0.0001197
c     1.8260599    1.4554061   -0.0054611  0.00    0.0051917   -0.0014014    0.0005123
c     1.1365310    0.4235724   -0.5777575  0.00   -0.0010696   -0.0051712   -0.0020046
c    -0.2106688    0.5636639   -0.7777664  0.00   -0.0020851   -0.0044095   -0.0017822
o    -0.8441120    3.8843377    0.5352471  0.00   -0.0017574    0.0004606   -0.0002933
h    -0.2592049    4.5903524    0.9686505  0.00    0.0003864   -0.0006743    0.0002606
h    -0.8031303   -0.2252275   -1.2301401  0.00   -0.0010418   -0.0005807   -0.0005871
h     2.8994552    1.3736277    0.1582344  0.00    0.0011694   -0.0003692    0.0000432
h     1.7515897    3.4089955    0.8156051  0.00    0.0007437    0.0010499    0.0004952
h    -1.9130993    1.8260185   -0.5548546  0.00   -0.0011257    0.0000733   -0.0001106
c     1.9283786   -0.8147338   -0.9870452  0.00   -0.0010717    0.0008854   -0.0016401
c     1.1219824   -2.0095946   -1.5773954  0.00    0.0006670    0.0032927   -0.0033375
h     2.5039243   -1.1831433   -0.0984572  0.00    0.0040098   -0.0030478    0.0067331
h     2.6922106   -0.4859562   -1.7413120  0.00    0.0066205    0.0032481   -0.0048447
c     2.0486097   -3.1083192   -2.0853684  0.00    0.0111667   -0.0012981    0.0022720
o     3.3693873   -2.8449093   -2.4341063  0.00    0.0005854    0.0052191   -0.0022854
o     1.5325287   -4.3918215   -2.2367565  0.00   -0.0482344    0.0238949    0.0039530
h     2.3193699   -5.0515351   -2.2771390  0.00    0.0197789   -0.0170796    0.0114283
n     0.1468942   -2.5414696   -0.5841717  0.00   -0.0131691   -0.0055499   -0.0116880
h     0.5745817   -1.6746461   -2.4910001  0.00   -0.0018880    0.0010850   -0.0029923
h     0.1261780   -3.5997926   -0.6473108  0.00    0.0228433   -0.0200867   -0.0155952
h     0.4476492   -2.3255732    0.4066276  0.00    0.0019860    0.0052968    0.0172468
    24
 Energy =       0.0599819417
c     1.2024886    2.5870079    0.3871835  0.00    0.0018326    0.0052596    0.0019803
c    -0.1404163    2.7136539    0.2116468  0.00    0.0001268    0.0045438    0.0014155
c    -0.8380846    1.7038688   -0.3591543  0.00   -0.0050888    0.0023491   -0.0000651
c     1.8382241    1.4510560   -0.0068698  0.00    0.0042498   -0.0012866    0.0003730
c     1.1424220    0.4256820   -0.5813214  0.00   -0.0009929   -0.0040581   -0.0014784
c    -0.2077671    0.5651322   -0.7582140  0.00   -0.0016664   -0.0035838   -0.0014557
o    -0.8285853    3.8656108    0.6075176  0.00   -0.0016932    0.0006792   -0.0001512
h    -0.2384597    4.5687417    1.0386313  0.00    0.0003128   -0.0004869    0.0002272
h    -0.8056584   -0.2192168   -1.2106634  0.00   -0.0008175   -0.0005284   -0.0004848
h     2.9143719    1.3703887    0.1377925  0.00    0.0011115   -0.0003615    0.0000401
h     1.7714380    3.3923278    0.8414622  0.00    0.0005933    0.0008463    0.0003991
h    -1.9093822    1.8191545   -0.4921380  0.00   -0.0010548    0.0001250   -0.0000908
c     1.9293947   -0.8035690   -1.0257117  0.00   -0.0009095    0.0007493   -0.0013042
c     1.1080060   -2.0055217   -1.5781839  0.00    0.0014839    0.0031690   -0.0033200
h     2.5453429   -1.1667122   -0.1631766  0.00    0.0037599   -0.0026405    0.0061638
h     2.6567540   -0.4692838   -1.8115798  0.00    0.0059832    0.0027863   -0.0045341
c     2.0144367   -3.1022515   -2.1246360  0.00    0.0093293    0.0005467    0.0019005
o     3.3458811   -2.8554960   -2.4452066  0.00    0.0011368    0.0048237   -0.0019055
o     1.4732315   -4.3677413   -2.3363745  0.00   -0.0408640    0.0181910    0.0025396
h     2.2458364   -5.0350565   -2.4358922  0.00    0.0174142   -0.0156704    0.0088865
n     0.1769420   -2.5350582   -0.5432432  0.00   -0.0124297   -0.0048948   -0.0093723
h     0.5219527   -1.6774397   -2.4701817  0.00   -0.0019881    0.0010336   -0.0031422
h     0.1415924   -3.5912177   -0.6117008  0.00    0.0182542   -0.0160958   -0.0121741
h     0.5258663   -2.3296337    0.4327202  0.00    0.0019166    0.0045042    0.0155530
    24
 Energy =       0.0593960831
c     1.2221818    2.5739515    0.4143948  0.00    0.0017762    0.0046373    0.0017809
c    -0.1248345    2.6989079    0.2711987  0.00   -0.0000468    0.0038931    0.0011784