    27
 Energy =       3.2250077631
c    -1.4235396    2.6054793   -0.0667700  0.00   -0.0462676    0.0382490    0.0027691
c    -1.3072796    1.2134697   -0.1072300  0.00   -0.0853794   -0.0325946    0.0020418
c    -0.0178900    0.6711998   -0.1697000  0.00   -0.0890997   -0.1875013   -0.0012350
c    -0.2940599    3.4190890   -0.0891300  0.00   -0.0232328    0.0690530    0.0029429
c     0.9872197    2.8590292   -0.1560400  0.00    0.0105514    0.0640694    0.0010102
c     1.1340797    1.4562096   -0.1970299  0.00    0.0528196    0.0521593    0.0020224
n     0.3879399   -0.6395298   -0.2140799  0.00    0.1522415    0.1040691   -0.0035499
c     2.2666594    0.5727398   -0.2659299  0.00    0.1679246   -0.0933648   -0.0158803
c     1.7555995   -0.7123598   -0.2706899  0.00    0.3366638   -0.3447916   -0.0309569
h    -0.2400399   -1.4313496   -0.2047299  0.00    0.0364149    0.0487446   -0.0006696
c     3.7030089    1.0223397   -0.3320099  0.00   -0.0091307   -0.0233245   -0.0060680
c     4.7465686   -0.0024900    0.1378100  0.00    0.0302233    0.0367345    0.0288229
h     3.7978489    1.9290294    0.2803699  0.00    0.0108418   -0.0185032    0.0100303
h     3.9233889    1.3348996   -1.3618196  0.00   -0.0014035    0.0016968    0.0148223
c     4.0794588   -1.3874696    0.2290469  0.00   -0.8287599   -0.2238713   -0.4051243
n     5.3279785    0.3096829    1.4916396  0.00   -0.3808974   -1.0955638    0.4135310
h     5.5718884   -0.0881456   -0.5788308  0.00   -0.0028681    0.0046988    0.0300927
h     6.3461082    0.3524679    1.3790696  0.00   -0.0445438   -0.0011040   -0.0061206
h     5.0660386    1.2734096    1.7272095  0.00   -0.0090161   -0.0265320   -0.0387647
h    -2.4108593    3.0588691   -0.0157800  0.00   -0.0008827    0.0003094    0.0000248
h    -2.1896094    0.5822398   -0.0890100  0.00   -0.0036651    0.0038406    0.0000372
h    -0.4052699    4.5000487   -0.0535400  0.00    0.0008783    0.0003508    0.0002784
h     1.8590495    3.5066790   -0.1715100  0.00   -0.0005079    0.0026638    0.0006943
h     2.2327294   -1.6813195   -0.3062999  0.00   22.5886889   -4.7412247   -6.4111771
o     3.4941490   -1.9546894   -0.6784688  0.00  -22.3350252    5.1575159    6.8312270
o     4.2233188   -1.9215295    1.4718896  0.00    0.0633844    0.1164510    0.0100714
h     4.7138487   -1.2329896    1.9913994  0.00    0.4100474    1.0877696   -0.4308724
    27
 Energy =       2.6728161142
c    -1.4046251    2.6113028   -0.1344672  0.00   -0.0364560    0.0302677    0.0021844
c    -1.2950771    1.2260516   -0.1588604  0.00   -0.0676595   -0.0263020    0.0016101
c    -0.0203275    0.6793208   -0.2322120  0.00   -0.0685848   -0.1424797   -0.0037037
c    -0.2742436    3.4138627   -0.1692187  0.00   -0.0184310    0.0546438    0.0024305
c     0.9955557    2.8463386   -0.2351296  0.00    0.0083870    0.0508201    0.0009590
c     1.1236725    1.4529386   -0.2716006  0.00    0.0411418    0.0416955    0.0016963
n     0.3641803   -0.6488390   -0.1878612  0.00    0.1167407    0.0776160    0.0014814
c     2.2449589    0.5841710   -0.3213120  0.00    0.1283455   -0.0773370   -0.0132410
c     1.7420167   -0.6974669   -0.3347152  0.00    0.2778895   -0.2749559   -0.0297408
h    -0.2651892   -1.4481060   -0.1068340  0.00    0.0263661    0.0353782    0.0006965
c     3.6918251    1.0441336   -0.2586017  0.00   -0.0049942   -0.0223484   -0.0026066
c     4.7339698   -0.0071490    0.1948511  0.00    0.0240363    0.0272205    0.0244634
h     3.7265074    1.9028310    0.4391230  0.00    0.0095331   -0.0098383    0.0119061
h     3.9790825    1.4551825   -1.2476077  0.00    0.0011470    0.0042311    0.0050002
c     4.0857306   -1.3802006    0.2791611  0.00   -0.6565958   -0.1729952   -0.3085554
n     5.3325343    0.2768245    1.5326952  0.00   -0.3119370   -0.8942785    0.3322011
h     5.5441047   -0.0901875   -0.5456258  0.00   -0.0020078    0.0036115    0.0236882
h     6.3544422    0.3253976    1.4090298  0.00   -0.0351977   -0.0009449   -0.0049745
h     5.0692314    1.2301905    1.8240122  0.00   -0.0075748   -0.0190408   -0.0298197
h    -2.3888216    3.0704809   -0.0768909  0.00   -0.0007490    0.0002471    0.0000175
h    -2.1780588    0.5967532   -0.1092016  0.00   -0.0032920    0.0027209    0.0001084
h    -0.3779422    4.4958450   -0.1404444  0.00    0.0006991    0.0003448    0.0002283
h     1.8738801    3.4849595   -0.2558850  0.00   -0.0004001    0.0021971    0.0005515
h     2.2479109   -1.6488858   -0.3578761  0.00   18.3688020   -3.8578934   -5.2156742
o     3.5287107   -1.9271516   -0.7383836  0.00  -18.1738095    4.1906391    5.5370030
o     4.1766559   -1.9459323    1.5201083  0.00    0.0460773    0.0888851    0.0079391
h     4.7176491   -1.2876559    2.0635829  0.00    0.3385237    0.8878953   -0.3458494
    27
 Energy =       2.0922521689
c    -1.3796709    2.6176712   -0.2281643  0.00   -0.0259435    0.0218164    0.0013498
c    -1.2833152    1.2385477   -0.2310659  0.00   -0.0494058   -0.0191548    0.0014142
c    -0.0233540    0.6794578   -0.2552569  0.00   -0.0459799   -0.1001805   -0.0009271
c    -0.2436179    3.4028610   -0.2461305  0.00   -0.0139953    0.0396878    0.0011476
c     1.0130236    2.8205621   -0.2589829  0.00    0.0071417    0.0364641   -0.0003736
c     1.1162980    1.4359927   -0.2596029  0.00    0.0299003    0.0303558    0.0002192
n     0.3252262   -0.6699926   -0.2589795  0.00    0.0766540    0.0557678   -0.0012359
c     2.2219013    0.5796552   -0.2595033  0.00    0.0941302   -0.0567179   -0.0107123
c     1.7306618   -0.7006742   -0.2853032  0.00    0.2218811   -0.2030876   -0.0191430
h    -0.3214302   -1.4733308   -0.2655871  0.00    0.0146001    0.0209878    0.0019976
c     3.6678890    1.0496759   -0.1871195  0.00   -0.0037833   -0.0158450   -0.0016299
c     4.7287604    0.0081243    0.2603268  0.00    0.0177327    0.0191280    0.0189996
h     3.6929702    1.9133318    0.5057973  0.00    0.0064964   -0.0076051    0.0095292
h     3.9520942    1.4606304   -1.1777472  0.00    0.0012304    0.0037052    0.0043013
c     4.1326896   -1.3774581    0.3286243  0.00   -0.4906583   -0.1250336   -0.2258590
n     5.3099954    0.2944123    1.5966747  0.00   -0.2385225   -0.6800198    0.2477912
h     5.5421080   -0.0465241   -0.4862163  0.00   -0.0013138    0.0022688    0.0169354
h     6.3396842    0.3470054    1.4941764  0.00   -0.0249135   -0.0007681   -0.0036226
h     5.0300294    1.2379430    1.9200859  0.00   -0.0056877   -0.0131726   -0.0208760
h    -2.3605672    3.0895250   -0.2181775  0.00   -0.0014927    0.0010646   -0.0004298
h    -2.1739082    0.6178036   -0.2154806  0.00   -0.0030548    0.0020830    0.0006644
h    -0.3349765    4.4872132   -0.2568264  0.00    0.0003721    0.0012752   -0.0011895
h     1.9011708    3.4457027   -0.2789924  0.00    0.0000654    0.0015948   -0.0010819
h     2.2642301   -1.6367339   -0.3417274  0.00   13.9267559   -2.9257576   -3.9550394
o     3.5723759   -1.9210741   -0.7306357  0.00  -13.7827834    3.1740840    4.1907302
o     4.2222396   -1.9861282    1.5567116  0.00    0.0302868    0.0563493    0.0012459
h     4.6858259   -1.2991895    2.1589382  0.00    0.2602874    0.6807100   -0.2542055
    27
 Energy =       1.7844156526
c    -1.3897010    2.5769917   -0.2537088  0.00   -0.0213784    0.0177315    0.0011336
c    -1.2844193    1.2022205   -0.2864482  0.00   -0.0403837   -0.0161104    0.0013718
c    -0.0258476    0.6527234   -0.2936024  0.00   -0.0367785   -0.0796404    0.0003122
c    -0.2598841    3.3672489   -0.2306096  0.00   -0.0109310    0.0326508    0.0008506
c     0.9960284    2.7931771   -0.2275316  0.00    0.0061539    0.0299095   -0.0004435
c     1.1028103    1.4144422   -0.2532532  0.00    0.0244891    0.0252526    0.0000796
n     0.3260141   -0.7006368   -0.3559311  0.00    0.0593737    0.0440750   -0.0024993
c     2.2106059    0.5774179   -0.2415109  0.00    0.0775608   -0.0457201   -0.0086785
c     1.7390083   -0.7064206   -0.3061947  0.00    0.1861882   -0.1668352   -0.0154929
h    -0.3121333   -1.5137881   -0.4243402  0.00    0.0098962    0.0145685    0.0011686
c     3.6516699    1.0704269   -0.1501407  0.00   -0.0031169   -0.0124804   -0.0013908
c     4.7397912    0.0485766    0.2881757  0.00    0.0147803    0.0157574    0.0157960
h     3.6581000    1.9329881    0.5448730  0.00    0.0051927   -0.0060086    0.0078264
h     3.9315427    1.4915600   -1.1384129  0.00    0.0010615    0.0030519    0.0034466
c     4.1854604   -1.3527284    0.3452298  0.00   -0.4044302   -0.1010944   -0.1850475
n     5.3146470    0.3429942    1.6272119  0.00   -0.1982183   -0.5655819    0.2059148
h     5.5528287    0.0219742   -0.4637434  0.00   -0.0007056    0.0018663    0.0136005
h     6.3461557    0.4164375    1.5298285  0.00   -0.0199430   -0.0005601   -0.0029623
h     5.0122404    1.2768759    1.9660436  0.00   -0.0049104   -0.0101150   -0.0167737
h    -2.3735463    3.0423831   -0.2561842  0.00   -0.0013652    0.0008244   -0.0003446
h    -2.1705191    0.5743475   -0.3135925  0.00   -0.0032515    0.0010772    0.0005196
h    -0.3570310    4.4511473   -0.2190290  0.00    0.0004253    0.0013278   -0.0009742
h     1.8812658    3.4232363   -0.2128576  0.00    0.0006213    0.0016322   -0.0008689
h     2.3001685   -1.6288342   -0.3318242  0.00   11.5702070   -2.4306809   -3.2848836
o     3.6266282   -1.9179772   -0.7272693  0.00  -11.4512122    2.6336797    3.4785217
o     4.2525085   -1.9692007    1.5719421  0.00    0.0240909    0.0447933    0.0001146
h     4.6739414   -1.2725735    2.1927161  0.00    0.2165839    0.5666291   -0.2102966
    27
 Energy =       1.4750565239
c    -1.3805470    2.5635084   -0.3620717  0.00   -0.0170003    0.0132934    0.0009406
c    -1.2750927    1.1931310   -0.4108099  0.00   -0.0315097   -0.0125171    0.0013219
c    -0.0224818    0.6438442   -0.3899523  0.00   -0.0287850   -0.0615517    0.0007810
c    -0.2523679    3.3496724   -0.2956625  0.00   -0.0082123    0.0254119    0.0006384
c     0.9984030    2.7742079   -0.2620119  0.00    0.0051859    0.0230034   -0.0004185
c     1.0997316    1.4007565   -0.3026704  0.00    0.0183020    0.0197946   -0.0000817
n     0.3232350   -0.7144340   -0.4582500  0.00    0.0425750    0.0346721   -0.0030847
c     2.2024343    0.5729306   -0.2476952  0.00    0.0594928   -0.0362232   -0.0071000
c     1.7385764   -0.7099856   -0.3314317  0.00    0.1455807   -0.1261982   -0.0134418
h    -0.3113689   -1.5301993   -0.5643482  0.00    0.0067823    0.0103654    0.0006495
c     3.6395423    1.0770444   -0.0779707  0.00   -0.0008110   -0.0100213   -0.0006203
c     4.7405997    0.0667951    0.3720261  0.00    0.0116755    0.0122607    0.0123933
h     3.6033746    1.9246134    0.6360719  0.00    0.0041143   -0.0037733    0.0068086
h     3.9517003    1.5288400   -1.0447096  0.00    0.0014238    0.0026950    0.0016115
c     4.2220661   -1.3468949    0.4190360  0.00   -0.3173052   -0.0769348   -0.1437537
n     5.2988319    0.3740801    1.7176190  0.00   -0.1577644   -0.4502790    0.1641708
h     5.5601731    0.0564442   -0.3764068  0.00   -0.0003549    0.0014237    0.0104093
h     6.3323000    0.4702964    1.6333480  0.00   -0.0148362   -0.0003107   -0.0022428
h     4.9697833    1.2970547    2.0686995  0.00   -0.0040919   -0.0070927   -0.0125955
h    -2.3636345    3.0297368   -0.3855933  0.00   -0.0013294    0.0006071   -0.0002623
h    -2.1596887    0.5652808   -0.4723457  0.00   -0.0030269    0.0005064    0.0003901
h    -0.3480760    4.4333191   -0.2697295  0.00    0.0004357    0.0011482   -0.0007502
h     1.8843018    3.4019033   -0.2068102  0.00    0.0012246    0.0016754   -0.0006342
h     2.3177346   -1.6353873   -0.2654347  0.00    9.2047177   -1.9371404   -2.6096988
o     3.6671981   -1.9298403   -0.6699037  0.00   -9.1069276    2.0902955    2.7616412
o     4.2549465   -1.9713574    1.6441276  0.00    0.0181285    0.0336189   -0.0003693
h     4.6366585   -1.2703507    2.2827160  0.00    0.1723160    0.4512708   -0.1667022
    27
 Energy =       1.0613394332
c    -1.3789753    2.5722117   -0.4565350  0.00   -0.0110371    0.0077641    0.0003966
c    -1.2810887    1.2056825   -0.4755629  0.00   -0.0200519   -0.0065869    0.0007137
c    -0.0421251    0.6485643   -0.3776955  0.00   -0.0153666   -0.0364485    0.0000614
c    -0.2505198    3.3468151   -0.3444896  0.00   -0.0056912    0.0156313    0.0001494
c     0.9877425    2.7618191   -0.2390998  0.00    0.0049556    0.0128456   -0.0005249
c     1.0730229    1.3940578   -0.2499402  0.00    0.0126292    0.0110033   -0.0008702
n     0.2869333   -0.7206142   -0.4114652  0.00    0.0248484    0.0188133   -0.0023258
c     2.1621254    0.5741470   -0.1509040  0.00    0.0359374   -0.0220509   -0.0040434
c     1.7051034   -0.7056005   -0.2472581  0.00    0.0947708   -0.0760140   -0.0057904
h    -0.3481322   -1.5391767   -0.5232503  0.00    0.0040079    0.0060017    0.0000485
c     3.5992965    1.0856255    0.0146980  0.00   -0.0032024   -0.0054454   -0.0006392
c     4.7448076    0.0740492    0.3722764  0.00    0.0054145    0.0060735    0.0063609
h     3.5605447    1.8963457    0.7730455  0.00    0.0012869   -0.0007166    0.0049535
h     3.8765552    1.5959938   -0.9361221  0.00    0.0012178    0.0028254   -0.0009388
c     4.2763606   -1.3543640    0.4080401  0.00   -0.2013472   -0.0486811   -0.0902340
n     5.3819045    0.3620402    1.6870340  0.00   -0.1062185   -0.3061225    0.1114709
h     5.5149961    0.1025497   -0.4338841  0.00    0.0021444    0.0009178    0.0040770
h     6.4087983    0.5065205    1.5396885  0.00   -0.0038944    0.0000873   -0.0020068
h     5.0321400    1.2509298    2.1153195  0.00   -0.0052511    0.0008056   -0.0047490
h    -2.3564158    3.0458709   -0.5443464  0.00   -0.0027135    0.0011551   -0.0008569
h    -2.1650702    0.5822901   -0.5783629  0.00   -0.0026872    0.0001324   -0.0003246
h    -0.3377176    4.4315032   -0.3454205  0.00   -0.0000983    0.0010517   -0.0009377
h     1.8772772    3.3810087   -0.1560980  0.00    0.0013745    0.0009140   -0.0006879
h     2.3047520   -1.6216870   -0.2755931  0.00    6.1113441   -1.2896283   -1.7351045
o     3.6974390   -1.9252710   -0.6920879  0.00   -6.0472232    1.3854898    1.8297123
o     4.3104066   -2.0094775    1.6225728  0.00    0.0104157    0.0192449    0.0000653
h     4.6881728   -1.3268241    2.2852768  0.00    0.1144355    0.3009368   -0.1079751
    27
 Energy =       0.7569438780
c    -1.3510694    2.6209081   -0.5242330  0.00   -0.0072579    0.0037009   -0.0000317
c    -1.2769825    1.2564767   -0.5450770  0.00   -0.0120877   -0.0034484    0.0003643
c    -0.0585031    0.6777803   -0.3963932  0.00   -0.0077543   -0.0199207    0.0001622
c    -0.2155344    3.3720544   -0.3598005  0.00   -0.0030956    0.0092090   -0.0001210
c     1.0028141    2.7640034   -0.2061156  0.00    0.0040218    0.0068318   -0.0004799
c     1.0593018    1.3992915   -0.2216753  0.00    0.0080055    0.0058726   -0.0007921
n     0.2397913   -0.7014603   -0.4256621  0.00    0.0127995    0.0097336   -0.0017389
c     2.1276958    0.5691413   -0.0966573  0.00    0.0202613   -0.0125234   -0.0018387
c     1.6577231   -0.7024737   -0.2235726  0.00    0.0578906   -0.0439820   -0.0026213
h    -0.4068950   -1.5106076   -0.5589958  0.00    0.0017266    0.0028350   -0.0001209
c     3.5674545    1.0704089    0.1123073  0.00   -0.0036218   -0.0040706   -0.0005673
c     4.7379140    0.0504543    0.3804097  0.00    0.0007294    0.0018872    0.0016934
h     3.5169106    1.8225221    0.9317986  0.00    0.0000059    0.0024963    0.0048558
h     3.8382062    1.6599531   -0.7970225  0.00    0.0010819    0.0037142   -0.0037350
c     4.2970743   -1.3849480    0.4018226  0.00   -0.1189706   -0.0278402   -0.0524599
n     5.4574606    0.3206558    1.6576896  0.00   -0.0691146   -0.2037113    0.0738955
h     5.4548986    0.1021686   -0.4762293  0.00    0.0030039    0.0002736    0.0002145
h     6.4633151    0.5488031    1.4418701  0.00    0.0071337    0.0011673   -0.0037455
h     5.0734713    1.1524780    2.1760769  0.00   -0.0078872    0.0082492    0.0017658
h    -2.3150239    3.1124163   -0.6511564  0.00   -0.0024628    0.0008780   -0.0008698
h    -2.1660931    0.6485342   -0.6889643  0.00   -0.0023705   -0.0003234   -0.0004789
h    -0.2818929    4.4580458   -0.3580970  0.00   -0.0000240    0.0008230   -0.0008204
h     1.9005160    3.3653466   -0.0839106  0.00    0.0017787    0.0008442   -0.0004976
h     2.2580355   -1.6251417   -0.2793202  0.00    3.8688900   -0.8196462   -1.0999130
o     3.7005699   -1.9378561   -0.7111658  0.00   -3.8301364    0.8760228    1.1548938
o     4.3296448   -2.0742029    1.5999779  0.00    0.0053146    0.0097293    0.0001919
h     4.7175306   -1.4197424    2.2819319  0.00    0.0721401    0.1911982   -0.0672055
    27
 Energy =       0.5889027498
c    -1.3384656    2.6665974   -0.4358181  0.00   -0.0048039    0.0026714   -0.0001422
c    -1.2820909    1.3035137   -0.4959248  0.00   -0.0076941   -0.0027992    0.0001117
c    -0.0749129    0.7049649   -0.3590935  0.00   -0.0049446   -0.0120113    0.0002050
c    -0.1951697    3.3968702   -0.2455040  0.00   -0.0018472    0.0063547   -0.0001776
c     1.0123687    2.7684467   -0.1085182  0.00    0.0026143    0.0049498   -0.0003493
c     1.0496425    1.4053675   -0.1652408  0.00    0.0048379    0.0038411   -0.0005982
n     0.2025842   -0.6789726   -0.4324131  0.00    0.0080121    0.0052456   -0.0012734
c     2.1079110    0.5624417   -0.0777361  0.00    0.0128690   -0.0072100   -0.0008369
c     1.6243894   -0.7003497   -0.2466888  0.00    0.0383116   -0.0291916   -0.0012860
h    -0.4559972   -1.4767705   -0.5829382  0.00    0.0008013    0.0014019   -0.0002541
c     3.5568973    1.0494425    0.1166645  0.00   -0.0033836   -0.0026287   -0.0006346
c     4.7396975    0.0250029    0.3115511  0.00   -0.0008331    0.0004787   -0.0002877
h     3.5277370    1.7698258    0.9642687  0.00   -0.0003846    0.0023390    0.0038538
h     3.8052437    1.6742121   -0.7742974  0.00    0.0006350    0.0029327   -0.0030923
c     4.3084500   -1.4118422    0.3251942  0.00   -0.0779455   -0.0180398   -0.0341696
n     5.5258981    0.2841926    1.5505799  0.00   -0.0489789   -0.1486569    0.0519877
h     5.4108400    0.0903066   -0.5817838  0.00    0.0028827   -0.0000072   -0.0012789
h     6.4983242    0.6017011    1.2831170  0.00    0.0131822    0.0026131   -0.0055698
h     5.1118806    1.0487969    2.1498455  0.00   -0.0100080    0.0118874    0.0057076
h    -2.2947976    3.1743260   -0.5502830  0.00   -0.0016957    0.0007496   -0.0006571
h    -2.1776021    0.7110967   -0.6606174  0.00   -0.0017097   -0.0004759   -0.0004571
h    -0.2470224    4.4834568   -0.2097800  0.00    0.0000059    0.0012405   -0.0005227
h     1.9169882    3.3546258    0.0321325  0.00    0.0013123    0.0008410   -0.0002807
h     2.2164218   -1.6288335   -0.3507505  0.00    2.6604661   -0.5664863   -0.7573259
o     3.7012893   -1.9480683   -0.7955230  0.00   -2.6342497    0.6026187    0.7926852
o     4.3385089   -2.1227609    1.5122817  0.00    0.0030820    0.0056002   -0.0000369
h     4.7393196   -1.4925805    2.2071117  0.00    0.0494660    0.1317416   -0.0453201
    27
 Energy =       0.3942626257
c    -1.2805022    2.7576604   -0.4171284  0.00   -0.0024188    0.0008867   -0.0003512
c    -1.2646385    1.3968328   -0.5082044  0.00   -0.0029767   -0.0016025   -0.0001836
c    -0.0821301    0.7587856   -0.3636333  0.00   -0.0013489   -0.0034908    0.0001351
c    -0.1203239    3.4465772   -0.1884096  0.00   -0.0001632    0.0029046   -0.0001628
c     1.0624619    2.7783514   -0.0474812  0.00    0.0015630    0.0022330   -0.0001196
c     1.0576335    1.4183665   -0.1382466  0.00    0.0020450    0.0009689   -0.0001985
n     0.1494618   -0.6337405   -0.4613030  0.00    0.0017943    0.0006518   -0.0005611
c     2.0891634    0.5478681   -0.0640243  0.00    0.0044703   -0.0014949    0.0000748
c     1.5715843   -0.6974976   -0.2707674  0.00    0.0150692   -0.0111202   -0.0007784
h    -0.5329713   -1.4093251   -0.6301991  0.00   -0.0005679   -0.0004628   -0.0002703
c     3.5506290    1.0026312    0.1481946  0.00   -0.0009838   -0.0007063   -0.0002380
c     4.7330877   -0.0294023    0.2936718  0.00   -0.0007374    0.0001581   -0.0005568
h     3.5349157    1.6889738    1.0214757  0.00   -0.0001164    0.0014396    0.0016484
h     3.8024244    1.6606298   -0.7150129  0.00    0.0001160    0.0013031   -0.0015523
c     4.3064253   -1.4677073    0.2867489  0.00   -0.0273312   -0.0045649   -0.0128099
n     5.5669288    0.2290566    1.4978614  0.00   -0.0256945   -0.0833636    0.0220574
h     5.3699271    0.0465960   -0.6223844  0.00    0.0012581   -0.0002685   -0.0009924
h     6.4841059    0.6698967    1.2024700  0.00    0.0170070    0.0049015   -0.0066969
h     5.1093968    0.8900438    2.1873322  0.00   -0.0113995    0.0140745    0.0105691
h    -2.2182597    3.2970572   -0.5348369  0.00   -0.0010683    0.0005026   -0.0004817
h    -2.1742518    0.8355010   -0.7009110  0.00   -0.0012595   -0.0007055   -0.0004127
h    -0.1392511    4.5330988   -0.1252629  0.00    0.0001171    0.0013206   -0.0002980
h     1.9814224    3.3336681    0.1222574  0.00    0.0012240    0.0008718   -0.0000522
h     2.1376676   -1.6458288   -0.3861586  0.00    1.2955994   -0.2818434   -0.3697174
o     3.7068345   -1.9759838   -0.8601370  0.00   -1.2866877    0.2942925    0.3814107
o     4.2737809   -2.2053969    1.4607774  0.00   -0.0001922   -0.0006430    0.0009073
h     4.6528111   -1.6117027    2.1931477  0.00    0.0226827    0.0637568   -0.0203690
    27
 Energy =       0.3586887559
c    -1.2832433    2.7709319   -0.2962426  0.00   -0.0021565    0.0015695   -0.0002374
c    -1.2701439    1.4135045   -0.4324389  0.00   -0.0027097   -0.0015053   -0.0002124
c    -0.0859518    0.7697791   -0.3306628  0.00   -0.0010089   -0.0026228    0.0001818
c    -0.1186489    3.4510018   -0.0662251  0.00   -0.0007436    0.0029747   -0.0001641
c     1.0657498    2.7772400    0.0306899  0.00    0.0015594    0.0020649   -0.0000182
c     1.0581493    1.4206183   -0.1048190  0.00    0.0015181    0.0005751   -0.0001587
n     0.1422530   -0.6196161   -0.4783281  0.00    0.0015672   -0.0003440   -0.0005159
c     2.0903770    0.5474317   -0.0783144  0.00    0.0040201   -0.0014053    0.0001450
c     1.5680156   -0.6908962   -0.3176865  0.00    0.0126539   -0.0097829   -0.0006755
h    -0.5442078   -1.3889252   -0.6593571  0.00   -0.0005157   -0.0005396   -0.0002430
c     3.5561673    0.9966879    0.1202356  0.00   -0.0009229   -0.0007093   -0.0002984
c     4.7402281   -0.0377673    0.2287450  0.00   -0.0005956   -0.0000712   -0.0007361
h     3.5549740    1.6651543    1.0072763  0.00   -0.0001690    0.0013633    0.0015634
h     3.7953895    1.6713497   -0.7334514  0.00    0.0000868    0.0011796   -0.0014566
c     4.3091429   -1.4743706    0.2088268  0.00   -0.0215785   -0.0033403   -0.0105653
n     5.5987665    0.2056431    1.4183370  0.00   -0.0200318   -0.0676820    0.0180772
h     5.3587188    0.0499232   -0.6988179  0.00    0.0011376   -0.0002791   -0.0010515
h     6.5012255    0.6648925    1.1133387  0.00    0.0139154    0.0039546   -0.0055379
h     5.1502491    0.8435474    2.1318167  0.00   -0.0094589    0.0117352    0.0089158
h    -2.2225624    3.3149073   -0.3784448  0.00   -0.0013391    0.0008872   -0.0004121
h    -2.1836033    0.8593735   -0.6264675  0.00   -0.0010334   -0.0005893   -0.0003356
h    -0.1355374    4.5351958    0.0334902  0.00   -0.0000899    0.0017476   -0.0002027
h     1.9878664    3.3263668    0.2017084  0.00    0.0009673    0.0007694   -0.0000401
h     2.1267684   -1.6381453   -0.4671391  0.00    1.0520038   -0.2297051   -0.3002666
o     3.7214031   -1.9695599   -0.9503501  0.00   -1.0448736    0.2391674    0.3092644
o     4.2417731   -2.2168974    1.3788807  0.00   -0.0003666   -0.0010393    0.0010721
h     4.6050149   -1.6323611    2.1252359  0.00    0.0181638    0.0516271   -0.0160914
    27
 Energy =       0.3257294632
c    -1.2705126    2.7916099   -0.1749726  0.00   -0.0019181    0.0020698   -0.0001166
c    -1.2664761    1.4392454   -0.3564525  0.00   -0.0024469   -0.0013993   -0.0002376
c    -0.0840236    0.7866565   -0.2979528  0.00   -0.0007308   -0.0018154    0.0002187
c    -0.0987668    3.4581050    0.0560249  0.00   -0.0011613    0.0029818   -0.0001233
c     1.0837015    2.7757128    0.1084592  0.00    0.0015394    0.0018936    0.0000761
c     1.0671145    1.4240869   -0.0719219  0.00    0.0010606    0.0002735   -0.0001161
n     0.1339518   -0.5985521   -0.4964580  0.00    0.0012790   -0.0011570   -0.0004994
c     2.0958176    0.5459489   -0.0940065  0.00    0.0035661   -0.0012266    0.0002223
c     1.5624551   -0.6825987   -0.3670797  0.00    0.0103320   -0.0084254   -0.0005935
h    -0.5601718   -1.3581070   -0.6893849  0.00   -0.0005076   -0.0006359   -0.0002306
c     3.5681866    0.9859918    0.0894256  0.00   -0.0007707   -0.0006677   -0.0003799
c     4.7483612   -0.0550722    0.1635648  0.00   -0.0003524    0.0000692   -0.0012586
h     3.5860471    1.6389574    0.9876155  0.00   -0.0001694    0.0012508    0.0014551
h     3.7973687    1.6731583   -0.7566483  0.00    0.0000460    0.0009789   -0.0012505
c     4.3002441   -1.4843251    0.1299658  0.00   -0.0158175   -0.0009258   -0.0106339
n     5.6284111    0.1653872    1.3413902  0.00   -0.0142099   -0.0529430    0.0140378
h     5.3521033    0.0408528   -0.7727523  0.00    0.0009196   -0.0003065   -0.0009758
h     6.5147393    0.6483020    1.0323447  0.00    0.0110860    0.0031315   -0.0045601
h     5.1865385    0.7738644    2.0815678  0.00   -0.0077288    0.0097098    0.0075692
h    -2.2085013    3.3425858   -0.2214580  0.00   -0.0015272    0.0011693   -0.0003243
h    -2.1860069    0.8960548   -0.5517337  0.00   -0.0008569   -0.0005040   -0.0002714
h    -0.1085556    4.5386837    0.1922433  0.00   -0.0002430    0.0020495   -0.0000949
h     2.0111331    3.3150825    0.2802777  0.00    0.0007652    0.0006815   -0.0000220
h     2.1082501   -1.6320396   -0.5524124  0.00    0.8253696   -0.1816079   -0.2356543
o     3.7335411   -1.9616606   -1.0476732  0.00   -0.8200199    0.1881886    0.2417628
o     4.1552235   -2.2181143    1.3011241  0.00   -0.0012251   -0.0031621    0.0026773
h     4.4781603   -1.6348067    2.0667392  0.00    0.0137219    0.0403288   -0.0106765
    27
 Energy =       0.3212381504
c    -1.2547790    2.7979323   -0.1261560  0.00   -0.0019953    0.0019421   -0.0001339
c    -1.2589437    1.4458598   -0.3084329  0.00   -0.0024928   -0.0012997   -0.0002413
c    -0.0783307    0.7884952   -0.2687878  0.00   -0.0007665   -0.0017508    0.0002041
c    -0.0768397    3.4595824    0.0864715  0.00   -0.0011085    0.0029391   -0.0001036
c     1.1036872    2.7726185    0.1195016  0.00    0.0016209    0.0017758    0.0000845
c     1.0790785    1.4210806   -0.0609269  0.00    0.0010457    0.0002874   -0.0001009
n     0.1302123   -0.5970867   -0.4734437  0.00    0.0009373   -0.0010375   -0.0004847
c     2.1044796    0.5394376   -0.1012552  0.00    0.0033792   -0.0013738    0.0002806
c     1.5605046   -0.6881373   -0.3697682  0.00    0.0102305   -0.0080452   -0.0004705
h    -0.5707012   -1.3531855   -0.6553904  0.00   -0.0005934   -0.0006976   -0.0002445
c     3.5837460    0.9784008    0.0520804  0.00   -0.0005616   -0.0009596   -0.0003536
c     4.7581809   -0.0685594    0.1292738  0.00   -0.0003549    0.0009647   -0.0018954
h     3.6212615    1.6489647    0.9368785  0.00   -0.0001197    0.0014412    0.0017226
h     3.8031435    1.6464840   -0.8120084  0.00    0.0001743    0.0011360   -0.0014831
c     4.2837110   -1.4853301    0.1162472  0.00   -0.0142009    0.0014991   -0.0154172
n     5.6446404    0.1456084    1.3031837  0.00   -0.0124976   -0.0500167    0.0126410
h     5.3590204    0.0106611   -0.8105983  0.00    0.0009661   -0.0002683   -0.0010441
h     6.5410206    0.6047008    0.9869650  0.00    0.0110361    0.0032379   -0.0045034
h     5.2185932    0.7753278    2.0346388  0.00   -0.0076161    0.0097050    0.0076055
h    -2.1912557    3.3525799   -0.1576557  0.00   -0.0015739    0.0011494   -0.0003175
h    -2.1836442    0.9065264   -0.4898675  0.00   -0.0009325   -0.0005164   -0.0002766
h    -0.0801702    4.5400705    0.2231864  0.00   -0.0002298    0.0019709   -0.0000864
h     2.0356771    3.3088648    0.2758735  0.00    0.0008721    0.0006876   -0.0000018
h     2.0960124   -1.6452517   -0.5652407  0.00    0.7848678   -0.1729892   -0.2240202
o     3.7288766   -1.9681127   -1.0648013  0.00   -0.7796547    0.1791091    0.2297128
o     4.0517452   -2.1698209    1.3077713  0.00   -0.0030111   -0.0073890    0.0050285
h     4.3194071   -1.5527015    2.0720973  0.00    0.0125795    0.0384982   -0.0061009
    27
 Energy =       0.3108543676
c    -1.2515064    2.8244715   -0.1357230  0.00   -0.0024247    0.0018689   -0.0001838
c    -1.2565130    1.4782378   -0.3604059  0.00   -0.0026421   -0.0020770   -0.0004043
c    -0.0793244    0.8155817   -0.3141232  0.00   -0.0011137   -0.0020528    0.0000890
c    -0.0761279    3.4750187    0.1255586  0.00   -0.0002552    0.0033632    0.0001104
c     1.1008662    2.7826055    0.1655189  0.00    0.0018264    0.0025154    0.0002503
c     1.0751478    1.4372820   -0.0585614  0.00    0.0013371    0.0003029   -0.0000494
n     0.1295295   -0.5645529   -0.5547040  0.00    0.0005415   -0.0013522   -0.0005614
c     2.0975091    0.5527813   -0.0999745  0.00    0.0027692   -0.0013390    0.0003219
c     1.5568949   -0.6627202   -0.4166821  0.00    0.0094967   -0.0079769   -0.0004602
h    -0.5691744   -1.3128790   -0.7773342  0.00   -0.0014740   -0.0016417   -0.0005186
c     3.5717695    0.9766100    0.1154068  0.00   -0.0001510   -0.0021458   -0.0001875
c     4.7445754   -0.0747764    0.1572301  0.00   -0.0003626    0.0023907   -0.0023014
h     3.5846650    1.5930003    1.0422370  0.00    0.0001825    0.0027580    0.0036847
h     3.8143038    1.6982899   -0.7012516  0.00    0.0007226    0.0028317   -0.0033255
c     4.2865134   -1.5020822    0.0738982  0.00   -0.0121264    0.0030619   -0.0181752