23
UFF-Energy = 0.0895557
C    -5.8276164    2.0271994    0.4846681 
C    -5.7333852    0.6875595    0.6765502 
C    -4.5665697    0.0405738    0.4457115 
C    -4.7448566    2.7656373    0.0556410 
C    -3.5711263    2.0776161   -0.1685936 
C    -3.4941301    0.7374707    0.0244586 
H    -2.6816320    2.5579071   -0.5600875 
H    -2.5671142    0.2074274   -0.1692995 
H    -6.5957965    0.1326796    1.0278011 
H    -6.7762511    2.4846821    0.7415348 
O    -4.4423453   -1.3405702    0.6335911 
H    -5.2905665   -1.7959748    0.9500267 
C    -4.8321842    4.1376840   -0.1411098 
C    -6.0396657    4.7562191   -0.3893721 
C    -6.1174354    6.0952186   -0.5819450 
C    -5.0050158    6.8561569   -0.5306236 
C    -3.8078710    6.2840765   -0.2883871 
C    -3.7154209    4.9458344   -0.0973910 
H    -2.7315782    4.5620854    0.1458302 
H    -2.9153871    6.9022568   -0.2359215 
H    -6.9635596    4.2007222   -0.4985340 
H    -7.0784659    6.5585000   -0.7897403 
H    -5.0731364    7.9298122   -0.6845804 
