    27
 Energy =       0.2764286816
c    -1.4235396    2.6054793   -0.0667700  0.00   -0.0463576    0.0383639    0.0026652
c    -1.3072796    1.2134697   -0.1072300  0.00   -0.0852093   -0.0325816    0.0019669
c    -0.0178900    0.6711998   -0.1697000  0.00   -0.0888345   -0.1883150   -0.0008231
c    -0.2940599    3.4190890   -0.0891300  0.00   -0.0225357    0.0690558    0.0027135
c     0.9872197    2.8590292   -0.1560400  0.00    0.0118133    0.0644530   -0.0001206
c     1.1340797    1.4562096   -0.1970299  0.00    0.0523322    0.0503022    0.0025215
n     0.3879399   -0.6395298   -0.2140799  0.00    0.1426608    0.1100971   -0.0034372
c     2.2666594    0.5727398   -0.2659299  0.00    0.1489493   -0.0841659    0.0098318
c     1.7555995   -0.7123598   -0.2706899  0.00   -0.1009873   -0.0973224    0.0042896
h    -0.2400399   -1.4313496   -0.2047299  0.00    0.0368392    0.0478680   -0.0004908
c     3.7030089    1.0223397   -0.3320099  0.00    0.0111056    0.0056156   -0.0115651
c     4.2197688    1.4064496   -1.7267995  0.00   -0.0413082   -0.1302658    0.0074487
h     4.3261788    0.2093419    0.0639454  0.00   -0.0057192    0.0130964   -0.0072623
h     3.8370289    1.8640295    0.3610799  0.00   -0.0044286   -0.0146253   -0.0048897
c     5.7571784    1.4848496   -1.6848495  0.00    0.2409556    0.2656880    0.1944399
n     3.7117889    2.7395892   -2.2095194  0.00    0.0324021    0.0792500   -0.0786107
h     3.9553389    0.6476998   -2.4727493  0.00    0.0058913    0.0303975    0.0018410
h     4.5251087    3.3576390   -2.2967393  0.00   -0.0062642   -0.0599390    0.0089886
h     3.3908290    2.6178193   -3.1764891  0.00    0.0167775   -0.0015040    0.0330324
h    -2.4108593    3.0588691   -0.0157800  0.00   -0.0007660    0.0002327    0.0000944
h    -2.1896094    0.5822398   -0.0890100  0.00   -0.0035836    0.0037355    0.0001084
h    -0.4052699    4.5000487   -0.0535400  0.00    0.0008415    0.0001241    0.0004753
h     1.8590495    3.5066790   -0.1715100  0.00   -0.0026028    0.0037338    0.0022865
h     2.2327294   -1.6813195   -0.3062999  0.00   -0.0407901   -0.0112604    0.0025137
o     6.4098682    2.2779294   -1.0268797  0.00   -0.1620293   -0.1821138   -0.1664273
o     6.3196482    0.5407488   -2.4866393  0.00   -0.0526095    0.0038487    0.0025604
h     6.8524480   -0.0305666   -1.8748095  0.00   -0.0365423    0.0162309   -0.0041511
    27
 Energy =       0.2207565190
c    -1.3791689    2.5799461   -0.0562745  0.00   -0.0256216    0.0217828    0.0015056
c    -1.2497513    1.2036987   -0.0928476  0.00   -0.0485203   -0.0183570    0.0010834
c     0.0222949    0.6775075   -0.1536053  0.00   -0.0506494   -0.1080268   -0.0006695
c    -0.2640648    3.3946935   -0.0820736  0.00   -0.0127300    0.0390837    0.0016547
c     1.0046434    2.8463917   -0.1463219  0.00    0.0075247    0.0365485    0.0000004
c     1.1403347    1.4670823   -0.1805228  0.00    0.0283002    0.0301045    0.0015331
n     0.4158809   -0.6597272   -0.1944650  0.00    0.0781562    0.0621304   -0.0016048
c     2.2630428    0.6400239   -0.2405824  0.00    0.0868963   -0.0477096    0.0047607
c     1.8126072   -0.6485159   -0.2520897  0.00   -0.0593875   -0.0515871    0.0023388
h    -0.1945140   -1.4845561   -0.1846740  0.00    0.0211204    0.0263620   -0.0002502
c     3.6955351    1.1071517   -0.3028804  0.00    0.0033834    0.0007556   -0.0077265
c     4.1884165    1.3920770   -1.7323326  0.00   -0.0227094   -0.0741915    0.0035005
h     4.3350331    0.3377609    0.1742012  0.00   -0.0014077    0.0048338   -0.0011993
h     3.8089630    2.0227826    0.3135385  0.00   -0.0028112   -0.0032794   -0.0003543
c     5.7168036    1.4580349   -1.7499096  0.00    0.1387296    0.1518988    0.1134260
n     3.6319429    2.6807955   -2.2418464  0.00    0.0178814    0.0460333   -0.0420753
h     3.9011079    0.5686223   -2.4147761  0.00    0.0025620    0.0148664   -0.0010179
h     4.4122733    3.3547753   -2.3564615  0.00   -0.0000094   -0.0335043    0.0051070
h     3.2705904    2.5189691   -3.1999596  0.00    0.0082133   -0.0016767    0.0167562
h    -2.3701708    3.0251021   -0.0070216  0.00   -0.0004618    0.0001806    0.0000569
h    -2.1229606    0.5601400   -0.0728487  0.00   -0.0021281    0.0021074    0.0000659
h    -0.3824427    4.4752426   -0.0532167  0.00    0.0004992    0.0001149    0.0002803
h     1.8776849    3.4921266   -0.1707948  0.00   -0.0010993    0.0017671    0.0013617
h     2.3882010   -1.5677293   -0.2936088  0.00   -0.0202483   -0.0097238    0.0012491
o     6.3976345    2.3055477   -1.0542713  0.00   -0.0936422   -0.1048338   -0.0958877
o     6.3289997    0.5433608   -2.5658665  0.00   -0.0434190    0.0317956   -0.0318314
h     6.6940064   -0.1729405   -1.9284169  0.00   -0.0084215   -0.0174755    0.0279366
    27
 Energy =       0.2119684578
c    -1.3586023    2.5448964   -0.0266055  0.00   -0.0224371    0.0191395    0.0013069
c    -1.2288786    1.1717294   -0.0832963  0.00   -0.0424271   -0.0162576    0.0009768
c     0.0398868    0.6470197   -0.1434345  0.00   -0.0442188   -0.0933980   -0.0001612
c    -0.2442513    3.3581840   -0.0348241  0.00   -0.0110465    0.0342971    0.0013881
c     1.0219224    2.8104315   -0.0997265  0.00    0.0066591    0.0321515   -0.0001420
c     1.1541453    1.4350319   -0.1529784  0.00    0.0247236    0.0265489    0.0012574
n     0.4273969   -0.6939789   -0.2288568  0.00    0.0684510    0.0532962   -0.0018417
c     2.2731620    0.6150878   -0.2271937  0.00    0.0759975   -0.0411194    0.0042704
c     1.8290475   -0.6725218   -0.2683496  0.00   -0.0519386   -0.0448579    0.0023033
h    -0.1841498   -1.5213722   -0.2491608  0.00    0.0180776    0.0224471   -0.0003472
c     3.7062963    1.0808392   -0.3022767  0.00    0.0017580    0.0005723   -0.0061909
c     4.1564562    1.4233286   -1.7352712  0.00   -0.0190003   -0.0666887    0.0028679
h     4.3581182    0.2879352    0.1213984  0.00   -0.0003250    0.0029422   -0.0003784
h     3.8373798    1.9713125    0.3490602  0.00   -0.0025335   -0.0021132    0.0005283
c     5.6819529    1.5115848   -1.7996847  0.00    0.1207992    0.1321328    0.1003363
n     3.5565956    2.7154786   -2.1802101  0.00    0.0143647    0.0422781   -0.0344733
h     3.8652715    0.6149363   -2.4367048  0.00    0.0024811    0.0125266   -0.0011480
h     4.3155473    3.4134116   -2.3098073  0.00    0.0004372   -0.0283928    0.0040979
h     3.1380486    2.5792922   -3.1223338  0.00    0.0057735   -0.0011790    0.0115044
h    -2.3497998    2.9895854    0.0219788  0.00   -0.0004092    0.0001546    0.0000499
h    -2.1018935    0.5273215   -0.0839419  0.00   -0.0020129    0.0016719    0.0000490
h    -0.3619846    4.4384311    0.0080684  0.00    0.0004508    0.0002074    0.0002447
h     1.8960948    3.4550509   -0.1113702  0.00   -0.0008335    0.0015879    0.0010827
h     2.4160601   -1.5833814   -0.3372336  0.00   -0.0175888   -0.0089707    0.0010941
o     6.3738365    2.3849286   -1.1230394  0.00   -0.0810114   -0.0912658   -0.0841413
o     6.2968281    0.6279882   -2.6518646  0.00   -0.0502614    0.0443926   -0.0455953
h     6.8284360   -0.0141874   -2.0322699  0.00    0.0060703   -0.0321035    0.0410613
    27
 Energy =       0.2075015861
c    -1.3516498    2.5531702   -0.0048057  0.00   -0.0207427    0.0175176    0.0012047
c    -1.2202794    1.1803729   -0.0299186  0.00   -0.0388341   -0.0154114    0.0008168
c     0.0461412    0.6570520   -0.1012301  0.00   -0.0399370   -0.0833778   -0.0005623
c    -0.2394267    3.3671801   -0.0510887  0.00   -0.0096899    0.0316871    0.0013032
c     1.0248456    2.8200521   -0.1265010  0.00    0.0062433    0.0297534   -0.0000571
c     1.1562641    1.4457747   -0.1512792  0.00    0.0228607    0.0246545    0.0011887
n     0.4327069   -0.6899941   -0.1267057  0.00    0.0612082    0.0468991   -0.0011357
c     2.2731837    0.6299737   -0.2252890  0.00    0.0699386   -0.0367905    0.0039294
c     1.8351898   -0.6593772   -0.2242637  0.00   -0.0459683   -0.0404303    0.0016894
h    -0.1771690   -1.5218006   -0.0904077  0.00    0.0149763    0.0183811   -0.0001041
c     3.7054826    1.0953932   -0.3238312  0.00    0.0016208    0.0003789   -0.0054804
c     4.1452020    1.4035117   -1.7678265  0.00   -0.0170790   -0.0609312    0.0025498
h     4.3611930    0.3130094    0.1144054  0.00   -0.0002635    0.0025377   -0.0002151
h     3.8424146    2.0015911    0.3050772  0.00   -0.0022330   -0.0016283    0.0007000
c     5.6693728    1.4940895   -1.8410176  0.00    0.1102943    0.1205958    0.0916796
n     3.5347310    2.6808120   -2.2370519  0.00    0.0130710    0.0390372   -0.0312871
h     3.8528633    0.5743726   -2.4454949  0.00    0.0021512    0.0110711   -0.0013205
h     4.2862281    3.3858043   -2.3791576  0.00    0.0005292   -0.0257681    0.0036824
h     3.1183533    2.5224682   -3.1776907  0.00    0.0050889   -0.0011368    0.0101311
h    -2.3426607    2.9972266    0.0528733  0.00   -0.0004547    0.0000911    0.0000475
h    -2.0915104    0.5335725    0.0086860  0.00   -0.0024318    0.0009663    0.0000717
h    -0.3579239    4.4482296   -0.0306658  0.00    0.0005056    0.0004702    0.0002259
h     1.8982734    3.4650623   -0.1689603  0.00   -0.0003999    0.0017913    0.0009802
h     2.4297250   -1.5661979   -0.2830475  0.00   -0.0161845   -0.0083793    0.0009518
o     6.3629168    2.3778104   -1.1649900  0.00   -0.0739633   -0.0832373   -0.0768257
o     6.2900300    0.6112564   -2.6914375  0.00   -0.0466818    0.0416983   -0.0427287
h     6.8584257   -0.0020520   -2.0783095  0.00    0.0063754   -0.0304398    0.0385646
    27
 Energy =       0.2055904625
c    -1.3320327    2.5357303    0.0532846  0.00   -0.0197208    0.0164695    0.0011367
c    -1.1956142    1.1640757    0.0415295  0.00   -0.0367522   -0.0146589    0.0007422
c     0.0705307    0.6450607   -0.0423505  0.00   -0.0376774   -0.0785655   -0.0006555
c    -0.2239643    3.3528333   -0.0172943  0.00   -0.0090298    0.0300315    0.0012316
c     1.0401453    2.8096586   -0.1064709  0.00    0.0060353    0.0281418   -0.0000543
c     1.1752497    1.4368591   -0.1197821  0.00    0.0216056    0.0234049    0.0011342
n     0.4611833   -0.7024449   -0.0490916  0.00    0.0568317    0.0442311   -0.0008229
c     2.2926597    0.6270823   -0.2092358  0.00    0.0658004   -0.0347233    0.0037985
c     1.8620239   -0.6636199   -0.1896282  0.00   -0.0426578   -0.0379534    0.0014097
h    -0.1439356   -1.5373994    0.0175953  0.00    0.0136510    0.0167326   -0.0000114
c     3.7211373    1.0974446   -0.3495358  0.00    0.0018254    0.0003401   -0.0047391
c     4.1169324    1.4045747   -1.8071171  0.00   -0.0164884   -0.0579312    0.0026736
h     4.3936282    0.3188123    0.0704468  0.00   -0.0000161    0.0022287   -0.0000279
h     3.8721546    2.0060072    0.2730498  0.00   -0.0020586   -0.0014814    0.0008136
c     5.6370688    1.5269454   -1.9238851  0.00    0.1036712    0.1146997    0.0876049
n     3.4657207    2.6643461   -2.2667752  0.00    0.0113750    0.0370173   -0.0294234
h     3.8239036    0.5632804   -2.4699446  0.00    0.0017485    0.0103119   -0.0013351
h     4.1944300    3.3901819   -2.4279502  0.00    0.0011202   -0.0234598    0.0032576
h     3.0288612    2.4923887   -3.1964929  0.00    0.0045100   -0.0010105    0.0090100
h    -2.3238345    2.9766495    0.1211819  0.00   -0.0005046    0.0000707    0.0000486
h    -2.0634221    0.5141026    0.1022044  0.00   -0.0025055    0.0007506    0.0000803
h    -0.3460383    4.4336465   -0.0062725  0.00    0.0005135    0.0005038    0.0002122
h     1.9105369    3.4572378   -0.1695750  0.00   -0.0001897    0.0018213    0.0009060
h     2.4623604   -1.5656863   -0.2624561  0.00   -0.0151304   -0.0079676    0.0008623
o     6.3326864    2.4173486   -1.2502270  0.00   -0.0695677   -0.0785246   -0.0726046
o     6.2555171    0.6831813   -2.8180733  0.00   -0.0433041    0.0392740   -0.0424988
h     6.8550348    0.0700664   -2.2370627  0.00    0.0069151   -0.0297535    0.0372510
    27
 Energy =       0.1931290147
c    -1.3250678    2.5363510    0.0754551  0.00   -0.0128221    0.0107125    0.0007586
c    -1.1858526    1.1703383    0.0589970  0.00   -0.0240219   -0.0095561    0.0004951
c     0.0728449    0.6550759   -0.0364362  0.00   -0.0245861   -0.0512793   -0.0001473
c    -0.2210734    3.3517095   -0.0041260  0.00   -0.0058916    0.0195791    0.0008332
c     1.0374205    2.8102104   -0.1037974  0.00    0.0040353    0.0183447    0.0000162
c     1.1670814    1.4448272   -0.1187074  0.00    0.0140538    0.0154081    0.0008719
n     0.4550144   -0.7011855   -0.0612103  0.00    0.0370597    0.0286951   -0.0006527
c     2.2773748    0.6502787   -0.2136910  0.00    0.0432292   -0.0226689    0.0026075
c     1.8641097   -0.6400623   -0.1971417  0.00   -0.0279705   -0.0245432    0.0011227
h    -0.1499064   -1.5424034   -0.0040201  0.00    0.0089899    0.0108354    0.0000886
c     3.7061497    1.1195278   -0.3537659  0.00    0.0009385   -0.0000065   -0.0029835
c     4.1037715    1.3879452   -1.8179311  0.00   -0.0106095   -0.0373756    0.0011827
h     4.3759992    0.3485009    0.0867197  0.00    0.0001291    0.0012578    0.0000206
h     3.8591724    2.0434542    0.2463521  0.00   -0.0013332   -0.0006690    0.0006945
c     5.6217914    1.4925822   -1.9327534  0.00    0.0666619    0.0742399    0.0606987
n     3.4416809    2.6291915   -2.2989998  0.00    0.0072869    0.0244337   -0.0182925
h     3.8102874    0.5229832   -2.4542677  0.00    0.0010764    0.0062797   -0.0012164
h     4.1594951    3.3636165   -2.4895112  0.00    0.0012525   -0.0149948    0.0017431
h     2.9842316    2.4320466   -3.2166345  0.00    0.0023223   -0.0009496    0.0050574
h    -2.3167664    2.9756904    0.1529655  0.00   -0.0003472    0.0000268    0.0001401
h    -2.0505979    0.5173814    0.1238498  0.00   -0.0016105    0.0004534    0.0001858
h    -0.3437021    4.4323287    0.0084962  0.00    0.0003474    0.0003061    0.0001847
h     1.9081426    3.4561647   -0.1760224  0.00   -0.0000252    0.0011512    0.0006019
h     2.4905184   -1.5248058   -0.2730493  0.00   -0.0096150   -0.0054520    0.0005755
o     6.3204871    2.4356193   -1.2813372  0.00   -0.0454612   -0.0491795   -0.0474279
o     6.2665288    0.6021443   -2.7689496  0.00   -0.0523674    0.0412870   -0.0540355
h     7.0137880    0.1488527   -2.1904119  0.00    0.0292784   -0.0363361    0.0468770
    27
 Energy =       0.1900356898
c    -1.3386804    2.5612751    0.0132577  0.00   -0.0112467    0.0091994    0.0006826
c    -1.2063808    1.1960040   -0.0094617  0.00   -0.0209280   -0.0083248    0.0004842
c     0.0489998    0.6749393   -0.0896326  0.00   -0.0212884   -0.0443985   -0.0000043
c    -0.2296535    3.3702087   -0.0460433  0.00   -0.0050854    0.0170591    0.0007181
c     1.0261232    2.8223410   -0.1289582  0.00    0.0036468    0.0159116   -0.0000168
c     1.1468168    1.4581057   -0.1482275  0.00    0.0121513    0.0134431    0.0007336
n     0.4207956   -0.6855296   -0.1221752  0.00    0.0313334    0.0249184   -0.0006765
c     2.2526784    0.6610499   -0.2229588  0.00    0.0372607   -0.0196736    0.0022402
c     1.8358598   -0.6269153   -0.2198167  0.00   -0.0236308   -0.0211276    0.0010467
h    -0.1912327   -1.5245399   -0.0878481  0.00    0.0074734    0.0090274    0.0000552
c     3.6881688    1.1212439   -0.3228938  0.00    0.0009408    0.0002523   -0.0021791
c     4.1286180    1.3709682   -1.7779419  0.00   -0.0094088   -0.0322364    0.0009486
h     4.3396011    0.3495360    0.1449163  0.00    0.0004718    0.0007712    0.0002755
h     3.8308204    2.0501974    0.2721226  0.00   -0.0011952   -0.0005423    0.0007370
c     5.6506342    1.4502806   -1.8524781  0.00    0.0569133    0.0651210    0.0542807
n     3.4908023    2.6140985   -2.2853989  0.00    0.0057215    0.0216278   -0.0159936
h     3.8407601    0.5021671   -2.4127606  0.00    0.0008597    0.0054188   -0.0011122
h     4.2206939    3.3371818   -2.4786824  0.00    0.0011909   -0.0127247    0.0013579
h     3.0401620    2.4103914   -3.2054591  0.00    0.0019972   -0.0008038    0.0042852
h    -2.3291387    3.0055714    0.0781626  0.00   -0.0004066    0.0000255    0.0001298
h    -2.0753302    0.5469762    0.0372783  0.00   -0.0015542    0.0002902    0.0001724
h    -0.3464288    4.4514393   -0.0300185  0.00    0.0003133    0.0002940    0.0001586
h     1.9020015    3.4631870   -0.1847235  0.00    0.0001312    0.0010798    0.0005025
h     2.4656166   -1.5108470   -0.2798232  0.00   -0.0081703   -0.0047807    0.0005128
o     6.3420335    2.4245514   -1.2249721  0.00   -0.0395034   -0.0413532   -0.0405321
o     6.3127497    0.5110775   -2.6237334  0.00   -0.0450943    0.0342260   -0.0512552
h     7.0758326    0.1134040   -2.0316588  0.00    0.0271069   -0.0326998    0.0424478
    27
 Energy =       0.1868698016
c    -1.3478112    2.5836871   -0.0451468  0.00   -0.0093095    0.0074622    0.0005860
c    -1.2213747    1.2194840   -0.0703680  0.00   -0.0172239   -0.0068221    0.0004516
c     0.0303564    0.6932085   -0.1355185  0.00   -0.0174213   -0.0363284    0.0000996
c    -0.2348192    3.3864426   -0.0877593  0.00   -0.0041786    0.0140262    0.0005928
c     1.0178672    2.8326821   -0.1543308  0.00    0.0031070    0.0130164   -0.0000339
c     1.1302529    1.4699900   -0.1746838  0.00    0.0099110    0.0110616    0.0005775
n     0.3927590   -0.6715432   -0.1701141  0.00    0.0251285    0.0204484   -0.0006713
c     2.2312271    0.6714365   -0.2300066  0.00    0.0303546   -0.0161315    0.0017980
c     1.8125246   -0.6142383   -0.2364440  0.00   -0.0189378   -0.0172059    0.0009368
h    -0.2249093   -1.5086668   -0.1525549  0.00    0.0059344    0.0071946    0.0000181
c     3.6717620    1.1231312   -0.2956665  0.00    0.0008060    0.0004588   -0.0014421
c     4.1493995    1.3499499   -1.7422294  0.00   -0.0076877   -0.0260673    0.0006655
h     4.3061685    0.3528302    0.1984476  0.00    0.0006987    0.0003366    0.0004531
h     3.8057114    2.0590922    0.2904612  0.00   -0.0010348   -0.0003801    0.0007317
c     5.6730265    1.4190440   -1.7797669  0.00    0.0449369    0.0536185    0.0464755
n     3.5223187    2.5845315   -2.2809280  0.00    0.0042816    0.0182450   -0.0130229
h     3.8746797    0.4703399   -2.3693875  0.00    0.0006691    0.0043165   -0.0010844
h     4.2552599    3.3032665   -2.4834574  0.00    0.0009801   -0.0102649    0.0009771
h     3.0762428    2.3642078   -3.2000622  0.00    0.0015452   -0.0007032    0.0032756
h    -2.3369824    3.0325488    0.0073367  0.00   -0.0004293    0.0000319    0.0001135
h    -2.0935898    0.5740290   -0.0381927  0.00   -0.0013802    0.0001769    0.0001492
h    -0.3464096    4.4682008   -0.0711103  0.00    0.0002568    0.0002576    0.0001294
h     1.8980617    3.4686752   -0.1968389  0.00    0.0002182    0.0009316    0.0003986
h     2.4463079   -1.4964918   -0.2818623  0.00   -0.0065564   -0.0039641    0.0004361
o     6.3507939    2.4412258   -1.1951203  0.00   -0.0321303   -0.0308720   -0.0319756
o     6.3573928    0.4304578   -2.4717191  0.00   -0.0382901    0.0257928   -0.0489972
h     7.1467068    0.1108422   -1.8729056  0.00    0.0257515   -0.0286360    0.0383616
    27
 Energy =       0.1842465067
c    -1.3526870    2.5857705   -0.0880408  0.00   -0.0070630    0.0056499    0.0004703
c    -1.2251456    1.2232643   -0.1075713  0.00   -0.0130698   -0.0051385    0.0003743
c     0.0249624    0.6977442   -0.1598000  0.00   -0.0131894   -0.0274716    0.0000947
c    -0.2403950    3.3876026   -0.1238132  0.00   -0.0032078    0.0106299    0.0004721
c     1.0111861    2.8339036   -0.1766666  0.00    0.0024054    0.0098232   -0.0000201
c     1.1220807    1.4734080   -0.1903797  0.00    0.0074535    0.0083902    0.0004231
n     0.3852175   -0.6698766   -0.1869780  0.00    0.0188497    0.0154731   -0.0005582
c     2.2214918    0.6792673   -0.2293878  0.00    0.0229550   -0.0122165    0.0012783
c     1.8082235   -0.6062160   -0.2359184  0.00   -0.0142018   -0.0129758    0.0007355
h    -0.2327460   -1.5085272   -0.1741851  0.00    0.0044762    0.0054259    0.0000030
c     3.6631319    1.1307397   -0.2772843  0.00    0.0005930    0.0004141   -0.0008687
c     4.1618936    1.3276621   -1.7200004  0.00   -0.0052300   -0.0203652    0.0011539
h     4.2900485    0.3697291    0.2408012  0.00    0.0007460    0.0000332    0.0004789
h     3.7878487    2.0789404    0.2912895  0.00   -0.0008175   -0.0000752    0.0007375
c     5.6841347    1.4337159   -1.7317074  0.00    0.0291666    0.0362862    0.0371677
n     3.5042596    2.5249178   -2.3046819  0.00    0.0018776    0.0155989   -0.0091552
h     3.9229371    0.4188710   -2.3229176  0.00    0.0003067    0.0021736   -0.0015490
h     4.2146508    3.2617957   -2.5280523  0.00    0.0012676   -0.0068943    0.0004392
h     3.0666892    2.2609025   -3.2180082  0.00    0.0003883   -0.0009346    0.0010565
h    -2.3424055    3.0345065   -0.0463669  0.00   -0.0003804    0.0000482    0.0000907
h    -2.0968562    0.5771628   -0.0814550  0.00   -0.0010668    0.0001322    0.0001168
h    -0.3522218    4.4693894   -0.1128994  0.00    0.0001796    0.0002109    0.0000994
h     1.8918125    3.4693384   -0.2147164  0.00    0.0001928    0.0006966    0.0002996
h     2.4504070   -1.4831721   -0.2697303  0.00   -0.0048727   -0.0030663    0.0003349
o     6.3218951    2.5490342   -1.2440903  0.00   -0.0211337   -0.0113709   -0.0200289
o     6.4134484    0.4002233   -2.3132156  0.00   -0.0347962    0.0140300   -0.0505497
h     7.2390611    0.1982662   -1.7141525  0.00    0.0281712   -0.0245074    0.0369033
    27
 Energy =       0.1823259683
c    -1.3394439    2.6483174   -0.0982684  0.00   -0.0067358    0.0053149    0.0004645
c    -1.2331371    1.2842762   -0.1182778  0.00   -0.0122779   -0.0048810    0.0003784
c     0.0081579    0.7393734   -0.1693565  0.00   -0.0122530   -0.0254948    0.0001133
c    -0.2146555    3.4324439   -0.1322602  0.00   -0.0029990    0.0100668    0.0004505
c     1.0280019    2.8590738   -0.1834479  0.00    0.0023720    0.0092407   -0.0000197
c     1.1169499    1.4973850   -0.1976778  0.00    0.0069846    0.0077986    0.0003941
n     0.3454982   -0.6344644   -0.1959709  0.00    0.0174013    0.0142110   -0.0004953
c     2.2030230    0.6863914   -0.2337257  0.00    0.0213417   -0.0113222    0.0011790
c     1.7701433   -0.5925135   -0.2411752  0.00   -0.0130219   -0.0121865    0.0006927
h    -0.2865697   -1.4631287   -0.1851335  0.00    0.0040038    0.0048437    0.0000384
c     3.6524479    1.1124479   -0.2739603  0.00    0.0006155    0.0004198   -0.0008840
c     4.1616883    1.3036512   -1.7140140  0.00   -0.0052231   -0.0206711    0.0021104
h     4.2621201    0.3383669    0.2460193  0.00    0.0008250   -0.0001377    0.0005337
h     3.7933315    2.0564011    0.2981719  0.00   -0.0006921    0.0000763    0.0007138
c     5.6881091    1.3338263   -1.7215223  0.00    0.0248876    0.0304998    0.0328404
n     3.5629784    2.5414387   -2.2810083  0.00   -0.0010384    0.0163075   -0.0078346
h     3.8794895    0.4147240   -2.3300816  0.00   -0.0001628    0.0009116   -0.0018442
h     4.3128486    3.2379461   -2.5138829  0.00    0.0031192   -0.0045104    0.0000020
h     3.0917026    2.3072720   -3.1868567  0.00   -0.0005392   -0.0015783   -0.0003686
h    -2.3221399    3.1125621   -0.0573046  0.00   -0.0004868    0.0001125    0.0001135
h    -2.1148572    0.6516925   -0.0931483  0.00   -0.0011049    0.0000362    0.0001454
h    -0.3094148    4.5159901   -0.1206627  0.00    0.0001586    0.0003559    0.0000993
h     1.9190181    3.4803128   -0.2191320  0.00    0.0003166    0.0007527    0.0002670
h     2.4000265   -1.4788029   -0.2714232  0.00   -0.0044323   -0.0029531    0.0003189
o     6.3837672    2.3902811   -1.1736661  0.00   -0.0159209   -0.0059099   -0.0159556
o     6.3700282    0.2763268   -2.3200327  0.00   -0.0321821    0.0113508   -0.0483033
h     7.2138111    0.0667723   -1.7521304  0.00    0.0270444   -0.0226538    0.0348501
    27
 Energy =       0.1810039043
c    -1.3508892    2.6576253   -0.1625787  0.00   -0.0065598    0.0048189    0.0004402
c    -1.2509608    1.2936446   -0.1963287  0.00   -0.0116524   -0.0046789    0.0003704
c    -0.0119453    0.7432428   -0.2304668  0.00   -0.0115208   -0.0238582    0.0001403
c    -0.2216816    3.4362648   -0.1663131  0.00   -0.0026233    0.0095806    0.0004163
c     1.0187262    2.8572126   -0.1996378  0.00    0.0024306    0.0087182   -0.0000248
c     1.1006428    1.4957147   -0.2277037  0.00    0.0066346    0.0073536    0.0003554
n     0.3182115   -0.6324984   -0.2681188  0.00    0.0156248    0.0132862   -0.0004938
c     2.1828418    0.6804167   -0.2482657  0.00    0.0197064   -0.0105306    0.0010979
c     1.7446506   -0.5961773   -0.2782954  0.00   -0.0117905   -0.0113904    0.0006702
h    -0.3185461   -1.4582329   -0.2824962  0.00    0.0033713    0.0041005    0.0000199
c     3.6354988    1.0990448   -0.2446554  0.00    0.0008887    0.0004464   -0.0003414
c     4.1852920    1.3036740   -1.6684133  0.00   -0.0051425   -0.0194849    0.0015334
h     4.2269259    0.3158569    0.2831434  0.00    0.0008832   -0.0002552    0.0007122
h     3.7666989    2.0355841    0.3421400  0.00   -0.0005322    0.0001935    0.0008036
c     5.7116096    1.3256092   -1.6326090  0.00    0.0219071    0.0264866    0.0290984
n     3.6083809    2.5505993   -2.2370018  0.00   -0.0012072    0.0152370   -0.0073727
h     3.9155767    0.4229269   -2.3020115  0.00   -0.0003154    0.0007082   -0.0019300
h     4.3686805    3.2413721   -2.4536670  0.00    0.0031448   -0.0039587   -0.0000730
h     3.1476665    2.3271596   -3.1510680  0.00   -0.0006134   -0.0014845   -0.0005535
h    -2.3320070    3.1263304   -0.1350498  0.00   -0.0005819    0.0000905    0.0001085
h    -2.1362167    0.6651019   -0.1956088  0.00   -0.0012999   -0.0001495    0.0001373
h    -0.3111452    4.5201451   -0.1441253  0.00    0.0002009    0.0004143    0.0000923
h     1.9137366    3.4741509   -0.2101806  0.00    0.0005825    0.0008951    0.0002457
h     2.3723382   -1.4843868   -0.2993910  0.00   -0.0040516   -0.0027648    0.0003027
o     6.3968959    2.3533923   -1.0149130  0.00   -0.0127790   -0.0029962   -0.0131888
o     6.4064362    0.2811922   -2.2386273  0.00   -0.0300492    0.0103247   -0.0450398
h     7.2555054    0.0833977   -1.6776851  0.00    0.0253441   -0.0211024    0.0324733
    27
 Energy =       0.1792302501
c    -1.3563648    2.6791039   -0.2345284  0.00   -0.0059939    0.0039681    0.0003847
c    -1.2665967    1.3153882   -0.2806162  0.00   -0.0102850   -0.0041343    0.0003497
c    -0.0323181    0.7555410   -0.2944018  0.00   -0.0099849   -0.0205752    0.0001841
c    -0.2211143    3.4481284   -0.2059643  0.00   -0.0020890    0.0084639    0.0003575
c     1.0145497    2.8592771   -0.2180308  0.00    0.0023822    0.0075730   -0.0000312
c     1.0851571    1.4983396   -0.2586492  0.00    0.0058545    0.0063995    0.0002822
n     0.2860894   -0.6234781   -0.3409219  0.00    0.0127225    0.0114488   -0.0005062
c     2.1600673    0.6759082   -0.2610025  0.00    0.0167610   -0.0090094    0.0009111
c     1.7139681   -0.5966581   -0.3139909  0.00   -0.0096802   -0.0098253    0.0006351
h    -0.3573811   -1.4441604   -0.3808124  0.00    0.0024916    0.0030754   -0.0000205
c     3.6161191    1.0815597   -0.2119672  0.00    0.0011292    0.0004697    0.0001994
c     4.2074227    1.2966579   -1.6177537  0.00   -0.0046779   -0.0170096    0.0008633
h     4.1858249    0.2872962    0.3235996  0.00    0.0009060   -0.0004047    0.0008754
h     3.7401707    2.0102949    0.3888395  0.00   -0.0003326    0.0002668    0.0008106
c     5.7320762    1.3015084   -1.5393443  0.00    0.0176416    0.0209776    0.0232589
n     3.6576050    2.5548539   -2.1863141  0.00   -0.0013641    0.0132870   -0.0066178
h     3.9466029    0.4254044   -2.2682711  0.00   -0.0004441    0.0004876   -0.0018348
h     4.4309469    3.2332070   -2.3969872  0.00    0.0029085   -0.0031480   -0.0001221
h     3.1956695    2.3428734   -3.1024589  0.00   -0.0005789   -0.0013020   -0.0005630
h    -2.3341912    3.1554944   -0.2231681  0.00   -0.0006947    0.0000786    0.0000947
h    -2.1566940    0.6938650   -0.3058185  0.00   -0.0014451   -0.0003342    0.0001138
h    -0.3021187    4.5324739   -0.1743393  0.00    0.0002236    0.0004495    0.0000803
h     1.9149981    3.4686346   -0.2019294  0.00    0.0008511    0.0009868    0.0002124
h     2.3376958   -1.4879807   -0.3250703  0.00   -0.0033748   -0.0023946    0.0002738
o     6.4097634    2.2965031   -0.8561599  0.00   -0.0089697   -0.0004415   -0.0095482
o     6.4358904    0.2654022   -2.1476584  0.00   -0.0264193    0.0088767   -0.0389046
h     7.2990848    0.0929255   -1.6062087  0.00    0.0224623   -0.0182302    0.0282612
    27
 Energy =       0.1770778478
c    -1.3532825    2.7145424   -0.3191118  0.00   -0.0050127    0.0026861    0.0002885
c    -1.2789651    1.3513487   -0.3772659  0.00   -0.0080751   -0.0031822    0.0003104
c    -0.0529302    0.7766027   -0.3643060  0.00   -0.0074667   -0.0153226    0.0002378
c    -0.2098777    3.4682682   -0.2521428  0.00   -0.0013581    0.0066286    0.0002739
c     1.0174373    2.8639832   -0.2368206  0.00    0.0022514    0.0056875   -0.0000342
c     1.0708770    1.5040944   -0.2900373  0.00    0.0046190    0.0048247    0.0001672
n     0.2474901   -0.6074637   -0.4180744  0.00    0.0085093    0.0084805   -0.0005286
c     2.1338017    0.6706588   -0.2703793  0.00    0.0123433   -0.0065691    0.0006006
c     1.6762027   -0.5954758   -0.3495342  0.00   -0.0065262   -0.0073776    0.0005777
h    -0.4053578   -1.4202354   -0.4857498  0.00    0.0013118    0.0017113   -0.0000856
c     3.5934345    1.0562255   -0.1727602  0.00    0.0013015    0.0005097    0.0006565
c     4.2276755    1.2806432   -1.5581401  0.00   -0.0036845   -0.0127660    0.0001037
h     4.1370620    0.2476181    0.3688344  0.00    0.0008592   -0.0005764    0.0009922
h     3.7131569    1.9756665    0.4431227  0.00   -0.0000854    0.0003076    0.0007171
c     5.7487212    1.2638298   -1.4375520  0.00    0.0122876    0.0142505    0.0156122