    27
 Energy =       0.3530163145
c    -1.4235396    2.6054793   -0.0667700  0.00   -0.0462235    0.0384281    0.0027760
c    -1.3072796    1.2134697   -0.1072300  0.00   -0.0852417   -0.0325957    0.0020313
c    -0.0178900    0.6711998   -0.1697000  0.00   -0.0888797   -0.1883169   -0.0013315
c    -0.2940599    3.4190890   -0.0891300  0.00   -0.0231459    0.0690803    0.0029248
c     0.9872197    2.8590292   -0.1560400  0.00    0.0394252    0.0663300    0.0073641
c     1.1340797    1.4562096   -0.1970299  0.00    0.0576571    0.0537611    0.0031768
n     0.3879399   -0.6395298   -0.2140799  0.00    0.1426180    0.1097863   -0.0029758
c     2.2666594    0.5727398   -0.2659299  0.00    0.1514580   -0.0945859   -0.0292489
c     1.7555995   -0.7123598   -0.2706899  0.00   -0.1010216   -0.0975422    0.0040372
h    -0.2400399   -1.4313496   -0.2047299  0.00    0.0367685    0.0478388   -0.0006155
c     3.7030089    1.0223397   -0.3320099  0.00    0.0031323    0.0411074    0.0081206
c     4.0547688    2.2615794    0.5049969  0.00   -0.1109430    0.0360323   -0.0898950
h     3.9407589    1.2278196   -1.3843196  0.00    0.0019409   -0.0014496    0.0176326
h     4.3455988    0.1801669   -0.0411573  0.00   -0.0123957    0.0086871   -0.0051597
c     5.4270085    2.7951492    0.0535521  0.00    0.3765218   -0.1578333    0.0637742
n     4.1412688    1.9836494    1.9826994  0.00    0.0550595   -0.0023477    0.0849011
h     3.3277791    3.0673291    0.3491609  0.00   -0.4829582    0.1274961   -0.1635091
h     3.8646489    1.0062597    2.1215594  0.00    0.0143086    0.0302359   -0.0255003
h     5.1335385    1.9976794    2.2436094  0.00   -0.0290889    0.0078869   -0.0445281
h    -2.4108593    3.0588691   -0.0157800  0.00   -0.0007420    0.0001821    0.0000115
h    -2.1896094    0.5822398   -0.0890100  0.00   -0.0035786    0.0037907    0.0000436
h    -0.4052699    4.5000487   -0.0535400  0.00    0.0004637    0.0001424    0.0002685
h     1.8590495    3.5066790   -0.1715100  0.00    0.4768214   -0.1418110    0.1698791
h     2.2327294   -1.6813195   -0.3062999  0.00   -0.0407360   -0.0111533    0.0023999
o     6.4880181    2.2021494    0.1560940  0.00   -0.2598485    0.1381102   -0.0279445
o     5.3169785    4.0375388   -0.4895209  0.00   -0.0420928   -0.0242694    0.0196802
h     5.9036983    4.6130587    0.0664848  0.00   -0.0292790   -0.0269909    0.0016870
    27
 Energy =       0.3524722627
c    -1.4267350    2.5779797   -0.1163155  0.00   -0.0457090    0.0380521    0.0027495
c    -1.3024573    1.1872961   -0.1443139  0.00   -0.0842708   -0.0323154    0.0020175
c    -0.0107392    0.6510075   -0.2016364  0.00   -0.0881078   -0.1851312   -0.0013693
c    -0.3024544    3.3967058   -0.1442473  0.00   -0.0228985    0.0683437    0.0028997
c     0.9814973    2.8437014   -0.2027083  0.00    0.0389683    0.0656069    0.0072750
c     1.1390436    1.4402226   -0.2285265  0.00    0.0566016    0.0533241    0.0029585
n     0.3987370   -0.6601898   -0.2063206  0.00    0.1411609    0.1077672   -0.0029220
c     2.2762396    0.5567095   -0.2651157  0.00    0.1483627   -0.0927270   -0.0284601
c     1.7670745   -0.7287772   -0.2483480  0.00   -0.1001347   -0.0957638    0.0039998
h    -0.2265387   -1.4545538   -0.1857005  0.00    0.0362860    0.0471725   -0.0005944
c     3.7240168    0.9885663   -0.2757599  0.00    0.0003290    0.0411421    0.0093649
c     4.0478175    2.2788577    0.4979158  0.00   -0.1099629    0.0370620   -0.0901805
h     4.0328865    1.1069087   -1.3292938  0.00    0.0031028   -0.0012370    0.0114495
h     4.3370361    0.1592763    0.1175958  0.00   -0.0089581    0.0044893   -0.0033009
c     5.4102002    2.8244612    0.0349177  0.00    0.3723386   -0.1574270    0.0635897
n     4.1282855    2.0775307    1.9903877  0.00    0.0554193    0.0005407    0.0864312
h     3.3109333    3.0599029    0.2957168  0.00   -0.4782827    0.1271904   -0.1618667
h     3.8394285    1.1129080    2.1906694  0.00    0.0133422    0.0268023   -0.0240352
h     5.1191459    2.1127601    2.2572823  0.00   -0.0284017    0.0075091   -0.0434917
h    -2.4165865    3.0263589   -0.0697075  0.00   -0.0007544    0.0002007    0.0000124
h    -2.1811386    0.5512920   -0.1161618  0.00   -0.0035821    0.0036874    0.0000472
h    -0.4199029    4.4774308   -0.1194681  0.00    0.0004510    0.0002209    0.0002631
h     1.8428910    3.5042708   -0.2243134  0.00    0.4713601   -0.1400963    0.1678655
h     2.2496132   -1.6969824   -0.2326248  0.00   -0.0396072   -0.0122525    0.0024301
o     6.4838035    2.2487105    0.1292100  0.00   -0.2564725    0.1365595   -0.0274942
o     5.2886633    4.0897226   -0.4562959  0.00   -0.0421420   -0.0222756    0.0182769
h     5.8910427    4.6431366    0.1068423  0.00   -0.0284382   -0.0264451    0.0020846
    27
 Energy =       0.3372539726
c    -1.4206059    2.6144851   -0.0632630  0.00   -0.0429284    0.0357536    0.0025663
c    -1.3064506    1.2249416   -0.1022556  0.00   -0.0791280   -0.0304735    0.0018834
c    -0.0217964    0.6811030   -0.1617557  0.00   -0.0828320   -0.1723944   -0.0010741
c    -0.2909638    3.4245203   -0.0862100  0.00   -0.0215476    0.0642140    0.0026908
c     0.9868094    2.8624991   -0.1512468  0.00    0.0366827    0.0616845    0.0068079
c     1.1280856    1.4620170   -0.1880764  0.00    0.0527385    0.0502393    0.0025818
n     0.3743738   -0.6367359   -0.2114222  0.00    0.1328453    0.0999839   -0.0029545
c     2.2551098    0.5797846   -0.2536006  0.00    0.1373292   -0.0861046   -0.0260009
c     1.7467378   -0.7036766   -0.2599196  0.00   -0.0944359   -0.0889363    0.0039051
h    -0.2564767   -1.4298263   -0.2075572  0.00    0.0339214    0.0440641   -0.0006126
c     3.6980032    1.0143376   -0.3334080  0.00   -0.0019282    0.0388600    0.0100109
c     4.0623513    2.2549690    0.5055124  0.00   -0.1030968    0.0360002   -0.0855860
h     3.9291377    1.2152054   -1.4008163  0.00    0.0035260   -0.0006094    0.0045116
h     4.3450408    0.1612548   -0.0411573  0.00   -0.0046472    0.0000422   -0.0018327
c     5.4281412    2.7876687    0.0400503  0.00    0.3495715   -0.1505519    0.0616656
n     4.1568915    1.9739676    1.9844861  0.00    0.0530097    0.0031679    0.0842743
h     3.3349484    3.0648136    0.3541707  0.00   -0.4513653    0.1211767   -0.1524768
h     3.8851134    0.9907891    2.1300887  0.00    0.0119589    0.0222741   -0.0214959
h     5.1512545    1.9951036    2.2454932  0.00   -0.0264542    0.0066503   -0.0405483
h    -2.4072107    3.0697290   -0.0144120  0.00   -0.0007386    0.0002029    0.0000121
h    -2.1894341    0.5943367   -0.0860904  0.00   -0.0034310    0.0033799    0.0000382
h    -0.4001001    4.5059300   -0.0533976  0.00    0.0004143    0.0002771    0.0002439
h     1.8592052    3.5103525   -0.1687940  0.00    0.4436357   -0.1317910    0.1579331
h     2.2354304   -1.6696951   -0.2995640  0.00   -0.0364907   -0.0129446    0.0022415
o     6.4973409    2.1839076    0.1414008  0.00   -0.2402870    0.1283424   -0.0256347
o     5.3266434    4.0259020   -0.5254170  0.00   -0.0424245   -0.0191677    0.0119629
h     5.8742235    4.6175295    0.0608414  0.00   -0.0238978   -0.0233399    0.0048870
    27
 Energy =       0.2923477816
c    -1.4034610    2.6524274   -0.0048780  0.00   -0.0314391    0.0262103    0.0018266
c    -1.2986843    1.2713783   -0.0582341  0.00   -0.0581951   -0.0226954    0.0013626
c    -0.0307866    0.7215465   -0.1160970  0.00   -0.0603298   -0.1241852    0.0007371
c    -0.2718204    3.4493277   -0.0191933  0.00   -0.0159966    0.0471957    0.0018347
c     0.9924864    2.8792467   -0.0881849  0.00    0.0275213    0.0456767    0.0049607
c     1.1099875    1.4897989   -0.1347359  0.00    0.0381118    0.0375400    0.0016696
n     0.3352003   -0.6138355   -0.2283392  0.00    0.0977767    0.0708233   -0.0037936
c     2.2176982    0.6229398   -0.2266775  0.00    0.0989165   -0.0617708   -0.0178936
c     1.7235122   -0.6551015   -0.2674832  0.00   -0.0703842   -0.0632237    0.0038745
h    -0.3020809   -1.4128743   -0.2566499  0.00    0.0245281    0.0317642   -0.0009334
c     3.6591597    1.0426295   -0.3832949  0.00   -0.0034185    0.0278728    0.0070858
c     4.0927735    2.2178990    0.5210765  0.00   -0.0747287    0.0278106   -0.0634848
h     3.8097584    1.3245789   -1.4538532  0.00    0.0023979    0.0003610   -0.0029464
h     4.3241748    0.1642499   -0.1999104  0.00    0.0007310   -0.0045469   -0.0007166
c     5.4457428    2.7451692    0.0307754  0.00    0.2576765   -0.1161707    0.0538939
n     4.2009710    1.8442772    1.9734818  0.00    0.0398242    0.0046342    0.0670790
h     3.3785127    3.0560415    0.4314970  0.00   -0.3497893    0.0953458   -0.1179344
h     3.9467515    0.8438242    2.0713255  0.00    0.0085239    0.0138208   -0.0147666
h     5.1989118    1.8683022    2.2426459  0.00   -0.0192184    0.0046643   -0.0303686
h    -2.3867968    3.1145849    0.0433779  0.00   -0.0005791    0.0001440    0.0000089
h    -2.1847356    0.6446978   -0.0618856  0.00   -0.0026675    0.0023095   -0.0000185
h    -0.3717773    4.5314214    0.0214531  0.00    0.0002876    0.0002788    0.0001709
h     1.8744092    3.5171467   -0.1011681  0.00    0.3421099   -0.1011096    0.1217687
h     2.2500449   -1.5989057   -0.3716315  0.00   -0.0256224   -0.0118975    0.0014240
o     6.5358576    2.0972760    0.1384912  0.00   -0.1766787    0.0951650   -0.0192581
o     5.3730315    3.9377304   -0.6489669  0.00   -0.0451718   -0.0254530   -0.0217446
h     5.7629623    4.6194365    0.0007391  0.00   -0.0041865   -0.0005640    0.0261623
    27
 Energy =       0.2905892006
c    -1.3964765    2.6524635   -0.0170572  0.00   -0.0302071    0.0251788    0.0017564
c    -1.2916659    1.2726522   -0.0751909  0.00   -0.0559106   -0.0218189    0.0013162
c    -0.0250644    0.7229479   -0.1297055  0.00   -0.0579210   -0.1192241    0.0007690
c    -0.2651206    3.4485018   -0.0247799  0.00   -0.0153588    0.0453483    0.0017616
c     0.9982873    2.8784664   -0.0904139  0.00    0.0264550    0.0438857    0.0047560
c     1.1147819    1.4902261   -0.1398222  0.00    0.0366222    0.0360909    0.0016004
n     0.3384203   -0.6132989   -0.2533674  0.00    0.0937991    0.0679886   -0.0037192
c     2.2214142    0.6250514   -0.2280503  0.00    0.0950544   -0.0593197   -0.0172006
c     1.7287790   -0.6522061   -0.2763102  0.00   -0.0674862   -0.0606916    0.0037710
h    -0.2993991   -1.4126639   -0.2946414  0.00    0.0234760    0.0304104   -0.0009206
c     3.6649992    1.0410301   -0.3786018  0.00   -0.0032665    0.0267840    0.0068108
c     4.1002383    2.2143759    0.5272989  0.00   -0.0717912    0.0267295   -0.0611566
h     3.8200075    1.3225103   -1.4486075  0.00    0.0023014    0.0003473   -0.0028401
h     4.3272581    0.1610507   -0.1932979  0.00    0.0007059   -0.0043755   -0.0006864
c     5.4550688    2.7391872    0.0384999  0.00    0.2477000   -0.1110660    0.0524011
n     4.2007077    1.8402994    1.9789957  0.00    0.0382365    0.0044382    0.0644394
h     3.3877620    3.0530869    0.4349322  0.00   -0.3362621    0.0917274   -0.1133850
h     3.9452681    0.8397487    2.0773874  0.00    0.0081844    0.0132760   -0.0141831
h     5.1970334    1.8661234    2.2562242  0.00   -0.0184220    0.0044804   -0.0291526
h    -2.3799182    3.1146848    0.0284038  0.00   -0.0005616    0.0001367    0.0000092
h    -2.1776971    0.6460031   -0.0865446  0.00   -0.0025868    0.0021995   -0.0000186
h    -0.3649854    4.5305180    0.0182966  0.00    0.0002801    0.0002717    0.0001632
h     1.8796098    3.5169110   -0.0989103  0.00    0.3289251   -0.0971903    0.1170757
h     2.2600802   -1.5934130   -0.3796228  0.00   -0.0246092   -0.0114393    0.0013742
o     6.5487910    2.0925380    0.1661761  0.00   -0.1695734    0.0915611   -0.0182942
o     5.3894150    3.9329923   -0.6408208  0.00   -0.0505774   -0.0450684   -0.0437011
h     5.6042091    4.6454264    0.0832097  0.00    0.0027937    0.0193396    0.0472537
    27
 Energy =       0.2757867101
c    -1.4039826    2.6237050   -0.0050397  0.00   -0.0267270    0.0223283    0.0015262
c    -1.2851130    1.2482710   -0.0791003  0.00   -0.0494756   -0.0193417    0.0011633
c    -0.0168987    0.7125109   -0.1449172  0.00   -0.0513108   -0.1053632    0.0007132
c    -0.2820390    3.4293553   -0.0024731  0.00   -0.0135241    0.0401649    0.0014875
c     0.9836026    2.8732290   -0.0774303  0.00    0.0233068    0.0388320    0.0041296
c     1.1108088    1.4903278   -0.1531469  0.00    0.0320673    0.0318693    0.0013783
n     0.3561380   -0.6242628   -0.2824340  0.00    0.0822501    0.0601151   -0.0030982
c     2.2230379    0.6457852   -0.2671435  0.00    0.0841023   -0.0524044   -0.0145551
c     1.7512921   -0.6350205   -0.3310287  0.00   -0.0592620   -0.0534961    0.0032946
h    -0.2705742   -1.4359358   -0.3212802  0.00    0.0206424    0.0266463   -0.0008212
c     3.6610904    1.0821425   -0.4351005  0.00   -0.0038478    0.0227056    0.0057123
c     4.0947375    2.2079399    0.5301856  0.00   -0.0638903    0.0243528   -0.0549169
h     3.7918300    1.4261876   -1.4913798  0.00    0.0023099    0.0009664   -0.0046214
h     4.3374726    0.2010570   -0.3076640  0.00    0.0015244   -0.0053930   -0.0006091
c     5.4471094    2.7763823    0.0887489  0.00    0.2185596   -0.1020373    0.0478860
n     4.1696308    1.7617850    1.9620681  0.00    0.0331775    0.0054389    0.0602662
h     3.3817448    3.0487453    0.4637724  0.00   -0.2991435    0.0820388   -0.1011551
h     3.9360785    0.7487434    2.0071172  0.00    0.0064189    0.0089087   -0.0122240
h     5.1582930    1.7978323    2.2711131  0.00   -0.0153691    0.0039977   -0.0253868
h    -2.3918632    3.0754995    0.0495222  0.00   -0.0005831    0.0002012    0.0000126
h    -2.1642107    0.6120566   -0.0941048  0.00   -0.0023463    0.0018960   -0.0000204
h    -0.3920070    4.5096647    0.0605743  0.00    0.0002323    0.0005028    0.0001567
h     1.8572877    3.5221761   -0.0614986  0.00    0.2927482   -0.0860942    0.1044993
h     2.3054223   -1.5597558   -0.4626339  0.00   -0.0212663   -0.0106886    0.0011126
o     6.5586899    2.1312926    0.1997951  0.00   -0.1493058    0.0810547   -0.0163022
o     5.3917075    4.0202250   -0.5048045  0.00   -0.0450337   -0.0380244   -0.0457907
h     5.6725184    4.6852747    0.2419628  0.00    0.0037456    0.0208234    0.0461626
    27
 Energy =       0.2526072542
c    -1.4167324    2.5870794    0.0139964  0.00   -0.0202864    0.0171652    0.0010881
c    -1.2784920    1.2206427   -0.0984008  0.00   -0.0372607   -0.0150309    0.0009529
c    -0.0100715    0.7048478   -0.1755205  0.00   -0.0389846   -0.0785850    0.0014603
c    -0.3081096    3.4039949    0.0470564  0.00   -0.0098506    0.0306377    0.0008727
c     0.9592600    2.8674163   -0.0372520  0.00    0.0174765    0.0296988    0.0028660
c     1.0997033    1.4950231   -0.1601122  0.00    0.0236232    0.0240095    0.0008876
n     0.3716722   -0.6315561   -0.3643064  0.00    0.0616907    0.0440781   -0.0029685
c     2.2171608    0.6819693   -0.3061995  0.00    0.0636734   -0.0387611   -0.0100167
c     1.7754278   -0.6010785   -0.4129007  0.00   -0.0448230   -0.0400447    0.0030170
h    -0.2416332   -1.4584010   -0.4321875  0.00    0.0150927    0.0190918   -0.0009151
c     3.6506628    1.1393777   -0.4859160  0.00   -0.0044128    0.0153201    0.0033958
c     4.0929689    2.1958063    0.5526728  0.00   -0.0479160    0.0200439   -0.0431423
h     3.7537895    1.5606643   -1.5188946  0.00    0.0020128    0.0018529   -0.0067389
h     4.3389361    0.2580397   -0.4330966  0.00    0.0025442   -0.0065295   -0.0005689
c     5.4323182    2.8208095    0.1584330  0.00    0.1641314   -0.0790829    0.0378998
n     4.1494537    1.6510044    1.9490867  0.00    0.0236822    0.0059034    0.0513516
h     3.3786318    3.0377808    0.5324600  0.00   -0.2332146    0.0650747   -0.0797225
h     3.9470185    0.6256490    1.9281836  0.00    0.0037914    0.0021054   -0.0087850
h     5.1284783    1.7033154    2.2967561  0.00   -0.0100717    0.0031659   -0.0187618
h    -2.4107284    3.0241876    0.0775793  0.00   -0.0005691    0.0003148    0.0000223
h    -2.1478783    0.5718589   -0.1375326  0.00   -0.0020404    0.0010783   -0.0000500
h    -0.4316252    4.4807796    0.1464741  0.00    0.0001900    0.0011769    0.0001752
h     1.8212407    3.5297677    0.0199747  0.00    0.2284969   -0.0660878    0.0823875
h     2.3661635   -1.4974353   -0.5857427  0.00   -0.0150581   -0.0094969    0.0006036
o     6.5748412    2.1746185    0.2354684  0.00   -0.1112969    0.0605053   -0.0127460
o     5.3800715    4.1087385   -0.3460514  0.00   -0.0384038   -0.0319593   -0.0494921
h     5.7892752    4.7203131    0.3896518  0.00    0.0077834    0.0243553    0.0469273
    27
 Energy =       0.2439061772
c    -1.4149789    2.6003801    0.0797103  0.00   -0.0181179    0.0149010    0.0009351
c    -1.2810392    1.2338975   -0.0129001  0.00   -0.0329877   -0.0135043    0.0007177
c    -0.0180023    0.7158845   -0.1128495  0.00   -0.0337085   -0.0679001    0.0009463
c    -0.3051887    3.4149866    0.0748630  0.00   -0.0084185    0.0272043    0.0008002
c     0.9574845    2.8757201   -0.0329846  0.00    0.0157123    0.0262206    0.0025783
c     1.0901584    1.5035086   -0.1408145  0.00    0.0209821    0.0215126    0.0008614
n     0.3536907   -0.6311480   -0.2600177  0.00    0.0515307    0.0379792   -0.0018881
c     2.1994521    0.6909033   -0.3076558  0.00    0.0562960   -0.0336279   -0.0085944
c     1.7579121   -0.5928449   -0.3813595  0.00   -0.0369504   -0.0344633    0.0021310
h    -0.2626465   -1.4622907   -0.2734343  0.00    0.0117485    0.0148500   -0.0006850
c     3.6292514    1.1420159   -0.5326132  0.00   -0.0034744    0.0135822    0.0027906
c     4.1054490    2.1839857    0.5040035  0.00   -0.0420243    0.0176259   -0.0377411
h     3.7014038    1.5738148   -1.5634476  0.00    0.0017442    0.0017011   -0.0064397
h     4.3162962    0.2588791   -0.5087546  0.00    0.0026388   -0.0059453   -0.0004917
c     5.4353376    2.8097626    0.0853361  0.00    0.1440485   -0.0693048    0.0334607
n     4.1834259    1.6261023    1.8923915  0.00    0.0206260    0.0052195    0.0454603
h     3.3931504    3.0275956    0.5048550  0.00   -0.2064900    0.0574866   -0.0706134
h     3.9759752    0.6015361    1.8707848  0.00    0.0033468    0.0018070   -0.0076566
h     5.1681217    1.6739726    2.2284027  0.00   -0.0086666    0.0027432   -0.0163907
h    -2.4067537    3.0396670    0.1621376  0.00   -0.0007320    0.0002386    0.0000255
h    -2.1515929    0.5844966   -0.0135513  0.00   -0.0024149    0.0004870   -0.0000468
h    -0.4245172    4.4932376    0.1624348  0.00    0.0002361    0.0011318    0.0001597
h     1.8228147    3.5380258   -0.0047145  0.00    0.2025355   -0.0580024    0.0729515
h     2.3498612   -1.4862576   -0.5654119  0.00   -0.0131370   -0.0083619    0.0004355
o     6.5870417    2.1600310    0.1512138  0.00   -0.0975162    0.0530608   -0.0113248
o     5.3813422    4.0944449   -0.4280338  0.00   -0.0345173   -0.0294782   -0.0455125
h     5.8383540    4.7049067    0.2760894  0.00    0.0077101    0.0228368    0.0431310
    27
 Energy =       0.2248244642
c    -1.4276655    2.5858135    0.1790285  0.00   -0.0115424    0.0100361    0.0004108
c    -1.2829463    1.2285575    0.0477145  0.00   -0.0210914   -0.0086747    0.0003649
c    -0.0245169    0.7250809   -0.0874726  0.00   -0.0215130   -0.0426357    0.0010228
c    -0.3271577    3.4059211    0.1805353  0.00   -0.0056984    0.0176133    0.0002430
c     0.9326823    2.8805606    0.0377183  0.00    0.0102690    0.0169313    0.0015417
c     1.0692383    1.5187484   -0.1152262  0.00    0.0125306    0.0135763    0.0006106
n     0.3450467   -0.6232868   -0.2799320  0.00    0.0319627    0.0233688   -0.0010219
c     2.1742266    0.7310553   -0.3337338  0.00    0.0357344   -0.0213191   -0.0043998
c     1.7528458   -0.5518324   -0.4370066  0.00   -0.0228572   -0.0216382    0.0013553
h    -0.2649924   -1.4640456   -0.3020758  0.00    0.0074258    0.0091598   -0.0004933
c     3.5963341    1.1928728   -0.5982127  0.00   -0.0035257    0.0076600    0.0004314
c     4.1199467    2.1584258    0.4884954  0.00   -0.0252895    0.0127535   -0.0263321
h     3.6219578    1.6945042   -1.6003720  0.00    0.0009191    0.0022542   -0.0076460
h     4.2845810    0.3109196   -0.6634058  0.00    0.0039974   -0.0067996   -0.0006085
c     5.4236875    2.8294293    0.0692602  0.00    0.0905959   -0.0423683    0.0246150
n     4.2287912    1.5054080    1.8305811  0.00    0.0130303    0.0039495    0.0353510
h     3.4078503    2.9996282    0.5641480  0.00   -0.1435842    0.0413339   -0.0499317
h     4.0429414    0.4767955    1.7528618  0.00    0.0019179   -0.0021479   -0.0039889
h     5.2145301    1.5600191    2.1714645  0.00   -0.0052473    0.0014029   -0.0103663
h    -2.4214948    3.0146044    0.2899989  0.00   -0.0008461    0.0004925    0.0000563
h    -2.1466295    0.5707732    0.0437952  0.00   -0.0015755    0.0002627   -0.0000448
h    -0.4530155    4.4803318    0.3030484  0.00   -0.0000338    0.0013632    0.0001624
h     1.7904598    3.5512385    0.0806834  0.00    0.1393191   -0.0391178    0.0515649
h     2.3682488   -1.4190722   -0.6709974  0.00   -0.0071573   -0.0065652   -0.0001461
o     6.6053118    2.1770703    0.0669136  0.00   -0.0589509    0.0317742   -0.0085266
o     5.3544349    4.1372665   -0.3865814  0.00   -0.0444717   -0.0345771   -0.0557853
h     5.9971071    4.6984262    0.2224491  0.00    0.0256823    0.0319117    0.0515610
    27
 Energy =       0.2166563495
c    -1.4353834    2.5609853    0.3038996  0.00   -0.0089309    0.0081783    0.0002798
c    -1.2825144    1.2109884    0.1341364  0.00   -0.0162342   -0.0065792    0.0002442
c    -0.0264475    0.7216095   -0.0429643  0.00   -0.0162208   -0.0317532    0.0009641
c    -0.3424241    3.3879852    0.3034145  0.00   -0.0049182    0.0137056    0.0001577
c     0.9160102    2.8770208    0.1181175  0.00    0.0080322    0.0129028    0.0011338
c     1.0575750    1.5227560   -0.0771340  0.00    0.0089116    0.0100389    0.0005717
n     0.3436374   -0.6224535   -0.2798119  0.00    0.0235107    0.0169550   -0.0006582
c     2.1592074    0.7534887   -0.3494666  0.00    0.0268565   -0.0162869   -0.0027846
c     1.7488606   -0.5285026   -0.4765387  0.00   -0.0163599   -0.0162878    0.0008931
h    -0.2610430   -1.4691242   -0.3068111  0.00    0.0055585    0.0067539   -0.0003873
c     3.5699565    1.2289660   -0.6565098  0.00   -0.0029590    0.0058076   -0.0008838
c     4.1397639    2.1396213    0.4528061  0.00   -0.0188131    0.0102502   -0.0225900
h     3.5503109    1.7783841   -1.6338154  0.00    0.0005140    0.0025066   -0.0079547
h     4.2570922    0.3539405   -0.7945493  0.00    0.0047185   -0.0069911   -0.0008351
c     5.4019374    2.8680152    0.0037030  0.00    0.0669459   -0.0317020    0.0190795
n     4.3209046    1.4157323    1.7505279  0.00    0.0089008    0.0024947    0.0326007
h     3.4169009    2.9607220    0.6088557  0.00   -0.1130126    0.0337840   -0.0389149
h     4.1663029    0.3850287    1.6277648  0.00    0.0016710   -0.0043789   -0.0020422
h     5.3163332    1.4891707    2.0645985  0.00   -0.0028925    0.0005224   -0.0071560
h    -2.4299410    2.9788317    0.4487520  0.00   -0.0011856    0.0007586    0.0001269
h    -2.1404364    0.5459839    0.1327538  0.00   -0.0012494    0.0001949   -0.0000348
h    -0.4736737    4.4577397    0.4589876  0.00   -0.0002663    0.0015913    0.0002097
h     1.7670053    3.5561651    0.1655193  0.00    0.1073902   -0.0296253    0.0405974
h     2.3716279   -1.3774598   -0.7571586  0.00   -0.0044961   -0.0058435   -0.0004577
o     6.6156594    2.2533882   -0.0644999  0.00   -0.0401477    0.0221845   -0.0072951
o     5.2772100    4.1878447   -0.4106979  0.00   -0.0383132   -0.0252387   -0.0482454
h     5.9773712    4.7383858    0.1298006  0.00    0.0229897    0.0260571    0.0433811
    27
 Energy =       0.2137131747
c    -1.4237040    2.6241689    0.3233340  0.00   -0.0082610    0.0074389    0.0002712
c    -1.2916173    1.2730497    0.1501445  0.00   -0.0148179   -0.0060453    0.0002174
c    -0.0451823    0.7663908   -0.0385161  0.00   -0.0146080   -0.0286670    0.0008779
c    -0.3190855    3.4351895    0.3141521  0.00   -0.0045035    0.0125625    0.0001683
c     0.9299128    2.9065636    0.1171835  0.00    0.0074020    0.0117607    0.0010297
c     1.0490605    1.5513999   -0.0799229  0.00    0.0081186    0.0090548    0.0005176
n     0.3019095   -0.5838035   -0.2781235  0.00    0.0211576    0.0151545   -0.0005980
c     2.1360819    0.7676089   -0.3595429  0.00    0.0243482   -0.0147237   -0.0025082
c     1.7079322   -0.5082859   -0.4843502  0.00   -0.0145985   -0.0148407    0.0007674
h    -0.3162966   -1.4215526   -0.3012293  0.00    0.0048736    0.0059163   -0.0003502
c     3.5531618    1.2203440   -0.6684609  0.00   -0.0028440    0.0050796   -0.0008618
c     4.1454725    2.1112046    0.4446599  0.00   -0.0176897    0.0088381   -0.0205827
h     3.5402668    1.7772125   -1.6407861  0.00    0.0004082    0.0022985   -0.0072456
h     4.2240234    0.3346144   -0.8149395  0.00    0.0044167   -0.0064704   -0.0007555
c     5.4414531    2.7857871    0.0036279  0.00    0.0577123   -0.0275187    0.0182905
n     4.2893087    1.3806726    1.7424752  0.00    0.0066762    0.0033716    0.0296348
h     3.4507191    2.9587360    0.5932415  0.00   -0.1030225    0.0311201   -0.0353231
h     4.0864524    0.3571589    1.6223024  0.00    0.0011902   -0.0058535   -0.0019065
h     5.2869388    1.4076888    2.0612458  0.00   -0.0009223    0.0004882   -0.0059100
h    -2.4109484    3.0559049    0.4774994  0.00   -0.0012321    0.0007507    0.0001379
h    -2.1588058    0.6200685    0.1556148  0.00   -0.0012484    0.0000893   -0.0000305
h    -0.4336428    4.5065783    0.4715702  0.00   -0.0002653    0.0015845    0.0002112
h     1.7916730    3.5729833    0.1549034  0.00    0.0975218   -0.0266878    0.0368068
h     2.3195116   -1.3648382   -0.7665315  0.00   -0.0039963   -0.0053562   -0.0004409
o     6.6169450    2.0946351   -0.1075856  0.00   -0.0316329    0.0164755   -0.0071039
o     5.3859045    4.1197029   -0.3837633  0.00   -0.0367695   -0.0210418   -0.0459021
h     6.1243587    4.6260310    0.1454769  0.00    0.0225866    0.0252215    0.0405881
    27
 Energy =       0.2124886007
c    -1.4203574    2.6327787    0.3770093  0.00   -0.0078011    0.0068792    0.0002538
c    -1.2931576    1.2817881    0.2025784  0.00   -0.0139079   -0.0055992    0.0002064
c    -0.0509549    0.7730673   -0.0035360  0.00   -0.0135879   -0.0266813    0.0008044
c    -0.3145367    3.4415652    0.3516379  0.00   -0.0042302    0.0117511    0.0001673
c     0.9301267    2.9106355    0.1365411  0.00    0.0070044    0.0109059    0.0009417
c     1.0431463    1.5559577   -0.0614842  0.00    0.0075690    0.0084461    0.0004941
n     0.2899119   -0.5785481   -0.2460192  0.00    0.0194151    0.0141232   -0.0004817
c     2.1237878    0.7719554   -0.3579898  0.00    0.0226169   -0.0137125   -0.0023054
c     1.6931119   -0.5032746   -0.4760550  0.00   -0.0133571   -0.0137703    0.0006673
h    -0.3298546   -1.4158362   -0.2579792  0.00    0.0044578    0.0054251   -0.0003181
c     3.5352512    1.2239527   -0.6919309  0.00   -0.0026338    0.0047952   -0.0010771
c     4.1531972    2.1027771    0.4168270  0.00   -0.0166047    0.0084620   -0.0195153
h     3.5040676    1.7893145   -1.6585592  0.00    0.0003449    0.0021887   -0.0069455
h     4.2009225    0.3386036   -0.8608583  0.00    0.0043257   -0.0061673   -0.0007501
c     5.4387954    2.7799686   -0.0480194  0.00    0.0489791   -0.0230651    0.0186013
n     4.3261347    1.3577549    1.7020402  0.00    0.0060624    0.0030836    0.0281612
h     3.4618736    2.9485752    0.5909193  0.00   -0.0962452    0.0291748   -0.0328785
h     4.1351834    0.3331680    1.5723339  0.00    0.0011462   -0.0056681   -0.0016373
h     5.3277994    1.3952187    2.0076667  0.00   -0.0005735    0.0004412   -0.0054745
h    -2.4045444    3.0662921    0.5451646  0.00   -0.0012536    0.0007212    0.0001419
h    -2.1612398    0.6301906    0.2210896  0.00   -0.0012492    0.0000495   -0.0000237
h    -0.4247367    4.5131685    0.5100807  0.00   -0.0002536    0.0014851    0.0001981
h     1.7943271    3.5746454    0.1603733  0.00    0.0909869   -0.0248137    0.0343163
h     2.3004593   -1.3590245   -0.7694081  0.00   -0.0036438   -0.0050190   -0.0004351
o     6.5942895    2.0687335   -0.2663387  0.00   -0.0232908    0.0106936   -0.0077529
o     5.3846534    4.1295870   -0.3800605  0.00   -0.0359000   -0.0178550   -0.0437096
h     6.1441466    4.6121988    0.1376563  0.00    0.0216240    0.0237256    0.0383511
    27
 Energy =       0.2105161591
c    -1.4146059    2.6625588    0.3680091  0.00   -0.0076182    0.0066726    0.0002589
c    -1.2970244    1.3137793    0.1733699  0.00   -0.0134106   -0.0055945    0.0001777
c    -0.0582285    0.7984845   -0.0341217  0.00   -0.0131069   -0.0256701    0.0008065
c    -0.3024780    3.4627628    0.3616349  0.00   -0.0039489    0.0114647    0.0001652
c     0.9393001    2.9257548    0.1459781  0.00    0.0067635    0.0107157    0.0009241
c     1.0428244    1.5729706   -0.0734304  0.00    0.0073371    0.0081297    0.0004497
n     0.2709201   -0.5524294   -0.2969347  0.00    0.0186481    0.0133807   -0.0005085
c     2.1182146    0.7829968   -0.3743576  0.00    0.0217242   -0.0130843   -0.0021932
c     1.6767977   -0.4864232   -0.5136425  0.00   -0.0128706   -0.0134182    0.0006402
h    -0.3570346   -1.3836077   -0.3273326  0.00    0.0040746    0.0049247   -0.0003216
c     3.5387846    1.2220143   -0.6887528  0.00   -0.0025388    0.0046353   -0.0011548
c     4.1545500    2.0816977    0.4349531  0.00   -0.0163961    0.0086402   -0.0192449
h     3.5245778    1.7974998   -1.6496934  0.00    0.0003032    0.0022126   -0.0068470
h     4.1962205    0.3307963   -0.8576838  0.00    0.0042231   -0.0059682   -0.0007030
c     5.4612605    2.7390341   -0.0010502  0.00    0.0416653   -0.0194730    0.0183449