    27
 Energy =       1.6581397736
c    -1.4235396    2.6054793   -0.0667700  0.00   -0.0462928    0.0382734    0.0027753
c    -1.3072796    1.2134697   -0.1072300  0.00   -0.0853091   -0.0326055    0.0020445
c    -0.0178900    0.6711998   -0.1697000  0.00   -0.0888864   -0.1875369   -0.0012372
c    -0.2940599    3.4190890   -0.0891300  0.00   -0.0231620    0.0690737    0.0029470
c     0.9872197    2.8590292   -0.1560400  0.00    0.0104935    0.0642239    0.0010136
c     1.1340797    1.4562096   -0.1970299  0.00    0.0531765    0.0519505    0.0020400
n     0.3879399   -0.6395298   -0.2140799  0.00    0.1515133    0.1037167   -0.0034736
c     2.2666594    0.5727398   -0.2659299  0.00    0.1818791   -0.1109819   -0.0274693
c     1.7555995   -0.7123598   -0.2706899  0.00    0.4357976   -0.3534538   -0.1209033
h    -0.2400399   -1.4313496   -0.2047299  0.00    0.0365102    0.0486827   -0.0006642
c     3.7030089    1.0223397   -0.3320099  0.00   -0.0154540   -0.0585123   -0.0321023
c     4.7465686   -0.0024900    0.1378100  0.00   -0.0377699    0.0582926   -0.2057342
h     3.7978489    1.9290294    0.2803699  0.00   -0.0065996   -0.0117462   -0.0084314
h     3.9233889    1.3348996   -1.3618196  0.00   -0.0022783   -0.0033450    0.0137901
c     4.0794588   -1.3874696    0.2290469  0.00   -0.6598363   -0.2545833    0.1366777
n     5.3279785    0.3096829    1.4916396  0.00    0.0280168   -0.0612087    0.0991468
h     5.5718884   -0.0881456   -0.5788308  0.00   -0.0140105   -0.0020249    0.0160843
h     4.5420087    0.3915579    2.1448294  0.00    0.0261772   -0.0080586   -0.0307299
h     5.8295483   -0.5253719    1.8140895  0.00   -0.0337155    0.0219699   -0.0193171
h    -2.4108593    3.0588691   -0.0157800  0.00   -0.0008158    0.0002707    0.0000176
h    -2.1896094    0.5822398   -0.0890100  0.00   -0.0036501    0.0038513    0.0000345
h    -0.4052699    4.5000487   -0.0535400  0.00    0.0008716    0.0002556    0.0002672
h     1.8590495    3.5066790   -0.1715100  0.00   -0.0005693    0.0027039    0.0007154
h     2.2327294   -1.6813195   -0.3062999  0.00    9.4047547   -0.3213115   -4.4428676
o     4.0497088   -2.0971794    1.2206797  0.00    0.0107856    0.1809373   -0.2352997
o     3.5096590   -1.7376895   -0.9555417  0.00   -9.3094616    0.7033117    4.6995713
h     3.7130689   -0.9855447   -1.5699596  0.00   -0.0121648    0.0578547    0.1511046
    27
 Energy =       1.5361355124
c    -1.4406871    2.5208679   -0.0174668  0.00   -0.0426298    0.0353514    0.0025507
c    -1.3007682    1.1332268   -0.0690537  0.00   -0.0785811   -0.0301925    0.0019416
c    -0.0056227    0.6138445   -0.1292234  0.00   -0.0821245   -0.1700980   -0.0004457
c    -0.3268646    3.3529254   -0.0345793  0.00   -0.0212177    0.0637104    0.0026816
c     0.9599896    2.8159656   -0.1059354  0.00    0.0099403    0.0590919    0.0008617
c     1.1262639    1.4202491   -0.1519567  0.00    0.0482736    0.0482990    0.0017180
n     0.4245344   -0.6952212   -0.2296856  0.00    0.1390654    0.0937451   -0.0038517
c     2.2710103    0.5705117   -0.2440895  0.00    0.1655990   -0.1027143   -0.0245552
c     1.8006312   -0.7233103   -0.2731935  0.00    0.4018954   -0.3256805   -0.1118416
h    -0.1801454   -1.5095815   -0.2504285  0.00    0.0326936    0.0433748   -0.0008435
c     3.6894563    1.0548869   -0.3849221  0.00   -0.0147117   -0.0555389   -0.0277369
c     4.7565560    0.0752107    0.1326514  0.00   -0.0376156    0.0523150   -0.1909821
h     3.7922755    2.0142026    0.1502497  0.00   -0.0049858   -0.0068516   -0.0061438
h     3.8708140    1.2886874   -1.4483615  0.00   -0.0021293   -0.0029205    0.0082131
c     4.1635466   -1.3473397    0.1706073  0.00   -0.6084363   -0.2382280    0.1210967
n     5.2290193    0.4196247    1.5227319  0.00    0.0324075   -0.0506567    0.0935771
h     5.6323556    0.0466468   -0.5338011  0.00   -0.0094165   -0.0024788    0.0127370
h     4.3832556    0.4833810    2.1101364  0.00    0.0182271   -0.0063540   -0.0246158
h     5.7367058   -0.3892825    1.9078047  0.00   -0.0280630    0.0180443   -0.0156594
h    -2.4359118    2.9570429    0.0326999  0.00   -0.0009229    0.0003310    0.0000251
h    -2.1720134    0.4862360   -0.0676858  0.00   -0.0036192    0.0033295    0.0000252
h    -0.4566438    4.4318334    0.0055182  0.00    0.0007903    0.0004302    0.0002502
h     1.8208068    3.4781722   -0.1236028  0.00   -0.0003125    0.0025533    0.0006163
h     2.3046025   -1.6421281   -0.3617557  0.00    8.6709865   -0.2965305   -4.0950057
o     4.1098493   -2.0655410    1.1727509  0.00    0.0090713    0.1659562   -0.2156216
o     3.5894926   -1.7033403   -1.0143208  0.00   -8.5825623    0.6472508    4.3318103
h     3.7863560   -0.9436580   -1.6222542  0.00   -0.0116218    0.0544615    0.1391982
    27
 Energy =       1.3473172388
c    -1.4343874    2.4766310   -0.0119053  0.00   -0.0361159    0.0300534    0.0021863
c    -1.2860516    1.0951654   -0.0730529  0.00   -0.0667075   -0.0256517    0.0017007
c     0.0049991    0.5850495   -0.1336183  0.00   -0.0697608   -0.1441716    0.0000397
c    -0.3276652    3.3121489   -0.0222079  0.00   -0.0179651    0.0540794    0.0022755
c     0.9566697    2.7832115   -0.0947318  0.00    0.0085581    0.0501469    0.0007198
c     1.1238841    1.3955072   -0.1483248  0.00    0.0407723    0.0412071    0.0014739
n     0.4338790   -0.7292693   -0.2572397  0.00    0.1177063    0.0792961   -0.0037020
c     2.2680282    0.5680548   -0.2456788  0.00    0.1410734   -0.0876637   -0.0207893
c     1.8195187   -0.7278815   -0.2915396  0.00    0.3475925   -0.2803524   -0.0962576
h    -0.1632326   -1.5548519   -0.2932885  0.00    0.0276307    0.0365209   -0.0009186
c     3.6821145    1.0694645   -0.3942588  0.00   -0.0134864   -0.0473347   -0.0231045
c     4.7587723    0.1133332    0.1595176  0.00   -0.0334047    0.0444685   -0.1636216
h     3.7754469    2.0474983    0.1118198  0.00   -0.0042822   -0.0051713   -0.0049755
h     3.8658670    1.2768858   -1.4643812  0.00   -0.0019346   -0.0024914    0.0064935
c     4.2245887   -1.3290228    0.1426008  0.00   -0.5221746   -0.2037098    0.0991886
n     5.1529893    0.4741215    1.5679166  0.00    0.0340341   -0.0344437    0.0711562
h     5.6673732    0.1303114   -0.4683605  0.00   -0.0060043   -0.0021834    0.0097362
h     4.2658350    0.6287440    2.0899461  0.00    0.0051939   -0.0035343   -0.0161861
h     5.5779527   -0.3483010    2.0427021  0.00   -0.0181997    0.0065830   -0.0063499
h    -2.4321221    2.9067850    0.0390075  0.00   -0.0008057    0.0002872    0.0000587
h    -2.1524053    0.4417323   -0.0809558  0.00   -0.0031327    0.0027714    0.0000196
h    -0.4629918    4.3901504    0.0242534  0.00    0.0006719    0.0003923    0.0002710
h     1.8147094    3.4487694   -0.1081582  0.00   -0.0001767    0.0021122    0.0005806
h     2.3485014   -1.6217439   -0.3891035  0.00    7.4622540   -0.2540761   -3.5238906
o     4.1424385   -2.0731021    1.1535292  0.00    0.0067415    0.1407263   -0.1824880
o     3.6474078   -1.6859921   -1.0506281  0.00   -7.3879317    0.5551670    3.7270673
h     3.8567447   -0.9292861   -1.6610252  0.00   -0.0101461    0.0469727    0.1193161
    27
 Energy =       1.1905260465
c    -1.4232273    2.4828763   -0.0449752  0.00   -0.0307759    0.0256808    0.0018237
c    -1.2791993    1.1051279   -0.1051249  0.00   -0.0569349   -0.0218557    0.0014769
c     0.0042552    0.5915613   -0.1595143  0.00   -0.0594839   -0.1230350    0.0000675
c    -0.3150793    3.3115086   -0.0492881  0.00   -0.0153278    0.0462103    0.0018455
c     0.9632155    2.7774452   -0.1124495  0.00    0.0074127    0.0428531    0.0004779
c     1.1197342    1.3944116   -0.1645085  0.00    0.0347172    0.0352642    0.0011535
n     0.4193101   -0.7317437   -0.2784807  0.00    0.1004144    0.0676445   -0.0032052
c     2.2566237    0.5729478   -0.2474818  0.00    0.1206174   -0.0753074   -0.0180625
c     1.8125266   -0.7213338   -0.3020057  0.00    0.3009797   -0.2412609   -0.0833270
h    -0.1825020   -1.5584304   -0.3201551  0.00    0.0235517    0.0312062   -0.0006100
c     3.6757112    1.0760124   -0.3654337  0.00   -0.0114712   -0.0406813   -0.0196023
c     4.7486487    0.1231081    0.2007669  0.00   -0.0290781    0.0364397   -0.1404734
h     3.7601923    2.0495370    0.1534139  0.00   -0.0035114   -0.0044144   -0.0040601
h     3.8797070    1.2913887   -1.4313427  0.00   -0.0014723   -0.0021861    0.0053105
c     4.2509255   -1.3251893    0.1428994  0.00   -0.4497479   -0.1744082    0.0829327
n     5.0854479    0.4741597    1.6207740  0.00    0.0385644   -0.0149925    0.0484348
h     5.6763886    0.1737025   -0.4009049  0.00   -0.0042291   -0.0019387    0.0079392
h     4.1728905    0.4699909    2.1508792  0.00   -0.0142779   -0.0033430   -0.0042449
h     5.6347867   -0.3133149    2.0462795  0.00   -0.0073588   -0.0071368   -0.0016112
h    -2.4194073    2.9171063   -0.0003637  0.00   -0.0006572    0.0003356   -0.0000019
h    -2.1469043    0.4537421   -0.1172590  0.00   -0.0026617    0.0024324    0.0000578
h    -0.4455138    4.3902623   -0.0055105  0.00    0.0006484    0.0004053    0.0000876
h     1.8251224    3.4379734   -0.1210013  0.00   -0.0000403    0.0018220    0.0003336
h     2.3571780   -1.6134029   -0.3854967  0.00    6.4543474   -0.2201374   -3.0475174
o     4.1375576   -2.0802391    1.1673937  0.00    0.0051095    0.1206495   -0.1548554
o     3.6698460   -1.6788004   -1.0560654  0.00   -6.3908192    0.4790205    3.2229774
h     3.8906298   -0.9262944   -1.6722108  0.00   -0.0085153    0.0407333    0.1026526
    27
 Energy =       1.0228302938
c    -1.4204444    2.4741601   -0.0661627  0.00   -0.0252061    0.0208118    0.0015181
c    -1.2781310    1.1022383   -0.1549245  0.00   -0.0463501   -0.0182829    0.0013575
c    -0.0014213    0.5879702   -0.1936097  0.00   -0.0475040   -0.0979640    0.0016413
c    -0.3120744    3.2970943   -0.0321343  0.00   -0.0121156    0.0378393    0.0013958
c     0.9613476    2.7609646   -0.0794994  0.00    0.0062714    0.0350733    0.0002206
c     1.1096287    1.3843253   -0.1546571  0.00    0.0283724    0.0291747    0.0008740
n     0.4010731   -0.7385349   -0.3724640  0.00    0.0785016    0.0536082   -0.0046460
c     2.2413804    0.5731391   -0.2249625  0.00    0.0991198   -0.0610301   -0.0148205
c     1.8033940   -0.7187188   -0.3160656  0.00    0.2525029   -0.1975541   -0.0678746
h    -0.2039294   -1.5649938   -0.4789083  0.00    0.0170720    0.0226772   -0.0012809
c     3.6647371    1.0834579   -0.3214396  0.00   -0.0092872   -0.0334513   -0.0160075
c     4.7501536    0.1346764    0.2328449  0.00   -0.0241508    0.0293577   -0.1141396
h     3.7423332    2.0516908    0.2106005  0.00   -0.0028734   -0.0034602   -0.0032395
h     3.8733612    1.3133997   -1.3844309  0.00   -0.0011533   -0.0018041    0.0042231
c     4.2861890   -1.3174491    0.1427663  0.00   -0.3693301   -0.1416424    0.0640073
n     5.0731738    0.4789875    1.6525499  0.00    0.0314157   -0.0112496    0.0387640
h     5.6784282    0.2165264   -0.3677125  0.00   -0.0030756   -0.0015149    0.0061843
h     4.1652640    0.4433409    2.1883758  0.00   -0.0123422   -0.0026700   -0.0030296
h     5.6524650   -0.2925295    2.0681194  0.00   -0.0054880   -0.0066372   -0.0010652
h    -2.4163806    2.9100270   -0.0341902  0.00   -0.0006624    0.0002124    0.0000017
h    -2.1462723    0.4523035   -0.2080886  0.00   -0.0028216    0.0013899   -0.0000120
h    -0.4398438    4.3753865    0.0306096  0.00    0.0006181    0.0005395    0.0000718
h     1.8259376    3.4180512   -0.0564422  0.00    0.0004166    0.0017877    0.0002685
h     2.3694494   -1.6071292   -0.3777378  0.00    5.3557348   -0.1832031   -2.5277195
o     4.1291789   -2.0743407    1.1880003  0.00    0.0027407    0.0980339   -0.1243531
o     3.6999383   -1.6742858   -1.0602760  0.00   -5.3035416    0.3957267    2.6732562
h     3.9199286   -0.9256447   -1.6873272  0.00   -0.0068638    0.0342316    0.0844039
    27
 Energy =       0.9539258313
c    -1.4101253    2.4925378   -0.1566329  0.00   -0.0233319    0.0186354    0.0013885
c    -1.2735113    1.1233026   -0.2653948  0.00   -0.0423649   -0.0168558    0.0013128
c    -0.0016216    0.6028690   -0.2820829  0.00   -0.0432371   -0.0889578    0.0019425
c    -0.2984149    3.3070534   -0.0819740  0.00   -0.0107798    0.0346589    0.0012647
c     0.9712357    2.7638603   -0.1033435  0.00    0.0060705    0.0319526    0.0001563
c     1.1108420    1.3898890   -0.1963418  0.00    0.0254280    0.0268381    0.0007257
n     0.3932078   -0.7246075   -0.4824657  0.00    0.0676728    0.0493394   -0.0051651
c     2.2375919    0.5755400   -0.2293786  0.00    0.0896490   -0.0560106   -0.0135266
c     1.7951529   -0.7112605   -0.3436718  0.00    0.2294988   -0.1761966   -0.0615810
h    -0.2138880   -1.5452165   -0.6376614  0.00    0.0141679    0.0191017   -0.0015965
c     3.6719915    1.0777904   -0.2493942  0.00   -0.0069393   -0.0304296   -0.0138959
c     4.7427592    0.1182122    0.3224619  0.00   -0.0221146    0.0266342   -0.1032555
h     3.7303827    2.0346756    0.3070143  0.00   -0.0022979   -0.0027545   -0.0025785
h     3.9251180    1.3306575   -1.2990611  0.00   -0.0006974   -0.0014447    0.0026046
c     4.2946216   -1.3339227    0.1989950  0.00   -0.3353505   -0.1278611    0.0571338
n     5.0306999    0.4504436    1.7508523  0.00    0.0291347   -0.0099019    0.0356647
h     5.6859659    0.2125027   -0.2544175  0.00   -0.0024033   -0.0012800    0.0053614
h     4.1130628    0.4020608    2.2686227  0.00   -0.0116099   -0.0024241   -0.0024461
h     5.6099573   -0.3181669    2.1715609  0.00   -0.0049392   -0.0060361   -0.0009192
h    -2.4042003    2.9338713   -0.1427582  0.00   -0.0008336    0.0001522   -0.0000025
h    -2.1436456    0.4790353   -0.3534966  0.00   -0.0030893    0.0008722   -0.0000588
h    -0.4209736    4.3850919   -0.0046779  0.00    0.0006581    0.0006361    0.0000735
h     1.8397480    3.4143099   -0.0429020  0.00    0.0009879    0.0020674    0.0002734
h     2.3762381   -1.6098797   -0.3277026  0.00    4.8841130   -0.1699321   -2.3012093
o     4.0883863   -2.0979023    1.2430250  0.00    0.0015878    0.0882070   -0.1115473
o     3.7137591   -1.6762247   -1.0210258  0.00   -4.8330763    0.3592683    2.4337600
h     3.9645242   -0.9324093   -1.6453151  0.00   -0.0059035    0.0317214    0.0761205
    27
 Energy =       0.8152022368
c    -1.3765183    2.5422587   -0.2154070  0.00   -0.0187584    0.0151357    0.0009128
c    -1.2628729    1.1723699   -0.2885282  0.00   -0.0336686   -0.0135869    0.0007314
c    -0.0062529    0.6291357   -0.2727048  0.00   -0.0338020   -0.0676776    0.0009826
c    -0.2524244    3.3345993   -0.1399733  0.00   -0.0089836    0.0276501    0.0009561
c     1.0036392    2.7667541   -0.1303275  0.00    0.0050843    0.0254905    0.0001244
c     1.1147061    1.3927229   -0.1904195  0.00    0.0202889    0.0209078    0.0002625
n     0.3517571   -0.7205257   -0.4072240  0.00    0.0543434    0.0361832   -0.0042684
c     2.2229366    0.5655967   -0.1956893  0.00    0.0713065   -0.0442730   -0.0108549
c     1.7612431   -0.7187173   -0.2884108  0.00    0.1851715   -0.1400966   -0.0485196
h    -0.2757774   -1.5363824   -0.5259599  0.00    0.0103446    0.0139291   -0.0018483
c     3.6696550    1.0526618   -0.2286085  0.00   -0.0053943   -0.0241330   -0.0109192
c     4.7481953    0.0833246    0.3235978  0.00   -0.0184206    0.0208872   -0.0811653
h     3.7435773    2.0063605    0.3333971  0.00   -0.0018147   -0.0021214   -0.0015631
h     3.9121889    1.3087896   -1.2802297  0.00   -0.0003996   -0.0010834    0.0023240
c     4.2864883   -1.3619970    0.2060484  0.00   -0.2568817   -0.0931746    0.0264213
n     5.0645484    0.4229480    1.7408071  0.00    0.0234986   -0.0071298    0.0287243
h     5.6792203    0.1727073   -0.2751144  0.00   -0.0016424   -0.0009906    0.0044601
h     4.1606650    0.3817305    2.2819331  0.00   -0.0098411   -0.0021334   -0.0013727
h     5.6524144   -0.3428343    2.1539492  0.00   -0.0039498   -0.0049472   -0.0002817
h    -2.3623939    3.0026426   -0.2308689  0.00   -0.0012309    0.0004737   -0.0004617
h    -2.1424206    0.5407803   -0.3730436  0.00   -0.0024964    0.0005434   -0.0006176
h    -0.3552891    4.4168244   -0.0911135  0.00    0.0002905    0.0011158   -0.0001027
h     1.8841113    3.4008923   -0.0733518  0.00    0.0009041    0.0018035    0.0002445
h     2.3354558   -1.6361840   -0.3090643  0.00    3.9528994   -0.1406252   -1.8606812
o     3.9296332   -2.0547415    1.2988507  0.00   -0.0100734    0.0615880   -0.0731512
o     3.6940962   -1.7007484   -1.0156585  0.00   -3.9118373    0.2902251    1.9689871
h     3.9482821   -0.9768555   -1.6640519  0.00   -0.0049372    0.0260396    0.0606764
    27
 Energy =       0.7545197192
c    -1.3944434    2.5035331   -0.1442224  0.00   -0.0173353    0.0136090    0.0007965
c    -1.2683865    1.1351195   -0.2030264  0.00   -0.0308085   -0.0124651    0.0005770
c    -0.0076941    0.6049643   -0.2063198  0.00   -0.0307113   -0.0613365    0.0007227
c    -0.2775091    3.3072356   -0.1008506  0.00   -0.0080090    0.0253383    0.0008849
c     0.9828277    2.7523805   -0.1130964  0.00    0.0049255    0.0231636    0.0001409
c     1.1048859    1.3805621   -0.1607530  0.00    0.0181459    0.0192953    0.0002396
n     0.3595562   -0.7460307   -0.3233803  0.00    0.0461493    0.0334464   -0.0035972
c     2.2202743    0.5696654   -0.1971493  0.00    0.0643066   -0.0407750   -0.0093621
c     1.7773705   -0.7201918   -0.2788512  0.00    0.1716574   -0.1269809   -0.0445281
h    -0.2625978   -1.5734874   -0.3990058  0.00    0.0082976    0.0113780   -0.0017499
c     3.6577644    1.0725183   -0.2921810  0.00   -0.0041313   -0.0220548   -0.0094025
c     4.7480359    0.1297884    0.2767942  0.00   -0.0172604    0.0189899   -0.0740149
h     3.7427946    2.0478937    0.2318858  0.00   -0.0012101   -0.0010663   -0.0009856
h     3.8716074    1.2886882   -1.3603452  0.00   -0.0002598   -0.0008020    0.0007808
c     4.3325963   -1.3295651    0.1406051  0.00   -0.2310357   -0.0780497    0.0146694
n     5.0225449    0.4753823    1.6998604  0.00    0.0222349   -0.0044099    0.0261731
h     5.6889389    0.2498202   -0.3024576  0.00   -0.0008514   -0.0008923    0.0037938
h     4.1122340    0.3942097    2.2263131  0.00   -0.0103616   -0.0019089   -0.0006513
h     5.6390171   -0.2646747    2.1196270  0.00   -0.0026868   -0.0053340    0.0000318
h    -2.3851877    2.9538133   -0.1437165  0.00   -0.0013361    0.0004374   -0.0004268
h    -2.1431121    0.4932752   -0.2591583  0.00   -0.0026691    0.0002251   -0.0005911
h    -0.3900409    4.3889392   -0.0621259  0.00    0.0003194    0.0011279   -0.0000871
h     1.8578088    3.3964341   -0.0859338  0.00    0.0012671    0.0019298    0.0002236
h     2.3613647   -1.6190306   -0.3573134  0.00    3.6004891   -0.1287457   -1.6929464
o     4.0883863   -2.0947668    1.2241963  0.00   -0.0129945    0.0484537   -0.0595572
o     3.7322110   -1.6879751   -1.0631485  0.00   -3.5618776    0.2630432    1.7941211
h     3.9576169   -0.9643879   -1.7234124  0.00   -0.0042542    0.0243836    0.0547449
    27
 Energy =       0.7068364387
c    -1.4142845    2.4636873   -0.0700706  0.00   -0.0162162    0.0124213    0.0007115
c    -1.2744832    1.0971160   -0.1205560  0.00   -0.0285828   -0.0115244    0.0004783
c    -0.0094927    0.5806714   -0.1429046  0.00   -0.0284124   -0.0564577    0.0005683
c    -0.3057892    3.2790712   -0.0534244  0.00   -0.0073123    0.0235092    0.0008195
c     0.9589014    2.7378286   -0.0872367  0.00    0.0048069    0.0213056    0.0001397
c     1.0935212    1.3683696   -0.1277601  0.00    0.0164236    0.0179728    0.0002437
n     0.3696062   -0.7693588   -0.2536953  0.00    0.0403966    0.0311961   -0.0030515
c     2.2155224    0.5732296   -0.1949933  0.00    0.0588296   -0.0379370   -0.0082832
c     1.7904287   -0.7216023   -0.2686950  0.00    0.1596406   -0.1163336   -0.0412238
h    -0.2443937   -1.6066298   -0.2985277  0.00    0.0070204    0.0097640   -0.0016229
c     3.6416811    1.0922971   -0.3461534  0.00   -0.0030008   -0.0201546   -0.0083465
c     4.7488616    0.1733319    0.2241169  0.00   -0.0160212    0.0176350   -0.0679796
h     3.7333636    2.0812817    0.1516055  0.00   -0.0007978   -0.0006152   -0.0007006
h     3.8256743    1.2828215   -1.4254967  0.00   -0.0001879   -0.0005993   -0.0000995
c     4.3725066   -1.2964818    0.0764743  0.00   -0.2114341   -0.0652515    0.0049471
n     5.0023734    0.5213791    1.6491466  0.00    0.0207478   -0.0026140    0.0236179
h     5.6907342    0.3205875   -0.3482196  0.00   -0.0004267   -0.0007881    0.0033642
h     4.0941516    0.4048343    2.1727219  0.00   -0.0104844   -0.0018068   -0.0002154
h     5.6472662   -0.1954470    2.0677389  0.00   -0.0017126   -0.0056222    0.0003360
h    -2.4097574    2.9033440   -0.0538445  0.00   -0.0014381    0.0004281   -0.0003948
h    -2.1430900    0.4452271   -0.1542075  0.00   -0.0027416    0.0000333   -0.0005585
h    -0.4290598    4.3598129   -0.0205514  0.00    0.0003212    0.0011248   -0.0000772
h     1.8271138    3.3917647   -0.0849445  0.00    0.0014958    0.0019932    0.0001972
h     2.3815962   -1.6023034   -0.4054985  0.00    3.3207197   -0.1197049   -1.5599262
o     4.2471394   -2.1154704    1.1489581  0.00   -0.0142064    0.0374554   -0.0477051
o     3.7631897   -1.6750652   -1.1102396  0.00   -3.2837075    0.2413464    1.6549487
h     3.9555832   -0.9501835   -1.7809086  0.00   -0.0037195    0.0232239    0.0498126
    27
 Energy =       0.6704326679
c    -1.4358623    2.4194611    0.0127681  0.00   -0.0154622    0.0115104    0.0006536
c    -1.2804178    1.0549625   -0.0322836  0.00   -0.0269978   -0.0108105    0.0004152
c    -0.0106065    0.5537706   -0.0757192  0.00   -0.0267853   -0.0528205    0.0004860
c    -0.3373978    3.2478578    0.0032167  0.00   -0.0068226    0.0221920    0.0007690
c     0.9320253    2.7218353   -0.0542292  0.00    0.0048025    0.0199035    0.0001288
c     1.0814116    1.3548336   -0.0902114  0.00    0.0150468    0.0169968    0.0002816
n     0.3827668   -0.7937490   -0.1861987  0.00    0.0359280    0.0295018   -0.0025829
c     2.2100585    0.5761788   -0.1908614  0.00    0.0546388   -0.0358761   -0.0074444
c     1.8033601   -0.7236658   -0.2572624  0.00    0.1498774   -0.1077513   -0.0385913
h    -0.2208078   -1.6406954   -0.2047562  0.00    0.0060607    0.0085525   -0.0015084
c     3.6219371    1.1127933   -0.3999565  0.00   -0.0019016   -0.0185512   -0.0075899
c     4.7503729    0.2178129    0.1625850  0.00   -0.0149025    0.0166443   -0.0631882
h     3.7184281    2.1127772    0.0750369  0.00   -0.0004382   -0.0003263   -0.0005074
h     3.7723836    1.2824593   -1.4886311  0.00   -0.0001351   -0.0004077   -0.0008882
c     4.4092567   -1.2608712    0.0095720  0.00   -0.1973275   -0.0544635   -0.0033033
n     4.9964490    0.5683506    1.5872964  0.00    0.0194619   -0.0013068    0.0214436
h     5.6874912    0.3899765   -0.4113420  0.00   -0.0001055   -0.0006846    0.0030472
h     4.0954215    0.4206726    2.1154281  0.00   -0.0105577   -0.0017826    0.0001182
h     5.6690806   -0.1264679    2.0004450  0.00   -0.0008839   -0.0058949    0.0006592
h    -2.4362320    2.8472126    0.0462089  0.00   -0.0015910    0.0004401   -0.0003653
h    -2.1415655    0.3922747   -0.0447217  0.00   -0.0028431   -0.0001325   -0.0005287
h    -0.4729754    4.3272659    0.0323295  0.00    0.0003153    0.0011467   -0.0000703
h     1.7919359    3.3865536   -0.0761772  0.00    0.0017243    0.0020878    0.0001663
h     2.3992587   -1.5843508   -0.4569092  0.00    3.1073784   -0.1132914   -1.4584877
o     4.4058925   -2.1182118    1.0670846  0.00   -0.0140985    0.0280000   -0.0373672
o     3.7899981   -1.6605206   -1.1599442  0.00   -3.0710360    0.2246088    1.5483946
h     3.9472011   -0.9344032   -1.8399333  0.00   -0.0033456    0.0225152    0.0458599
    27
 Energy =       0.6278260992
c    -1.4454682    2.4021450    0.0026932  0.00   -0.0140631    0.0105177    0.0005389
c    -1.2828211    1.0392448   -0.0372655  0.00   -0.0245691   -0.0098186    0.0003161
c    -0.0117492    0.5446118   -0.0762827  0.00   -0.0243811   -0.0480146    0.0003776
c    -0.3517836    3.2354411   -0.0073164  0.00   -0.0061871    0.0202238    0.0006627
c     0.9191447    2.7156839   -0.0603732  0.00    0.0044076    0.0181181    0.0000934
c     1.0742682    1.3506331   -0.0913653  0.00    0.0136910    0.0154791    0.0002279
n     0.3878840   -0.8029566   -0.1803394  0.00    0.0326396    0.0268047   -0.0023572
c     2.2053797    0.5801277   -0.1883911  0.00    0.0497934   -0.0327048   -0.0067450
c     1.8090982   -0.7214050   -0.2522400  0.00    0.1371505   -0.0984390   -0.0351607
h    -0.2108674   -1.6541410   -0.1954231  0.00    0.0054757    0.0077559   -0.0014312
c     3.6135280    1.1232120   -0.3982020  0.00   -0.0019290   -0.0169058   -0.0068274
c     4.7429483    0.2402202    0.1790999  0.00   -0.0138493    0.0152438   -0.0581411
h     3.7035657    2.1272971    0.0695859  0.00   -0.0003846   -0.0002519   -0.0003979
h     3.7682390    1.2847777   -1.4873980  0.00   -0.0001053   -0.0003740   -0.0008179
c     4.4419203   -1.2448838   -0.0007554  0.00   -0.1816521   -0.0418043   -0.0119842
n     4.9475139    0.5813525    1.6120208  0.00    0.0184351    0.0003765    0.0200201
h     5.6903443    0.4390646   -0.3703669  0.00    0.0004989   -0.0005699    0.0025476
h     4.0427574    0.3983705    2.1227290  0.00   -0.0107753   -0.0017991    0.0007241
h     5.6383376   -0.0924762    2.0303784  0.00   -0.0002565   -0.0057318    0.0007995
h    -2.4479316    2.8250310    0.0322006  0.00   -0.0014544    0.0004444   -0.0004074
h    -2.1402591    0.3720396   -0.0492781  0.00   -0.0026033   -0.0001006   -0.0005578
h    -0.4927109    4.3142439    0.0173928  0.00    0.0003057    0.0010865   -0.0001086
h     1.7755665    3.3845375   -0.0834176  0.00    0.0016041    0.0019097    0.0001381
h     2.4152302   -1.5740192   -0.4568125  0.00    2.8394329   -0.1035061   -1.3324813
o     4.5646457   -2.1467901    1.0220942  0.00   -0.0124406    0.0168550   -0.0260080
o     3.8161967   -1.6520840   -1.1630806  0.00   -2.8058241    0.2044397    1.4152791
h     3.9558871   -0.9251650   -1.8470530  0.00   -0.0029595    0.0207657    0.0417004
    27
 Energy =       0.5670830900
c    -1.4515101    2.3909230   -0.0013880  0.00   -0.0119425    0.0089873    0.0003869
c    -1.2845200    1.0299602   -0.0369750  0.00   -0.0208955   -0.0083243    0.0001913
c    -0.0141122    0.5393655   -0.0728743  0.00   -0.0207453   -0.0408163    0.0002375
c    -0.3611063    3.2263607   -0.0123961  0.00   -0.0052388    0.0172250    0.0005161
c     0.9096068    2.7101502   -0.0622529  0.00    0.0037782    0.0154172    0.0000496
c     1.0669617    1.3473872   -0.0890380  0.00    0.0116396    0.0131857    0.0001569
n     0.3871346   -0.8096524   -0.1721748  0.00    0.0277161    0.0227857   -0.0020096
c     2.1979916    0.5836395   -0.1845369  0.00    0.0424825   -0.0279552   -0.0057075
c     1.8093055   -0.7185028   -0.2479457  0.00    0.1181797   -0.0844194   -0.0301460
h    -0.2090874   -1.6637195   -0.1837789  0.00    0.0046318    0.0065966   -0.0012834
c     3.6039838    1.1304139   -0.3963668  0.00   -0.0018405   -0.0144488   -0.0057153
c     4.7349106    0.2580019    0.1934044  0.00   -0.0120851    0.0131584   -0.0503893
h     3.6900020    2.1380878    0.0645547  0.00   -0.0003156   -0.0001836   -0.0002726
h     3.7618564    1.2839873   -1.4860668  0.00   -0.0000620   -0.0003148   -0.0006887
c     4.4786046   -1.2319384   -0.0182576  0.00   -0.1590019   -0.0286808   -0.0181092
n     4.8969081    0.5849763    1.6337943  0.00    0.0164024    0.0020482    0.0175674
h     5.6909152    0.4873070   -0.3304915  0.00    0.0011191   -0.0003823    0.0019202
h     3.9911734    0.3630687    2.1268136  0.00   -0.0105391   -0.0017652    0.0013373
h     5.6075032   -0.0655265    2.0561790  0.00    0.0004063   -0.0053075    0.0009258
h    -2.4550419    2.8110296    0.0252313  0.00   -0.0012299    0.0004212   -0.0004420
h    -2.1394557    0.3599738   -0.0481588  0.00   -0.0022232   -0.0000546   -0.0005694
h    -0.5049543    4.3047770    0.0084327  0.00    0.0002849    0.0009582   -0.0001502
h     1.7638955    3.3811480   -0.0870234  0.00    0.0013985    0.0016277    0.0001014
h     2.4259250   -1.5653564   -0.4609391  0.00    2.4473483   -0.0893608   -1.1484527
o     4.7233988   -2.1662377    0.9637618  0.00   -0.0089459    0.0060644   -0.0151664
o     3.8434194   -1.6451034   -1.1738577  0.00   -2.4178426    0.1754973    1.2201642
h     3.9651561   -0.9204070   -1.8648156  0.00   -0.0024793    0.0180407    0.0355475
    27
 Energy =       0.4777434260
c    -1.4521675    2.3896971    0.0023872  0.00   -0.0086337    0.0065542    0.0001671
c    -1.2853300    1.0311674   -0.0302620  0.00   -0.0151519   -0.0060018    0.0000215
c    -0.0186042    0.5405855   -0.0646663  0.00   -0.0150426   -0.0295906    0.0000579
c    -0.3626388    3.2229157   -0.0097455  0.00   -0.0037807    0.0125159    0.0002953
c     0.9051611    2.7059215   -0.0577662  0.00    0.0027635    0.0111982   -0.0000136
c     1.0591803    1.3459724   -0.0818745  0.00    0.0084276    0.0096024    0.0000553
n     0.3769961   -0.8122462   -0.1622863  0.00    0.0200607    0.0165330   -0.0014622
c     2.1861560    0.5868980   -0.1787401  0.00    0.0310952   -0.0205699   -0.0040952
c     1.8008199   -0.7141376   -0.2457578  0.00    0.0892939   -0.0627337   -0.0225514
h    -0.2202692   -1.6672062   -0.1711836  0.00    0.0033379    0.0048119   -0.0010143
c     3.5926470    1.1329749   -0.3935332  0.00   -0.0015843   -0.0106723   -0.0040173
c     4.7257929    0.2697432    0.2070024  0.00   -0.0093249    0.0099653   -0.0381843
h     3.6779136    2.1437758    0.0606489  0.00   -0.0002171   -0.0001085   -0.0001129
h     3.7529486    1.2779541   -1.4837218  0.00   -0.0000026   -0.0002158   -0.0004670
c     4.5259557   -1.2227592   -0.0491186  0.00   -0.1233107   -0.0161484   -0.0199932