    27
 Energy =       0.9090498476
c    -1.4235396    2.6054793   -0.0667700  0.00   -0.0463439    0.0384381    0.0026635
c    -1.3072796    1.2134697   -0.1072300  0.00   -0.0852979   -0.0325952    0.0019588
c    -0.0178900    0.6711998   -0.1697000  0.00   -0.0890749   -0.1881614   -0.0008043
c    -0.2940599    3.4190890   -0.0891300  0.00   -0.0233530    0.0690550    0.0028720
c     0.9872197    2.8590292   -0.1560400  0.00    0.0255616    0.0656868   -0.0092831
c     1.1340797    1.4562096   -0.1970299  0.00    0.0545562    0.0525518    0.0010451
n     0.3879399   -0.6395298   -0.2140799  0.00    0.1436796    0.1098450   -0.0035460
c     2.2666594    0.5727398   -0.2659299  0.00    0.1497076   -0.0827291    0.0089903
c     1.7555995   -0.7123598   -0.2706899  0.00   -0.1008059   -0.0973790    0.0042823
h    -0.2400399   -1.4313496   -0.2047299  0.00    0.0368814    0.0481199   -0.0004502
c     3.7030089    1.0223397   -0.3320099  0.00    1.5347994    0.1062501    0.3756813
c     4.2197688    1.4064496   -1.7267995  0.00   -0.0066283   -0.1034912    0.1600553
h     4.3261788    0.2093419    0.0639454  0.00    2.1958874    1.8494413    0.1132893
h     3.8370289    1.8640295    0.3610799  0.00    0.1531355   -0.0855833   -0.0334202
c     5.7571784    1.4848496   -1.6848495  0.00    0.2441462    0.1093500   -0.2591927
n     3.7117889    2.7395892   -2.2095194  0.00    0.0182371    0.0941350   -0.0362298
h     3.9553389    0.6476998   -2.4727493  0.00    0.0001032    0.0197002    0.0079240
h     3.0482891    3.0810591   -1.5064896  0.00   -0.0468117   -0.0050976    0.0727439
h     4.4902887    3.4059490   -2.1568694  0.00   -0.0100884   -0.0516020    0.0114497
h    -2.4108593    3.0588691   -0.0157800  0.00   -0.0006633    0.0001532    0.0001110
h    -2.1896094    0.5822398   -0.0890100  0.00   -0.0035590    0.0038558    0.0001363
h    -0.4052699    4.5000487   -0.0535400  0.00    0.0006676    0.0001096    0.0004356
h     1.8590495    3.5066790   -0.1715100  0.00    0.0626095   -0.0196430   -0.0704644
h     2.2327294   -1.6813195   -0.3062999  0.00   -0.0413382   -0.0114556    0.0024622
o     6.4836182    1.6959995   -2.6417192  0.00   -0.1728392   -0.0488806    0.2294649
o     6.2252182    1.2879696   -0.4228049  0.00   -0.1474655   -0.0206518    0.0098983
h     5.4164485    1.1206097    0.1271790  0.00   -3.8457031   -1.8194219   -0.5920729
    27
 Energy =       0.8249849060
c    -1.3915823    2.5932330   -0.0035865  0.00   -0.0411955    0.0342168    0.0023325
c    -1.2840906    1.2032387   -0.0574462  0.00   -0.0759544   -0.0289769    0.0017107
c    -0.0031950    0.6566844   -0.1309939  0.00   -0.0792964   -0.1674414   -0.0008186
c    -0.2573733    3.3982479   -0.0142224  0.00   -0.0208348    0.0615290    0.0023559
c     1.0145990    2.8276697   -0.0886950  0.00    0.0224460    0.0580028   -0.0083362
c     1.1408429    1.4371010   -0.1602955  0.00    0.0481560    0.0468090    0.0007415
n     0.3987781   -0.6611647   -0.1867767  0.00    0.1266176    0.0980784   -0.0024883
c     2.2668198    0.5771136   -0.2618920  0.00    0.1328591   -0.0731707    0.0080669
c     1.7739411   -0.7103072   -0.2859666  0.00   -0.0892286   -0.0861382    0.0036074
h    -0.2243155   -1.4616030   -0.1660345  0.00    0.0326523    0.0427924   -0.0003473
c     3.6895825    1.0608032   -0.3629671  0.00    1.3718724    0.0905417    0.3357583
c     4.1653037    1.4272128   -1.7631196  0.00   -0.0077349   -0.0920348    0.1428122
h     4.3014986    0.3068835    0.0328420  0.00    1.9612918    1.6559436    0.0973120
h     3.8051275    1.9264396    0.2999975  0.00    0.1360282   -0.0753766   -0.0298195
c     5.7014965    1.4142526   -1.7738988  0.00    0.2128148    0.0955973   -0.2300214
n     3.6999753    2.7879019   -2.2217049  0.00    0.0129654    0.0823172   -0.0339175
h     3.8336971    0.6815055   -2.5022040  0.00   -0.0006060    0.0157584    0.0056913
h     3.0481891    3.1879623   -1.5279722  0.00   -0.0389766   -0.0033933    0.0605680
h     4.5173093    3.4171969   -2.2114498  0.00   -0.0056800   -0.0437649    0.0100374
h    -2.3755507    3.0529087    0.0557490  0.00   -0.0005992    0.0003281    0.0000840
h    -2.1690507    0.5757616   -0.0417671  0.00   -0.0031888    0.0035488    0.0001132
h    -0.3584518    4.4795200    0.0439547  0.00    0.0006545    0.0005173    0.0003218
h     1.9101453    3.4406196   -0.0672720  0.00    0.0530579   -0.0174294   -0.0563607
h     2.2766481   -1.6645399   -0.3682115  0.00   -0.0359850   -0.0113350    0.0021036
o     6.3817906    1.6546282   -2.7833726  0.00   -0.1535110   -0.0413753    0.2009526
o     6.2308857    1.1292165   -0.5412391  0.00   -0.0756972   -0.0316633   -0.0186086
h     5.4158633    1.2078941    0.1094688  0.00   -3.4829276   -1.6138809   -0.4938514
    27
 Energy =       0.6847592964
c    -1.4241794    2.4653706    0.0051268  0.00   -0.0311297    0.0263452    0.0016771
c    -1.2727270    1.0860905   -0.0457617  0.00   -0.0578769   -0.0220972    0.0010837
c     0.0139182    0.5820368   -0.1383683  0.00   -0.0600797   -0.1239124   -0.0025187
c    -0.3193222    3.3004644   -0.0127397  0.00   -0.0152941    0.0470348    0.0017030
c     0.9591279    2.7696033   -0.0988605  0.00    0.0178266    0.0436112   -0.0064384
c     1.1201508    1.3963280   -0.1855569  0.00    0.0359525    0.0362329    0.0006779
n     0.4532607   -0.7405249   -0.1429288  0.00    0.0908996    0.0722405    0.0015997
c     2.2658869    0.5984025   -0.2997665  0.00    0.1017389   -0.0544668    0.0063037
c     1.8385551   -0.7029043   -0.3109140  0.00   -0.0637914   -0.0620027    0.0007468
h    -0.1280986   -1.5819776   -0.0729054  0.00    0.0223421    0.0281142    0.0006736
c     3.6821996    1.1240896   -0.3815417  0.00    1.0772739    0.0683605    0.2641751
c     4.1642247    1.5220855   -1.7832603  0.00   -0.0051029   -0.0693791    0.1083530
h     4.2987694    0.3821591    0.0207801  0.00    1.5316849    1.2970036    0.0759560
h     3.7776515    1.9724213    0.3081754  0.00    0.1059329   -0.0591940   -0.0222853
c     5.6946496    1.4976118   -1.7884328  0.00    0.1593953    0.0710819   -0.1737984
n     3.7019546    2.8879420   -2.2104361  0.00    0.0092510    0.0608106   -0.0271795
h     3.8343116    0.7871537   -2.5388514  0.00   -0.0004690    0.0117473    0.0040881
h     3.0198922    3.2755195   -1.5360591  0.00   -0.0293810   -0.0013519    0.0461420
h     4.5090563    3.5375405   -2.1587756  0.00   -0.0030178   -0.0316825    0.0080132
h    -2.4216038    2.8941556    0.0791170  0.00   -0.0010950    0.0005574    0.0000999
h    -2.1350668    0.4276951   -0.0053773  0.00   -0.0032970    0.0021174    0.0001434
h    -0.4516136    4.3782725    0.0554055  0.00    0.0004695    0.0009582    0.0002721
h     1.8306532    3.4068368   -0.0622112  0.00    0.0396816   -0.0138465   -0.0417791
h     2.4178176   -1.6155686   -0.3927269  0.00   -0.0252270   -0.0111401    0.0010935
o     6.3889362    1.7577160   -2.8286406  0.00   -0.1156768   -0.0302549    0.1512104
o     6.2487758    1.2472209   -0.5546657  0.00   -0.0564146   -0.0241790   -0.0134505
h     5.4417035    1.2906399    0.1011001  0.00   -2.7245958   -1.2627085   -0.3865622
    27
 Energy =       0.6764388004
c    -1.4384016    2.4422119    0.0062708  0.00   -0.0306570    0.0259254    0.0016209
c    -1.2730274    1.0641096   -0.0142572  0.00   -0.0566991   -0.0222593    0.0010582
c     0.0165820    0.5713920   -0.1187527  0.00   -0.0582081   -0.1177052   -0.0030944
c    -0.3430024    3.2876681   -0.0457359  0.00   -0.0146273    0.0464276    0.0016541
c     0.9387535    2.7685273   -0.1412290  0.00    0.0176742    0.0430609   -0.0063482
c     1.1134789    1.3956159   -0.2041343  0.00    0.0354908    0.0360235    0.0006319
n     0.4724422   -0.7471174   -0.0490407  0.00    0.0876725    0.0677089    0.0022603
c     2.2652660    0.6063162   -0.3146328  0.00    0.1002418   -0.0521933    0.0060720
c     1.8503050   -0.6987900   -0.2809884  0.00   -0.0604228   -0.0596045    0.0001312
h    -0.0951948   -1.5933897    0.0858477  0.00    0.0198964    0.0245272    0.0011832
c     3.6811753    1.1366339   -0.4039753  0.00    1.0537031    0.0669179    0.2584130
c     4.1661419    1.5329557   -1.8072039  0.00   -0.0049922   -0.0679558    0.1060193
h     4.2997340    0.3927448   -0.0024304  0.00    1.4981603    1.2685537    0.0742993
h     3.7767670    1.9858363    0.2851931  0.00    0.1035913   -0.0578741   -0.0217982
c     5.6964477    1.4957870   -1.8129234  0.00    0.1559155    0.0693847   -0.1698855
n     3.7197894    2.9054007   -2.2283098  0.00    0.0085277    0.0592129   -0.0268455
h     3.8277538    0.8037596   -2.5649441  0.00   -0.0004830    0.0114430    0.0039736
h     3.0296928    3.2881806   -1.5610117  0.00   -0.0286182   -0.0013650    0.0449596
h     4.5287014    3.5513680   -2.1477870  0.00   -0.0024477   -0.0305128    0.0079009
h    -2.4389192    2.8620873    0.0899973  0.00   -0.0012001    0.0005094    0.0001065
h    -2.1268777    0.3972008    0.0672269  0.00   -0.0039170    0.0014028    0.0002165
h    -0.4853389    4.3654061    0.0041994  0.00    0.0005245    0.0011772    0.0002744
h     1.7990433    3.4184814   -0.1249293  0.00    0.0388812   -0.0133039   -0.0404884
h     2.4391261   -1.6068694   -0.3447644  0.00   -0.0248449   -0.0112970    0.0010987
o     6.3938704    1.7657164   -2.8516429  0.00   -0.1130800   -0.0295332    0.1478160
o     6.2505352    1.2516981   -0.5775395  0.00   -0.0551175   -0.0236382   -0.0131730
h     5.4440397    1.3034495    0.0784219  0.00   -2.6649647   -1.2350327   -0.3780565
    27
 Energy =       0.5850697987
c    -1.4816931    2.3191745   -0.0073487  0.00   -0.0247232    0.0208132    0.0013106
c    -1.2671759    0.9527640   -0.0307678  0.00   -0.0451088   -0.0179267    0.0011205
c     0.0322577    0.5063952   -0.1409709  0.00   -0.0460507   -0.0921453   -0.0017368
c    -0.4192608    3.1992200   -0.0637947  0.00   -0.0114074    0.0372591    0.0010501
c     0.8743121    2.7254998   -0.1601937  0.00    0.0144760    0.0339342   -0.0055264
c     1.0938357    1.3655247   -0.2242401  0.00    0.0278064    0.0285522    0.0003593
n     0.5231545   -0.8084617   -0.0986456  0.00    0.0664679    0.0527665    0.0021235
c     2.2678063    0.6287643   -0.3295358  0.00    0.0793241   -0.0403055    0.0044271
c     1.9112472   -0.6879047   -0.2939357  0.00   -0.0458643   -0.0457153    0.0004932
h    -0.0142211   -1.6850811    0.0029132  0.00    0.0147267    0.0170910    0.0023169
c     3.6769234    1.1945934   -0.3921548  0.00    0.8508899    0.0536902    0.2088810
c     4.1748134    1.6179602   -1.7934023  0.00   -0.0034789   -0.0535611    0.0834434
h     4.3033199    0.4488984    0.0177107  0.00    1.2074266    1.0220903    0.0603626
h     3.7577076    2.0325141    0.3142142  0.00    0.0838752   -0.0467096   -0.0173670
c     5.7017349    1.5600421   -1.7954730  0.00    0.1218360    0.0526463   -0.1329594
n     3.7474757    3.0028703   -2.1786207  0.00    0.0052823    0.0448073   -0.0237730
h     3.8300922    0.9084070   -2.5705036  0.00   -0.0005667    0.0087440    0.0025806
h     3.0251546    3.3643328   -1.5327021  0.00   -0.0222821   -0.0004481    0.0356686
h     4.5491264    3.6548292   -2.0336796  0.00    0.0006238   -0.0213898    0.0069117
h    -2.4967327    2.7033342    0.0799391  0.00   -0.0017521    0.0005915    0.0002676
h    -2.0956687    0.2541720    0.0514822  0.00   -0.0036833    0.0004908    0.0008825
h    -0.5993755    4.2719364   -0.0165735  0.00    0.0001495    0.0016430   -0.0001874
h     1.7031347    3.4094958   -0.1441397  0.00    0.0297713   -0.0101999   -0.0314752
h     2.5606875   -1.5576520   -0.3318150  0.00   -0.0175374   -0.0107214    0.0012183
o     6.4122836    1.8643490   -2.8456845  0.00   -0.0882353   -0.0219231    0.1153071
o     6.2684418    1.3294185   -0.5606952  0.00   -0.0433905   -0.0185431   -0.0103828
h     5.4695024    1.3709843    0.0995418  0.00   -2.1485750   -0.9955307   -0.3053166
    27
 Energy =       0.5615908948
c    -1.4867493    2.2924946   -0.0254491  0.00   -0.0234727    0.0195910    0.0012320
c    -1.2670799    0.9285716   -0.0807970  0.00   -0.0424033   -0.0174049    0.0011009
c     0.0341359    0.4899864   -0.1806431  0.00   -0.0429325   -0.0845566   -0.0014695
c    -0.4270593    3.1769849   -0.0441466  0.00   -0.0103467    0.0353839    0.0009365
c     0.8684211    2.7100196   -0.1303563  0.00    0.0137496    0.0322954   -0.0052475
c     1.0920518    1.3541268   -0.2232512  0.00    0.0263368    0.0272409    0.0002789
n     0.5242784   -0.8282374   -0.1991639  0.00    0.0611869    0.0477630    0.0018524
c     2.2686786    0.6280163   -0.3284401  0.00    0.0749849   -0.0369078    0.0040917
c     1.9204790   -0.6905683   -0.3371980  0.00   -0.0416114   -0.0423618    0.0004541
h    -0.0137828   -1.7119415   -0.1558400  0.00    0.0123753    0.0136713    0.0022338
c     3.6753311    1.2022719   -0.3666333  0.00    0.8003152    0.0504793    0.1964707
c     4.1776820    1.6462930   -1.7620291  0.00   -0.0031526   -0.0503231    0.0782820
h     4.3027009    0.4575560    0.0493857  0.00    1.1354079    0.9611506    0.0569321
h     3.7479874    2.0312278    0.3511943  0.00    0.0789345   -0.0438992   -0.0161999
c     5.7034150    1.5860010   -1.7633429  0.00    0.1143231    0.0493573   -0.1247907
n     3.7492260    3.0353168   -2.1282520  0.00    0.0049340    0.0421909   -0.0224386
h     3.8349954    0.9469696   -2.5501176  0.00   -0.0005562    0.0081293    0.0023398
h     3.0241166    3.3900856   -1.4805196  0.00   -0.0208834   -0.0003176    0.0334530
h     4.5497524    3.6878123   -1.9763335  0.00    0.0006009   -0.0200207    0.0065060
h    -2.5045876    2.6709429    0.0532744  0.00   -0.0017342    0.0005115    0.0002577
h    -2.0947189    0.2246277   -0.0375241  0.00   -0.0040117   -0.0001347    0.0008605
h    -0.6114857    4.2478971    0.0255664  0.00    0.0002116    0.0018383   -0.0001669
h     1.6959855    3.3950995   -0.0847289  0.00    0.0282197   -0.0092981   -0.0294702
h     2.5795498   -1.5525218   -0.3859185  0.00   -0.0165252   -0.0102937    0.0011949
o     6.4165958    1.8967284   -2.8163595  0.00   -0.0828004   -0.0205293    0.1081906
o     6.2730963    1.3483817   -0.5310158  0.00   -0.0407358   -0.0174324   -0.0097245
h     5.4758683    1.3822380    0.1295636  0.00   -2.0204144   -0.9361226   -0.2871598
    27
 Energy =       0.5300434866
c    -1.5006940    2.2424638   -0.0539302  0.00   -0.0216201    0.0178294    0.0011269
c    -1.2660684    0.8840494   -0.1408733  0.00   -0.0385632   -0.0163550    0.0010582
c     0.0389761    0.4616518   -0.2300637  0.00   -0.0387642   -0.0753167   -0.0009726
c    -0.4505945    3.1369674   -0.0340937  0.00   -0.0090084    0.0325642    0.0008054
c     0.8490521    2.6851313   -0.1093068  0.00    0.0126733    0.0297284   -0.0048177
c     1.0863007    1.3361579   -0.2312392  0.00    0.0241053    0.0250806    0.0001784
n     0.5384058   -0.8540764   -0.3029073  0.00    0.0541742    0.0419198    0.0013301
c     2.2698506    0.6289919   -0.3334230  0.00    0.0684290   -0.0326029    0.0036625
c     1.9397833   -0.6919019   -0.3856103  0.00   -0.0364350   -0.0380351    0.0005633
h     0.0074281   -1.7458655   -0.3145931  0.00    0.0099169    0.0102074    0.0019253
c     3.6721354    1.2174983   -0.3391474  0.00    0.7289632    0.0458216    0.1790158
c     4.1826017    1.6919662   -1.7254044  0.00   -0.0025914   -0.0458310    0.0709594
h     4.3013852    0.4741437    0.0863091  0.00    1.0336485    0.8749941    0.0521960
h     3.7322771    2.0338047    0.3944676  0.00    0.0720314   -0.0399315   -0.0144819
c     5.7065920    1.6223698   -1.7264411  0.00    0.1035672    0.0443970   -0.1129232
n     3.7610552    3.0904090   -2.0589133  0.00    0.0041103    0.0383656   -0.0209214
h     3.8386623    1.0121352   -2.5312637  0.00   -0.0005929    0.0071536    0.0018562
h     3.0261156    3.4317297   -1.4140691  0.00   -0.0187974   -0.0000896    0.0303281
h     4.5596299    3.7400426   -1.8791049  0.00    0.0009261   -0.0175687    0.0060443
h    -2.5236238    2.6086578    0.0160387  0.00   -0.0017272    0.0004507    0.0002436
h    -2.0870756    0.1704235   -0.1355878  0.00   -0.0042041   -0.0007224    0.0007871
h    -0.6467396    4.2042434    0.0583792  0.00    0.0002526    0.0020363   -0.0001311
h     1.6683560    3.3769479   -0.0327269  0.00    0.0257071   -0.0081362   -0.0265105
h     2.6160005   -1.5401238   -0.4415527  0.00   -0.0149082   -0.0096066    0.0011297
o     6.4244564    1.9505403   -2.7804605  0.00   -0.0749546   -0.0183839    0.0978809
o     6.2796730    1.3748092   -0.4972658  0.00   -0.0369772   -0.0158353   -0.0087290
h     5.4849425    1.4032133    0.1637076  0.00   -1.8393614   -0.8521338   -0.2616037
    27
 Energy =       0.4951677127
c    -1.5263550    2.1621238   -0.1021028  0.00   -0.0195910    0.0158026    0.0010159
c    -1.2641775    0.8126182   -0.2182482  0.00   -0.0342780   -0.0150319    0.0009969
c     0.0478364    0.4174051   -0.2942616  0.00   -0.0342030   -0.0657626   -0.0004693
c    -0.4946521    3.0742931   -0.0426283  0.00   -0.0075837    0.0293751    0.0006996
c     0.8124031    2.6485372   -0.1038447  0.00    0.0114904    0.0266603   -0.0042989
c     1.0760459    1.3096943   -0.2528553  0.00    0.0215003    0.0224118    0.0000609
n     0.5696049   -0.8894788   -0.4098257  0.00    0.0462274    0.0359237    0.0007587
c     2.2723949    0.6314963   -0.3459915  0.00    0.0606453   -0.0279746    0.0031903
c     1.9724789   -0.6927584   -0.4390000  0.00   -0.0308897   -0.0333700    0.0007058
h     0.0553321   -1.7916931   -0.4708908  0.00    0.0075961    0.0069940    0.0014986
c     3.6668576    1.2423781   -0.3080719  0.00    0.6472274    0.0402258    0.1591264
c     4.1903195    1.7615908   -1.6791756  0.00   -0.0016938   -0.0411887    0.0626490
h     4.2980943    0.5020126    0.1323560  0.00    0.9166306    0.7758574    0.0469264
h     3.7076682    2.0408407    0.4465804  0.00    0.0642638   -0.0353315   -0.0123345
c     5.7118411    1.6725223   -1.6813978  0.00    0.0911035    0.0380032   -0.0986371
n     3.7884762    3.1771607   -1.9589286  0.00    0.0019321    0.0337168   -0.0204889
h     3.8398679    1.1162063   -2.5124408  0.00   -0.0008013    0.0057382    0.0008691
h     3.0341703    3.4961229   -1.3242009  0.00   -0.0161820    0.0002600    0.0267342
h     4.5843454    3.8155110   -1.7203518  0.00    0.0026615   -0.0131382    0.0060677
h    -2.5573180    2.5074186   -0.0427402  0.00   -0.0018552    0.0004455    0.0002333
h    -2.0712699    0.0833591   -0.2495815  0.00   -0.0043537   -0.0012914    0.0006763
h    -0.7122182    4.1355810    0.0713925  0.00    0.0002522    0.0023145   -0.0000723
h     1.6143957    3.3541961    0.0055212  0.00    0.0223160   -0.0068258   -0.0226501
h     2.6737630   -1.5206570   -0.4958020  0.00   -0.0128200   -0.0088561    0.0010292
o     6.4367836    2.0354480   -2.7307269  0.00   -0.0656641   -0.0155429    0.0854987
o     6.2871057    1.4077759   -0.4564216  0.00   -0.0326078   -0.0139860   -0.0074403
h     5.4950895    1.4366761    0.2045629  0.00   -1.6313232   -0.7554292   -0.2323455
    27
 Energy =       0.4771240937
c    -1.5501265    2.0907103   -0.1532818  0.00   -0.0185268    0.0147138    0.0009590
c    -1.2619692    0.7486862   -0.2822292  0.00   -0.0320618   -0.0142171    0.0009409
c     0.0568045    0.3780853   -0.3461898  0.00   -0.0318377   -0.0610355   -0.0003512
c    -0.5362868    3.0195965   -0.0701649  0.00   -0.0069663    0.0276410    0.0006744
c     0.7776842    2.6177702   -0.1185378  0.00    0.0108626    0.0249257   -0.0039951
c     1.0672371    1.2870362   -0.2789036  0.00    0.0200588    0.0208850    0.0000139
n     0.6020479   -0.9192348   -0.4763603  0.00    0.0421779    0.0330305    0.0005818
c     2.2759417    0.6333022   -0.3590425  0.00    0.0563526   -0.0257782    0.0029507
c     2.0028042   -0.6941947   -0.4721495  0.00   -0.0281126   -0.0309803    0.0007038
h     0.1050702   -1.8301268   -0.5625360  0.00    0.0066445    0.0057689    0.0013088
c     3.6619728    1.2645008   -0.2852038  0.00    0.6021667    0.0370351    0.1482349
c     4.1970897    1.8237512   -1.6404480  0.00   -0.0011224   -0.0392142    0.0583581
h     4.2932917    0.5282011    0.1697185  0.00    0.8519970    0.7210754    0.0439063
h     3.6846369    2.0473048    0.4861563  0.00    0.0600019   -0.0327437   -0.0110999
c     5.7163105    1.7140080   -1.6455572  0.00    0.0844121    0.0341912   -0.0905529
n     3.8198471    3.2557192   -1.8674022  0.00   -0.0003753    0.0308489   -0.0216203
h     3.8378056    1.2142372   -2.4983364  0.00   -0.0010373    0.0048024    0.0000382
h     3.0423695    3.5535111   -1.2501424  0.00   -0.0149197    0.0004123    0.0249593
h     4.6113774    3.8753958   -1.5615987  0.00    0.0050757   -0.0093044    0.0068171
h    -2.5879369    2.4168728   -0.1034595  0.00   -0.0019839    0.0004717    0.0002289
h    -2.0551871    0.0053879   -0.3340433  0.00   -0.0043472   -0.0014825    0.0006133
h    -0.7741146    4.0755968    0.0532655  0.00    0.0002154    0.0024270   -0.0000386
h     1.5623153    3.3368702    0.0107003  0.00    0.0201567   -0.0061996   -0.0202830
h     2.7236272   -1.5058394   -0.5214031  0.00   -0.0116242   -0.0084467    0.0009584
o     6.4474333    2.1138311   -2.6838894  0.00   -0.0605330   -0.0138564    0.0784623
o     6.2899675    1.4295684   -0.4241112  0.00   -0.0301291   -0.0130136   -0.0066449
h     5.4988702    1.4658329    0.2360743  0.00   -1.5165446   -0.7019566   -0.2161243
    27
 Energy =       0.4683354890
c    -1.5699371    2.0289079   -0.2042811  0.00   -0.0180121    0.0141469    0.0009292
c    -1.2590178    0.6929787   -0.3380163  0.00   -0.0309434   -0.0137930    0.0009011
c     0.0656835    0.3436838   -0.3904907  0.00   -0.0306112   -0.0585740   -0.0003214
c    -0.5721180    2.9726682   -0.1056993  0.00   -0.0066938    0.0267606    0.0006727
c     0.7477362    2.5916483   -0.1418740  0.00    0.0105537    0.0240183   -0.0038230
c     1.0604629    1.2674471   -0.3056145  0.00    0.0192771    0.0200694   -0.0000088
n     0.6324304   -0.9449150   -0.5241686  0.00    0.0400156    0.0315072    0.0005048
c     2.2800764    0.6343052   -0.3712045  0.00    0.0540459   -0.0246894    0.0028355
c     2.0299173   -0.6962820   -0.4944746  0.00   -0.0265944   -0.0297247    0.0006841
h     0.1513894   -1.8633362   -0.6254888  0.00    0.0061569    0.0051420    0.0012084
c     3.6575733    1.2836649   -0.2664423  0.00    0.5779348    0.0352418    0.1424664
c     4.2025858    1.8794155   -1.6055881  0.00   -0.0007581   -0.0386721    0.0562607
h     4.2877883    0.5517892    0.2018755  0.00    0.8171513    0.6915015    0.0422022
h     3.6634074    2.0521022    0.5189431  0.00    0.0577225   -0.0312947   -0.0103549
c     5.7193961    1.7497237   -1.6148954  0.00    0.0808998    0.0318589   -0.0860442
n     3.8513515    3.3255717   -1.7812344  0.00   -0.0025800    0.0288158   -0.0240477
h     3.8338864    1.3057027   -2.4852771  0.00   -0.0012797    0.0041497   -0.0006925
h     3.0457649    3.6037026   -1.1907472  0.00   -0.0148663    0.0004702    0.0244821
h     4.6342560    3.9211826   -1.4028456  0.00    0.0080932   -0.0057330    0.0082685
h    -2.6133497    2.3384254   -0.1635259  0.00   -0.0021039    0.0005002    0.0002273
h    -2.0397186   -0.0625080   -0.4028603  0.00   -0.0043525   -0.0015863    0.0005762
h    -0.8277436    4.0242196    0.0209169  0.00    0.0001774    0.0025080   -0.0000169
h     1.5167503    3.3225658    0.0001719  0.00    0.0188353   -0.0058945   -0.0188614
h     2.7660381   -1.4948571   -0.5322548  0.00   -0.0109236   -0.0082696    0.0009176
o     6.4559438    2.1828549   -2.6399381  0.00   -0.0577347   -0.0128567    0.0744874
o     6.2896701    1.4451285   -0.3966558  0.00   -0.0287090   -0.0125316   -0.0061293
h     5.4986603    1.4905906    0.2625943  0.00   -1.4547008   -0.6730710   -0.2073242
    27
 Energy =       0.4278437760
c    -1.5715425    1.9813952   -0.2094256  0.00   -0.0155084    0.0115396    0.0006082
c    -1.2412977    0.6557786   -0.3735355  0.00   -0.0259247   -0.0122052    0.0006643
c     0.0850662    0.3248868   -0.4097985  0.00   -0.0254925   -0.0483461    0.0000346
c    -0.5883902    2.9335045   -0.0656134  0.00   -0.0051519    0.0228616    0.0004342
c     0.7351618    2.5705554   -0.0863662  0.00    0.0090466    0.0205605   -0.0033438
c     1.0633525    1.2563522   -0.2820307  0.00    0.0163880    0.0170401   -0.0001952
n     0.6652596   -0.9550789   -0.5848829  0.00    0.0329710    0.0251763   -0.0000835
c     2.2866864    0.6431770   -0.3511903  0.00    0.0453126   -0.0191809    0.0024377
c     2.0603100   -0.6846041   -0.5221984  0.00   -0.0218694   -0.0249295    0.0006631
h     0.1959081   -1.8760370   -0.7264939  0.00    0.0046099    0.0029202    0.0006835
c     3.6557515    1.3046664   -0.2362566  0.00    0.4883069    0.0300385    0.1210113
c     4.1949995    1.8860863   -1.5845323  0.00   -0.0006429   -0.0356038    0.0495062
h     4.2928152    0.5741889    0.2325169  0.00    0.6902311    0.5841170    0.0357701
h     3.6546060    2.0841985    0.5399827  0.00    0.0489214   -0.0262090   -0.0087045
c     5.7180916    1.8147187   -1.5817223  0.00    0.0687297    0.0245152   -0.0708549
n     3.7682524    3.3062883   -1.8112288  0.00   -0.0108158    0.0198531   -0.0295220
h     3.8615846    1.2666395   -2.4490790  0.00   -0.0017857    0.0026639   -0.0017317
h     3.0132819    3.5893042   -1.1516371  0.00   -0.0175513   -0.0001036    0.0250229
h     4.5638719    3.9647873   -1.5615987  0.00    0.0190233    0.0056169    0.0112106
h    -2.6194794    2.2764375   -0.1828452  0.00   -0.0020514    0.0002261    0.0000327
h    -2.0101398   -0.1076720   -0.4787165  0.00   -0.0042112   -0.0021660    0.0002661
h    -0.8600095    3.9779999    0.0833921  0.00    0.0000839    0.0024305   -0.0000840
h     1.4948465    3.3089656    0.0897046  0.00    0.0163324   -0.0043257   -0.0156333
h     2.8148409   -1.4649196   -0.5856079  0.00   -0.0087430   -0.0075125    0.0007624
o     6.4453875    2.2823345   -2.6111437  0.00   -0.0474572   -0.0099392    0.0614856
o     6.3063621    1.5128264   -0.3714098  0.00   -0.0231425   -0.0105337   -0.0055379
h     5.5233065    1.5196005    0.2926413  0.00   -1.2296088   -0.5685041   -0.1749027
    27
 Energy =       0.4062217406
c    -1.5679979    1.9724136   -0.1884188  0.00   -0.0138691    0.0103550    0.0005372
c    -1.2348744    0.6507672   -0.3665542  0.00   -0.0231302   -0.0109761    0.0005934
c     0.0902170    0.3229752   -0.4053479  0.00   -0.0227871   -0.0431382    0.0000837
c    -0.5874272    2.9241237   -0.0343289  0.00   -0.0045832    0.0204787    0.0003715
c     0.7359222    2.5644110   -0.0589116  0.00    0.0080775    0.0184392   -0.0029937
c     1.0649559    1.2534773   -0.2678022  0.00    0.0146268    0.0152508   -0.0001912
n     0.6697906   -0.9556478   -0.5959341  0.00    0.0294815    0.0223832   -0.0001136
c     2.2867989    0.6441592   -0.3455927  0.00    0.0404470   -0.0170027    0.0022179
c     2.0651337   -0.6808417   -0.5329004  0.00   -0.0195696   -0.0223119    0.0005956
h     0.2003275   -1.8755210   -0.7463168  0.00    0.0040960    0.0025461    0.0006020
c     3.6552197    1.3047033   -0.2322830  0.00    0.4387180    0.0269954    0.1088989
c     4.1917996    1.8748076   -1.5873748  0.00   -0.0007143   -0.0335370    0.0460483
h     4.2969979    0.5748553    0.2384840  0.00    0.6203885    0.5248313    0.0322426
h     3.6518237    2.0925215    0.5369117  0.00    0.0439237   -0.0233873   -0.0078348
c     5.7182052    1.8472206   -1.5742613  0.00    0.0619909    0.0203599   -0.0626667
n     3.7137575    3.2730068   -1.8525965  0.00   -0.0144326    0.0125634   -0.0342959
h     3.8859802    1.2231863   -2.4392346  0.00   -0.0019368    0.0017919   -0.0021994
h     3.0218038    3.5802409   -1.1305974  0.00   -0.0206242    0.0001914    0.0276848
h     4.5161982    3.9648149   -1.7203518  0.00    0.0258559    0.0128078    0.0115395
h    -2.6163520    2.2650679   -0.1594896  0.00   -0.0018365    0.0002115    0.0000302
h    -2.0015341   -0.1130058   -0.4809832  0.00   -0.0037815   -0.0019783    0.0002348
h    -0.8612131    3.9663872    0.1247183  0.00    0.0000677    0.0022272   -0.0000689
h     1.4945820    3.3043149    0.1214656  0.00    0.0146900   -0.0038183   -0.0140276
h     2.8247160   -1.4550391   -0.6109428  0.00   -0.0077295   -0.0068221    0.0006735
o     6.4383450    2.3537813   -2.5978018  0.00   -0.0417747   -0.0082344    0.0542868
o     6.3165709    1.5433087   -0.3695590  0.00   -0.0203982   -0.0093961   -0.0051631
h     5.5391366    1.5258918    0.2969278  0.00   -1.1051959   -0.5108303   -0.1570859
    27
 Energy =       0.3813256076
c    -1.5706815    1.9294936   -0.1903192  0.00   -0.0120028    0.0089534    0.0004587
c    -1.2233731    0.6156908   -0.3865926  0.00   -0.0198405   -0.0096039    0.0005095
c     0.1029352    0.3015594   -0.4225033  0.00   -0.0195812   -0.0369834    0.0001624
c    -0.6010758    2.8874124   -0.0169442  0.00   -0.0038384    0.0177533    0.0003141
c     0.7246281    2.5413065   -0.0398958  0.00    0.0070236    0.0159848   -0.0025802
c     1.0657872    1.2376064   -0.2653162  0.00    0.0126176    0.0131396   -0.0001945
n     0.6927738   -0.9705193   -0.6307439  0.00    0.0251608    0.0189390   -0.0002002
c     2.2910229    0.6424861   -0.3454524  0.00    0.0346784   -0.0142674    0.0019333
c     2.0859661   -0.6802011   -0.5556959  0.00   -0.0167716   -0.0192531    0.0005323
h     0.2313075   -1.8922149   -0.7973370  0.00    0.0034007    0.0019324    0.0004685
c     3.6532251    1.3114438   -0.2178272  0.00    0.3797947    0.0233825    0.0943167
c     4.1912037    1.8887250   -1.5717638  0.00   -0.0008739   -0.0308341    0.0419468
h     4.2990150    0.5868440    0.2659145  0.00    0.5373437    0.4543330    0.0284719
h     3.6360141    2.1019863    0.5492945  0.00    0.0381814   -0.0201160   -0.0067970
c     5.7200060    1.9214483   -1.5435105  0.00    0.0525959    0.0138806   -0.0512516