    13
 Energy =       0.1090271751
c    -3.7133889    1.6950595    0.3173519  0.00   -0.1142461    0.0598686    0.0149884
c    -2.4962693    2.6345192    0.2419999  0.00    0.3663844   -0.0259260    0.1177072
c    -4.9565486    2.3924193   -0.2155699  0.00    0.0526445    0.0280363   -0.0004506
h    -5.8072983    1.7014095   -0.2223689  0.00    0.0127380    0.0089231   -0.0030647
h    -4.8071186    2.7393792   -1.2437896  0.00   -0.0016267   -0.0044315    0.0194428
h    -5.2375685    3.2516891    0.4029209  0.00   -0.0004494   -0.0140523   -0.0107818
n    -3.4097890    0.4519539   -0.4549189  0.00    0.0453259   -0.0390773   -0.0509405
h    -3.8575589    1.4177196    1.3669296  0.00   -0.0003923   -0.0020663   -0.0220773
h    -4.2340588    0.2238779   -1.0206697  0.00    0.0210919    0.0307422    0.0211360
h    -2.6878492    0.6694128   -1.1486897  0.00   -0.0298063    0.0071389    0.0345875
o    -1.4040496    2.4172293    0.7380088  0.00   -0.2604497    0.0450904   -0.1272372
o    -2.7835192    3.7545589   -0.4737969  0.00   -0.0685816   -0.0572253    0.0103283
h    -2.5521993    4.5104687    0.1222010  0.00   -0.0226326   -0.0370207   -0.0036382
    13
 Energy =       0.0860529205
c    -3.6816631    1.6995327    0.2827465  0.00   -0.0661026    0.0367540    0.0075635
c    -2.4809733    2.6395107    0.1537933  0.00    0.2176098   -0.0148609    0.0714450
c    -4.9588651    2.3948157   -0.1845050  0.00    0.0373118    0.0171426   -0.0011371
h    -5.8335943    1.7228659   -0.0636158  0.00    0.0009669    0.0007594   -0.0004046
h    -4.8688061    2.6789714   -1.2504572  0.00    0.0014788   -0.0017642    0.0075414
h    -5.1511690    3.3131607    0.4035518  0.00    0.0003574   -0.0034710   -0.0028337
n    -3.4478935    0.4391966   -0.4734557  0.00    0.0235845   -0.0253621   -0.0277854
h    -3.7653749    1.4497646    1.3560871  0.00   -0.0001504   -0.0010480   -0.0107049
h    -4.2900818    0.2046251   -1.0270776  0.00    0.0117587    0.0184363    0.0124272
h    -2.6909573    0.5793523   -1.1690214  0.00   -0.0135751    0.0045882    0.0171210
o    -1.3328634    2.3902609    0.6791614  0.00   -0.1548088    0.0263171   -0.0746055
o    -2.7355276    3.8095779   -0.5131330  0.00   -0.0457563   -0.0687727   -0.0358420
h    -2.7094469    4.5380625    0.2155341  0.00   -0.0126747    0.0112814    0.0372150
    13
 Energy =       0.0775792932
c    -3.6945189    1.7080959    0.2897893  0.00   -0.0519664    0.0292774    0.0059818
c    -2.5004003    2.6505692    0.1417191  0.00    0.1701313   -0.0114839    0.0571904
c    -4.9814213    2.3887056   -0.1791798  0.00    0.0299256    0.0135630   -0.0008729
h    -5.8535982    1.7182723   -0.0295865  0.00    0.0004906    0.0003114   -0.0002594
h    -4.9031750    2.6480270   -1.2540090  0.00    0.0012450   -0.0012612    0.0055883
h    -5.1637601    3.3244041    0.3871321  0.00    0.0004435   -0.0022846   -0.0020313
n    -3.4689307    0.4329600   -0.4405141  0.00    0.0179156   -0.0203306   -0.0212765
h    -3.7696677    1.4812348    1.3710692  0.00   -0.0001112   -0.0008545   -0.0081206
h    -4.3075274    0.1836887   -0.9980980  0.00    0.0091505    0.0144542    0.0096562
h    -2.6946558    0.5414128   -1.1272357  0.00   -0.0099014    0.0034904    0.0127054
o    -1.3254996    2.3851372    0.6540643  0.00   -0.1211884    0.0204687   -0.0591830
o    -2.7333675    3.8184685   -0.5441934  0.00   -0.0390493   -0.0701967   -0.0436080
h    -2.5506937    4.5787209    0.1386508  0.00   -0.0070853    0.0248464    0.0442298
    13
 Energy =       0.0702595976
c    -3.7094169    1.7303343    0.3043306  0.00   -0.0369714    0.0222353    0.0046451
c    -2.5120907    2.6606851    0.1127057  0.00    0.1171971   -0.0070982    0.0415046
c    -5.0030003    2.3933336   -0.1807752  0.00    0.0218437    0.0093348   -0.0003463
h    -5.8757512    1.7330191    0.0119436  0.00   -0.0002744   -0.0004825    0.0000353
h    -4.9354489    2.6033697   -1.2695794  0.00    0.0010342   -0.0005890    0.0026621
h    -5.1718304    3.3584183    0.3432730  0.00    0.0002975   -0.0003515   -0.0008176
n    -3.5046946    0.4198440   -0.3662900  0.00    0.0103074   -0.0164949   -0.0135653
h    -3.7763314    1.5553042    1.3991126  0.00   -0.0001549   -0.0007657   -0.0043105
h    -4.3391831    0.1502784   -0.9261901  0.00    0.0062845    0.0098573    0.0064653
h    -2.7058415    0.4661197   -1.0389354  0.00   -0.0042609    0.0018474    0.0062439
o    -1.3070969    2.3671042    0.6027189  0.00   -0.0833830    0.0138339   -0.0422343
o    -2.7145899    3.8241225   -0.5990583  0.00   -0.0311462   -0.0631126   -0.0431611
h    -2.3919406    4.5977639    0.0163524  0.00   -0.0007736    0.0317858    0.0428788
    13
 Energy =       0.0682956803
c    -3.7263511    1.7677525    0.3290638  0.00   -0.0324161    0.0234968    0.0048503
c    -2.5114158    2.6639231    0.0763872  0.00    0.0981649   -0.0042403    0.0352364
c    -5.0077616    2.4088920   -0.2223745  0.00    0.0182851    0.0077075    0.0007658
h    -5.8909730    1.7749061    0.0126877  0.00   -0.0009822   -0.0013853    0.0006441
h    -4.9247684    2.5329783   -1.3270544  0.00    0.0011725    0.0001082   -0.0014992
h    -5.1695336    3.4177304    0.2238182  0.00   -0.0004604    0.0032264    0.0006988
n    -3.5386399    0.3988429   -0.2303705  0.00    0.0060239   -0.0211727   -0.0096246
h    -3.8070890    1.6851838    1.4381965  0.00   -0.0005728   -0.0011054    0.0006435
h    -4.3648367    0.0972755   -0.7889701  0.00    0.0051349    0.0071098    0.0044162
h    -2.7149395    0.3620175   -0.8801823  0.00    0.0009974   -0.0001909    0.0004944
o    -1.2941589    2.3468441    0.5464791  0.00   -0.0691628    0.0116869   -0.0357506
o    -2.6896300    3.8128878   -0.6689163  0.00   -0.0266411   -0.0555065   -0.0394303
h    -2.3071187    4.5904631   -0.0991560  0.00    0.0004568    0.0302654    0.0385552
    13
 Energy =       0.0650184987
c    -3.7147105    1.7485463    0.3174450  0.00   -0.0221397    0.0201872    0.0044058
c    -2.4989556    2.6371112    0.0468667  0.00    0.0736776   -0.0021314    0.0274653
c    -5.0220973    2.4379412   -0.1209616  0.00    0.0100938    0.0065926    0.0013295
h    -5.9009984    1.8083372    0.1404603  0.00   -0.0014116   -0.0008618    0.0006073
h    -5.0076118    2.6132495   -1.2245355  0.00    0.0006173    0.0004335   -0.0046947
h    -5.1361509    3.4281952    0.3825713  0.00   -0.0011111    0.0048769    0.0019958
n    -3.5856453    0.4059225   -0.3188568  0.00    0.0073798   -0.0200176   -0.0069793
h    -3.7316482    1.6108173    1.4270795  0.00   -0.0002011   -0.0008032    0.0040024
h    -4.4424442    0.1512203   -0.8600890  0.00    0.0018762    0.0040863    0.0014687
h    -2.7897301    0.3821769   -1.0044469  0.00    0.0018446   -0.0009476   -0.0011663
o    -1.2622993    2.2848280    0.4747161  0.00   -0.0506267    0.0079223   -0.0271586
o    -2.6704796    3.7983757   -0.6843380  0.00   -0.0247311   -0.0502805   -0.0369047
h    -2.1844452    4.5529758   -0.1663027  0.00    0.0047319    0.0309433    0.0356287
    13
 Energy =       0.0641922691
c    -3.7074773    1.7517290    0.3241312  0.00   -0.0186705    0.0190604    0.0059345
c    -2.4701646    2.5888852   -0.0177257  0.00    0.0624240   -0.0021627    0.0242312
c    -5.0143048    2.4962936   -0.0291962  0.00    0.0059392    0.0053150    0.0011045
h    -5.9021599    1.8996924    0.2808182  0.00   -0.0030086   -0.0011645    0.0007630
h    -5.0593996    2.6778976   -1.1319546  0.00    0.0002934    0.0002049   -0.0058534
h    -5.0580321    3.4871826    0.4870675  0.00   -0.0012140    0.0061827    0.0031971
n    -3.6747016    0.4065737   -0.3219841  0.00    0.0076925   -0.0203631   -0.0050885
h    -3.6619385    1.6113402    1.4339050  0.00   -0.0000284   -0.0000194    0.0054343
h    -4.5701508    0.1931380   -0.8222210  0.00   -0.0016907    0.0021828   -0.0007476
h    -2.9130625    0.3462493   -1.0458913  0.00    0.0038261   -0.0015459   -0.0033544
o    -1.2254108    2.1935963    0.3673994  0.00   -0.0404342    0.0068787   -0.0233868
o    -2.6163233    3.7292329   -0.7896840  0.00   -0.0212115   -0.0447775   -0.0347909
h    -2.0740904    4.4778863   -0.3250558  0.00    0.0060826    0.0302087    0.0325572
    13
 Energy =       0.0626611613
c    -3.7189126    1.7420178    0.3086325  0.00   -0.0174935    0.0174682    0.0068181
c    -2.4917876    2.6218032    0.0345848  0.00    0.0592863   -0.0057980    0.0253191
c    -5.0339736    2.4540124   -0.0815889  0.00    0.0046717    0.0044627    0.0010945
h    -5.9159818    1.8291357    0.1897796  0.00   -0.0037913   -0.0015265    0.0009196
h    -5.0451092    2.6506509   -1.1826089  0.00    0.0003247    0.0001321   -0.0061028
h    -5.1221420    3.4366265    0.4461052  0.00   -0.0011965    0.0065567    0.0035588
n    -3.6248780    0.4097329   -0.3595133  0.00    0.0069745   -0.0201297   -0.0029881
h    -3.7128420    1.5829764    1.4171633  0.00   -0.0001317    0.0002477    0.0059622
h    -4.4910648    0.1830847   -0.9063832  0.00   -0.0035541    0.0010960   -0.0021448
h    -2.8267909    0.3788907   -1.0471011  0.00    0.0056133   -0.0017509   -0.0050377
o    -1.2425587    2.2162924    0.4031789  0.00   -0.0371044    0.0059146   -0.0213525
o    -2.6500584    3.8223395   -0.6463379  0.00   -0.0206759   -0.0359791   -0.0375210
h    -2.0711168    4.5321340   -0.1663027  0.00    0.0070769    0.0293063    0.0314746
    13
 Energy =       0.0620538368
c    -3.7601320    1.7365642    0.2941951  0.00   -0.0160799    0.0140629    0.0063783
c    -2.4831227    2.5690662    0.0906616  0.00    0.0520271   -0.0068121    0.0246192
c    -5.0307120    2.5092539   -0.1345866  0.00    0.0032017    0.0052729    0.0008752
h    -5.9472237    1.9130200    0.0894717  0.00   -0.0051278   -0.0025270    0.0011956
h    -4.9908713    2.7295119   -1.2312176  0.00    0.0000633    0.0006771   -0.0070629
h    -5.1010278    3.4839793    0.4095722  0.00   -0.0010248    0.0063589    0.0033104
n    -3.6960319    0.4132413   -0.3941606  0.00    0.0071687   -0.0189720    0.0058670
h    -3.8054968    1.5558738    1.3993177  0.00    0.0000337   -0.0005034    0.0068586
h    -4.5307117    0.2518933   -1.0178038  0.00   -0.0107186   -0.0001290   -0.0068401
h    -2.8433353    0.3452345   -1.0162422  0.00    0.0112316   -0.0010917   -0.0081351
o    -1.2587037    2.0600766    0.4389638  0.00   -0.0277882    0.0013523   -0.0174253
o    -2.5669893    3.8232900   -0.5110132  0.00   -0.0231870   -0.0286417   -0.0413965
h    -1.9328580    4.4686920   -0.0075495  0.00    0.0102001    0.0309527    0.0317557
    13
 Energy =       0.0630344596
c    -3.7618370    1.7438639    0.2916553  0.00   -0.0151445    0.0137062    0.0058701
c    -2.4730147    2.5605816    0.0894565  0.00    0.0386877   -0.0054219    0.0243132
c    -5.0192953    2.5208378   -0.1688830  0.00    0.0025239    0.0055420    0.0011539
h    -5.9453755    1.9394400    0.0541386  0.00   -0.0050554   -0.0024893    0.0012579
h    -4.9620483    2.7219711   -1.2682450  0.00    0.0001564    0.0007580   -0.0070962
h    -5.0877796    3.5053743    0.3577691  0.00   -0.0009957    0.0062925    0.0032321
n    -3.7010921    0.4100860   -0.3757452  0.00    0.0089970   -0.0174613    0.0146593
h    -3.8229086    1.5811961    1.3985232  0.00    0.0000701   -0.0005730    0.0068161
h    -4.5853198    0.1962034   -0.9188400  0.00   -0.0181293   -0.0022776   -0.0112441
h    -2.9011693    0.3686125   -1.0725342  0.00    0.0165863   -0.0006680   -0.0122289
o    -1.2351360    1.9715433    0.2802107  0.00   -0.0108090   -0.0103502   -0.0130545
o    -2.5619556    3.8730424   -0.3884729  0.00   -0.0289476   -0.0184284   -0.0464138
h    -1.8902845    4.4669448    0.1305754  0.00    0.0120601    0.0313711    0.0327349
    13
 Energy =       0.0617127484
c    -3.7861640    1.7415378    0.2839298  0.00   -0.0155081    0.0126006    0.0052731
c    -2.4745364    2.5437079    0.1711897  0.00    0.0373348   -0.0045118    0.0240862
c    -5.0046685    2.5369963   -0.2520369  0.00    0.0007888    0.0063015    0.0013408
h    -5.9530890    1.9739555   -0.0745727  0.00   -0.0063523   -0.0028957    0.0015490
h    -4.8846845    2.7299769   -1.3494064  0.00    0.0003217    0.0011051   -0.0089384
h    -5.0855234    3.5257927    0.2651532  0.00   -0.0012191    0.0063348    0.0033586
n    -3.6967079    0.4157269   -0.3942867  0.00    0.0088582   -0.0176906    0.0171014
h    -3.9186485    1.5690925    1.3853437  0.00   -0.0002184   -0.0009093    0.0092077
h    -4.5986861    0.1659232   -0.8939000  0.00   -0.0204821   -0.0029344   -0.0121584
h    -2.9276565    0.4173685   -1.1286259  0.00    0.0189463   -0.0005682   -0.0144652
o    -1.2564026    1.9387183    0.4389638  0.00   -0.0065985   -0.0111938   -0.0123254
o    -2.5192663    3.8650543   -0.2894658  0.00   -0.0283634   -0.0170515   -0.0467187
h    -1.8411827    4.4358461    0.2473226  0.00    0.0124922    0.0314135    0.0326895
    13
 Energy =       0.0589494846
c    -3.8032886    1.7373588    0.2729176  0.00   -0.0146440    0.0112433    0.0043365
c    -2.4882677    2.5411711    0.2377437  0.00    0.0297532   -0.0025814    0.0202300
c    -4.9961600    2.5371248   -0.3117716  0.00   -0.0000319    0.0056374    0.0011987
h    -5.9531038    1.9780079   -0.1725547  0.00   -0.0063398   -0.0027935    0.0014830
h    -4.8323026    2.7315794   -1.4029393  0.00    0.0003672    0.0010930   -0.0088556
h    -5.0941525    3.5246689    0.2037528  0.00   -0.0011464    0.0057075    0.0031452
n    -3.6793054    0.4243768   -0.4203259  0.00    0.0073730   -0.0164907    0.0159272
h    -3.9884491    1.5492225    1.3645926  0.00   -0.0004092   -0.0008856    0.0096223
h    -4.5848294    0.1452114   -0.8953459  0.00   -0.0192654   -0.0027493   -0.0111206
h    -2.9309217    0.4653047   -1.1735480  0.00    0.0182182   -0.0004273   -0.0140406
o    -1.2864378    1.9444997    0.5977170  0.00   -0.0005813   -0.0110980   -0.0095592
o    -2.5075107    3.8675987   -0.2068990  0.00   -0.0252674   -0.0150589   -0.0417589
h    -1.8024871    4.4135723    0.3162691  0.00    0.0119738    0.0284038    0.0293921
    13
 Energy =       0.0557998181
c    -3.8195858    1.7342798    0.2611296  0.00   -0.0126037    0.0091365    0.0030468
c    -2.5074636    2.5405581    0.3062582  0.00    0.0207424   -0.0008910    0.0147106
c    -4.9843274    2.5357182   -0.3734539  0.00   -0.0007347    0.0045406    0.0009516
h    -5.9468436    1.9781589   -0.2774560  0.00   -0.0059409   -0.0025040    0.0012948
h    -4.7736978    2.7338913   -1.4550393  0.00    0.0004194    0.0009765   -0.0081630
h    -5.1034170    3.5206440    0.1407225  0.00   -0.0009827    0.0047084    0.0027456
n    -3.6569223    0.4358923   -0.4448922  0.00    0.0055860   -0.0141580    0.0143564
h    -4.0588465    1.5300580    1.3390661  0.00   -0.0006207   -0.0007812    0.0092585
h    -4.5654452    0.1183819   -0.8856456  0.00   -0.0173710   -0.0025478   -0.0095267
h    -2.9402132    0.5209125   -1.2229080  0.00    0.0166844   -0.0000341   -0.0130749
o    -1.3289573    1.9521751    0.7564701  0.00    0.0046535   -0.0098432   -0.0059021
o    -2.5021017    3.8729543   -0.1158053  0.00   -0.0211821   -0.0124523   -0.0342636
h    -1.7593948    4.3860727    0.3811623  0.00    0.0113501    0.0238496    0.0245659
    13
 Energy =       0.0526017259
c    -3.8358502    1.7329010    0.2498276  0.00   -0.0093529    0.0064156    0.0015085
c    -2.5320041    2.5394777    0.3785589  0.00    0.0116411    0.0004709    0.0083271
c    -4.9671918    2.5359822   -0.4366577  0.00   -0.0010648    0.0031203    0.0006806
h    -5.9322205    1.9777689   -0.3937600  0.00   -0.0052906   -0.0021147    0.0009798
h    -4.7034513    2.7433433   -1.5034722  0.00    0.0005138    0.0007650   -0.0069709
h    -5.1124237    3.5155324    0.0784454  0.00   -0.0007127    0.0034106    0.0021902
n    -3.6314888    0.4514970   -0.4672866  0.00    0.0038019   -0.0106683    0.0130737
h    -4.1317762    1.5115856    1.3091139  0.00   -0.0008168   -0.0006334    0.0080034
h    -4.5420094    0.0847222   -0.8591168  0.00   -0.0152642   -0.0025592   -0.0075190
h    -2.9636363    0.5857510   -1.2788996  0.00    0.0145891    0.0008326   -0.0119827
o    -1.3856463    1.9553698    0.9152232  0.00    0.0079902   -0.0075815   -0.0020092
o    -2.4993575    3.8770083   -0.0193929  0.00   -0.0167535   -0.0094951   -0.0247738
h    -1.7101603    4.3487579    0.4370254  0.00    0.0107194    0.0180372    0.0184922
    13
 Energy =       0.0500063524
c    -3.8502894    1.7319004    0.2417679  0.00   -0.0058436    0.0040317    0.0001642
c    -2.5572766    2.5330925    0.4461829  0.00    0.0034932    0.0018708    0.0023043
c    -4.9480039    2.5432871   -0.4819872  0.00   -0.0003311    0.0015586    0.0006326
h    -5.9106891    1.9816372   -0.5001186  0.00   -0.0043564   -0.0018184    0.0005732
h    -4.6328097    2.7749073   -1.5280479  0.00    0.0006174    0.0005176   -0.0053215
h    -5.1206851    3.5104234    0.0452018  0.00   -0.0002936    0.0021607    0.0015635
n    -3.6105804    0.4720531   -0.4924737  0.00    0.0020251   -0.0067284    0.0119716
h    -4.1944271    1.4880691    1.2792689  0.00   -0.0007875   -0.0004955    0.0056378
h    -4.5203362    0.0544239   -0.8253024  0.00   -0.0124476   -0.0024590   -0.0050993
h    -3.0080960    0.6557982   -1.3423271  0.00    0.0118066    0.0018697   -0.0108185
o    -1.4550015    1.9515938    1.0739763  0.00    0.0095243   -0.0060537    0.0015755
o    -2.4863542    3.8661254    0.0439287  0.00   -0.0124406   -0.0063764   -0.0148689
h    -1.6526672    4.2963856    0.4495389  0.00    0.0090338    0.0119224    0.0116855
    13
 Energy =       0.0485875509
c    -3.8547105    1.7240886    0.2419751  0.00   -0.0039319    0.0038519    0.0005051
c    -2.5639381    2.5116413    0.4801899  0.00   -0.0039820   -0.0028073    0.0002092
c    -4.9474267    2.5652692   -0.4504374  0.00   -0.0003293    0.0002441    0.0003524
h    -5.9058749    2.0018804   -0.5061066  0.00   -0.0027133   -0.0014713    0.0003491
h    -4.6227240    2.8478349   -1.4800778  0.00    0.0006168    0.0005905   -0.0040598
h    -5.1255036    3.5068226    0.1191357  0.00   -0.0001260    0.0022050    0.0013738
n    -3.6123923    0.4993261   -0.5448493  0.00    0.0002991   -0.0060730    0.0104338
h    -4.2015946    1.4363832    1.2658257  0.00   -0.0005190   -0.0004581    0.0038759
h    -4.5243411    0.0582848   -0.8301044  0.00   -0.0087435   -0.0015084   -0.0030633
h    -3.0767682    0.7334720   -1.4253784  0.00    0.0096733    0.0018833   -0.0106305
o    -1.5254536    1.9509736    1.2327294  0.00    0.0131053   -0.0107268    0.0075423
o    -2.4210148    3.8066719   -0.0312194  0.00   -0.0090824    0.0061937   -0.0133830
h    -1.5654738    4.2170484    0.3379259  0.00    0.0057329    0.0080764    0.0064952
    13
 Energy =       0.0471981808
c    -3.8478560    1.7052153    0.2315047  0.00   -0.0015144    0.0052474    0.0025871
c    -2.5640202    2.4855937    0.5010370  0.00   -0.0047938   -0.0033667    0.0003099
c    -4.9609444    2.5870634   -0.3734116  0.00   -0.0019151   -0.0012565    0.0002174
h    -5.9081213    2.0130614   -0.4713810  0.00   -0.0012308   -0.0013430    0.0002635
h    -4.6508025    2.9646654   -1.3788101  0.00    0.0011826    0.0017239   -0.0053029
h    -5.1478351    3.4750858    0.2778888  0.00   -0.0007241    0.0044364    0.0027019
n    -3.6053419    0.5491540   -0.6549119  0.00   -0.0004741   -0.0109246    0.0097262
h    -4.1716828    1.3339177    1.2371003  0.00   -0.0008334   -0.0011759    0.0044924
h    -4.5138274    0.0756440   -0.8858612  0.00   -0.0056956   -0.0006709   -0.0008485
h    -3.1667080    0.8709946   -1.5633286  0.00    0.0091845    0.0033466   -0.0147217
o    -1.5860387    1.9543064    1.3448629  0.00    0.0084088   -0.0076165    0.0060297
o    -2.3538169    3.7342953   -0.0918937  0.00   -0.0050419    0.0073217   -0.0076935
h    -1.4702211    4.1107000    0.2368130  0.00    0.0034475    0.0042780    0.0022385
    13
 Energy =       0.0461648440
c    -3.8429810    1.6943957    0.2262346  0.00    0.0005304    0.0027225    0.0024835
c    -2.5559060    2.4613414    0.5011565  0.00   -0.0103140   -0.0095760    0.0027175
c    -4.9750650    2.6098668   -0.2841592  0.00   -0.0029291   -0.0007556   -0.0002100
h    -5.9193522    2.0379487   -0.4051383  0.00   -0.0001514   -0.0004035    0.0000618
h    -4.6915495    3.0617007   -1.2647072  0.00    0.0006046    0.0011890   -0.0032653
h    -5.1531356    3.4444098    0.4339118  0.00   -0.0005958    0.0030868    0.0018586
n    -3.6228469    0.6036352   -0.7411992  0.00   -0.0001268   -0.0072524    0.0042493
h    -4.1346880    1.2564928    1.2133994  0.00   -0.0003617   -0.0007253    0.0028881
h    -4.5254939    0.1081348   -0.9360311  0.00   -0.0019089   -0.0001153   -0.0000519
h    -3.2665320    0.9950511   -1.6532354  0.00    0.0045050    0.0018580   -0.0085280
o    -1.6659405    1.9997184    1.4798774  0.00    0.0099043   -0.0123035    0.0136780
o    -2.2435673    3.6156231   -0.2385607  0.00    0.0002812    0.0208909   -0.0157902
h    -1.3501583    3.9713788    0.0780599  0.00    0.0005622    0.0013844   -0.0000915
    13
 Energy =       0.0452884964
c    -3.8279868    1.6746462    0.2066782  0.00    0.0012162    0.0029891    0.0031307
c    -2.5429987    2.4418050    0.4850429  0.00   -0.0022995   -0.0009473   -0.0001007
c    -4.9874968    2.6099070   -0.1970176  0.00   -0.0031092   -0.0008498   -0.0001079
h    -5.9256246    2.0327715   -0.3393831  0.00   -0.0001613   -0.0004092    0.0001157
h    -4.7385817    3.1448525   -1.1461390  0.00    0.0007193    0.0021407   -0.0041416
h    -5.1604092    3.3796241    0.5926649  0.00   -0.0010855    0.0036056    0.0029146
n    -3.6286986    0.6588776   -0.8443134  0.00    0.0003781   -0.0086451    0.0019649
h    -4.0791476    1.1633273    1.1706734  0.00   -0.0006512   -0.0014289    0.0036337
h    -4.5253472    0.1489752   -1.0254143  0.00   -0.0007012   -0.0000999    0.0000892
h    -3.3366478    1.1247318   -1.7436462  0.00    0.0030860    0.0024990   -0.0078299
o    -1.6906550    2.0288026    1.5064731  0.00    0.0030459   -0.0033263    0.0029373
o    -2.1978050    3.5487370   -0.2886923  0.00   -0.0005039    0.0043675   -0.0027045
h    -1.3058173    3.9026391    0.0326819  0.00    0.0000664    0.0001047    0.0000987
    13
 Energy =       0.0449114228
c    -3.8252802    1.6711277    0.2051988  0.00    0.0007384    0.0009577    0.0015934
c    -2.5383276    2.4368996    0.4741363  0.00   -0.0070485   -0.0029758   -0.0013678
c    -4.9910364    2.6132323   -0.1518374  0.00   -0.0015563   -0.0003266   -0.0000795
h    -5.9298702    2.0388702   -0.2996822  0.00   -0.0000540   -0.0001518    0.0000310
h    -4.7570499    3.1767760   -1.0853849  0.00    0.0003112    0.0008892   -0.0018253
h    -5.1548226    3.3544564    0.6632055  0.00   -0.0004944    0.0016346    0.0012751
n    -3.6454242    0.6850210   -0.8735301  0.00    0.0003303   -0.0037124    0.0007140
h    -4.0572520    1.1354711    1.1585369  0.00   -0.0003467   -0.0005565    0.0016062
h    -4.5431960    0.1759706   -1.0501396  0.00   -0.0002466   -0.0000377   -0.0000069
h    -3.3756871    1.1763353   -1.7630384  0.00    0.0012503    0.0010156   -0.0032427
o    -1.7536242    2.1157736    1.5865168  0.00    0.0063810   -0.0071649    0.0122450
o    -2.1295316    3.4564570   -0.3925235  0.00    0.0003699    0.0104374   -0.0113146
h    -1.2461145    3.8233064   -0.0618498  0.00    0.0003655   -0.0000088    0.0003723
    13
 Energy =       0.0445840838
c    -3.8111621    1.6518240    0.1828635  0.00    0.0020866    0.0019828    0.0036586
c    -2.5173945    2.4083615    0.4433192  0.00    0.0000860    0.0005326   -0.0002562
c    -4.9950442    2.6118446   -0.0566976  0.00   -0.0032521   -0.0001555   -0.0005342
h    -5.9368585    2.0438145   -0.2096859  0.00   -0.0001130    0.0000121   -0.0000326
h    -4.8017507    3.2450572   -0.9559891  0.00    0.0001625    0.0019902   -0.0029839
h    -5.1301050    3.2888095    0.8196292  0.00   -0.0008547    0.0025132    0.0029463
n    -3.6767345    0.7414017   -0.9696275  0.00    0.0008396   -0.0065554   -0.0013192
h    -3.9972486    1.0503648    1.1084376  0.00   -0.0002009   -0.0014651    0.0030659
h    -4.5797085    0.2400330   -1.1410986  0.00   -0.0000812   -0.0002187   -0.0003534
h    -3.4501320    1.2953309   -1.8351075  0.00    0.0010215    0.0018452   -0.0044953
o    -1.7619713    2.1325595    1.5778711  0.00    0.0005385   -0.0006970    0.0001398
o    -2.0853818    3.3900162   -0.4425646  0.00   -0.0002311    0.0002289    0.0001706
h    -1.2037245    3.7602797   -0.1117413  0.00   -0.0000019   -0.0000133   -0.0000063
    13
 Energy =       0.0444846009
c    -3.8122495    1.6535606    0.1846972  0.00    0.0010555    0.0009456    0.0018790
c    -2.5192234    2.4121309    0.4420455  0.00   -0.0021303   -0.0003526   -0.0015801
c    -4.9950201    2.6118777   -0.0515242  0.00   -0.0016274   -0.0000600   -0.0002590
h    -5.9370259    2.0440975   -0.2042899  0.00   -0.0000533    0.0000044   -0.0000175
h    -4.8026198    3.2458173   -0.9484814  0.00    0.0000969    0.0009903   -0.0014945
h    -5.1287558    3.2856465    0.8252020  0.00   -0.0004287    0.0012567    0.0014689
n    -3.6809621    0.7445859   -0.9666732  0.00    0.0004539   -0.0032935   -0.0006694
h    -3.9962429    1.0520186    1.1088095  0.00   -0.0001366   -0.0007432    0.0015273
h    -4.5851229    0.2456196   -1.1386610  0.00   -0.0000463   -0.0001068   -0.0001739
h    -3.4525344    1.2984612   -1.8301097  0.00    0.0005121    0.0009471   -0.0022336
o    -1.8076525    2.2021159    1.6215959  0.00    0.0021582   -0.0019919    0.0048645
o    -2.0514223    3.3400550   -0.4858715  0.00   -0.0001023    0.0024058   -0.0035539
h    -1.1783849    3.7237104   -0.1471307  0.00    0.0002482   -0.0000019    0.0002423
    13
 Energy =       0.0444301512
c    -3.8090491    1.6493532    0.1772170  0.00   -0.0002189   -0.0001914   -0.0003479
c    -2.5136132    2.4050384    0.4307360  0.00    0.0002231    0.0001129    0.0000865
c    -4.9937663    2.6090865   -0.0220415  0.00    0.0003477    0.0000314    0.0000165
h    -5.9377233    2.0441241   -0.1732154  0.00    0.0000024    0.0000069   -0.0000029
h    -4.8140039    3.2608222   -0.9062606  0.00   -0.0000012   -0.0002565    0.0003108
h    -5.1148011    3.2624738    0.8690888  0.00    0.0000708   -0.0002430   -0.0003356
n    -3.6954458    0.7643931   -0.9914284  0.00   -0.0000474    0.0007338    0.0001566
h    -3.9791104    1.0300613    1.0899420  0.00    0.0000026    0.0001863   -0.0003137
h    -4.6025869    0.2703550   -1.1617091  0.00   -0.0000009    0.0000063    0.0000218
h    -3.4764139    1.3343816   -1.8446832  0.00   -0.0001069   -0.0002701    0.0005371
o    -1.8273651    2.2343283    1.6274219  0.00   -0.0001979    0.0001276   -0.0006246
o    -2.0261304    3.3024793   -0.5132720  0.00   -0.0000343   -0.0002379    0.0005425
h    -1.1572070    3.6928003   -0.1721870  0.00   -0.0000389   -0.0000061   -0.0000470
    13
 Energy =       0.0444279171
c    -3.8084302    1.6484745    0.1761489  0.00   -0.0000109   -0.0000150   -0.0000161
c    -2.5126208    2.4037960    0.4288200  0.00   -0.0000457   -0.0000142   -0.0000489
c    -4.9940818    2.6091778   -0.0157251  0.00    0.0000224    0.0000055    0.0000011
h    -5.9383705    2.0445630   -0.1661449  0.00   -0.0000010    0.0000015   -0.0000004
h    -4.8173174    3.2645339   -0.8982903  0.00    0.0000002   -0.0000177    0.0000217
h    -5.1126254    3.2590977    0.8787453  0.00    0.0000048   -0.0000178   -0.0000213
n    -3.6980580    0.7679006   -0.9966750  0.00    0.0000009    0.0000527    0.0000032
h    -3.9754706    1.0253701    1.0872108  0.00   -0.0000006    0.0000104   -0.0000209
h    -4.6059858    0.2753467   -1.1670066  0.00   -0.0000017   -0.0000014   -0.0000007
h    -3.4803937    1.3412768   -1.8484216  0.00   -0.0000094   -0.0000184    0.0000431
o    -1.8347371    2.2458609    1.6325107  0.00    0.0000341   -0.0000301    0.0001099
o    -2.0182638    3.2908009   -0.5219270  0.00    0.0000035    0.0000444   -0.0000738
h    -1.1508612    3.6834981   -0.1796366  0.00    0.0000034    0.0000001    0.0000030
    13
 Energy =       0.0444279065
c    -3.8084358    1.6484846    0.1761656  0.00   -0.0000000    0.0000000   -0.0000000
c    -2.5126052    2.4037773    0.4288276  0.00   -0.0000001   -0.0000000   -0.0000001
c    -4.9940837    2.6092245   -0.0157842  0.00    0.0000000   -0.0000000    0.0000000
h    -5.9383800    2.0446073   -0.1661422  0.00   -0.0000000   -0.0000000    0.0000000
h    -4.8173214    3.2645145   -0.8984307  0.00   -0.0000000    0.0000000    0.0000000
h    -5.1126105    3.2592468    0.8786460  0.00    0.0000000    0.0000000    0.0000000
n    -3.6980552    0.7678227   -0.9966281  0.00    0.0000000   -0.0000000   -0.0000000
h    -3.9755025    1.0254311    1.0872830  0.00    0.0000000   -0.0000000   -0.0000000
h    -4.6059914    0.2752774   -1.1669286  0.00   -0.0000000    0.0000000   -0.0000000
h    -3.4803751    1.3411441   -1.8484402  0.00   -0.0000000    0.0000000   -0.0000000
o    -1.8344513    2.2454821    1.6322441  0.00    0.0000000   -0.0000000    0.0000002
o    -2.0184346    3.2910372   -0.5217155  0.00    0.0000000    0.0000000   -0.0000001
h    -1.1509696    3.6836473   -0.1794884  0.00    0.0000000    0.0000000    0.0000000
    13
 Energy =       0.0444279065
c    -3.8084360    1.6484849    0.1761659  0.00    0.0000000    0.0000000    0.0000000
c    -2.5126050    2.4037769    0.4288276  0.00   -0.0000000   -0.0000000   -0.0000000
c    -4.9940833    2.6092252   -0.0157855  0.00   -0.0000000    0.0000000    0.0000000
h    -5.9383799    2.0446084   -0.1661435  0.00   -0.0000000   -0.0000000    0.0000000
h    -4.8173202    3.2645141   -0.8984326  0.00    0.0000000    0.0000000   -0.0000000
h    -5.1126103    3.2592485    0.8786438  0.00   -0.0000000    0.0000000    0.0000000
n    -3.6980554    0.7678216   -0.9966266  0.00    0.0000000   -0.0000000   -0.0000000
h    -3.9755035    1.0254325    1.0872840  0.00   -0.0000000   -0.0000000    0.0000000
h    -4.6059916    0.2752760   -1.1669264  0.00   -0.0000000   -0.0000000   -0.0000000