    13
 Energy =       0.1127801318
c    -3.7133889    1.6950595    0.3173519  0.00   -0.0445248   -0.0200318    0.0137464
c    -2.4962693    2.6345192    0.2419999  0.00    0.0812361    0.3621634    0.1240570
c    -4.9565486    2.3924193   -0.2155699  0.00    0.0211203    0.0111713    0.0070945
h    -5.8072983    1.7014095   -0.2223689  0.00    0.0127286    0.0085050   -0.0028978
h    -4.8071186    2.7393792   -1.2437896  0.00   -0.0078030   -0.0051698    0.0169300
h    -5.2375685    3.2516891    0.4029209  0.00   -0.0017474   -0.0149038   -0.0118644
n    -3.4097890    0.4519539   -0.4549189  0.00    0.0505889   -0.0503341   -0.0131119
h    -3.8575589    1.4177196    1.3669296  0.00    0.0060592   -0.0119483   -0.0251970
h    -3.2072391   -0.2948399    0.2179739  0.00   -0.0174514    0.0284699   -0.0178737
h    -4.2689788    0.1396900   -0.9176007  0.00    0.0219088    0.0215161    0.0250551
o    -2.4571893    3.7760389    0.6681628  0.00   -0.0151632   -0.2736240   -0.1134161
o    -1.4389296    2.0221094   -0.3549299  0.00   -0.0704661   -0.0515624    0.0058913
h    -0.7518168    1.9408394    0.3531709  0.00   -0.0364862   -0.0042515   -0.0084134
    13
 Energy =       0.0944583180
c    -3.7142898    1.6939148    0.3256126  0.00   -0.0320956   -0.0133748    0.0110997
c    -2.4786771    2.5974736    0.2322291  0.00    0.0565403    0.2531230    0.0893946
c    -4.9465861    2.4184521   -0.2178193  0.00    0.0196569    0.0043323    0.0098640
h    -5.7922148    1.7154035   -0.3625924  0.00    0.0027716   -0.0009461   -0.0036326
h    -4.7274547    2.8981323   -1.1967953  0.00   -0.0021559    0.0014429    0.0018759
h    -5.2800893    3.2023199    0.4905137  0.00   -0.0024894   -0.0055069   -0.0020905
n    -3.4505045    0.4356403   -0.4249917  0.00    0.0373292   -0.0350806   -0.0095770
h    -3.8665890    1.4478380    1.3878783  0.00    0.0039142   -0.0084247   -0.0173515
h    -3.2532985   -0.3135840    0.2565535  0.00   -0.0123745    0.0198601   -0.0124150
h    -4.3091056    0.1298211   -0.9070523  0.00    0.0147927    0.0154416    0.0173809
o    -2.4373830    3.7916656    0.6615484  0.00   -0.0103070   -0.1913374   -0.0807948
o    -1.4131416    2.0191835   -0.4016824  0.00   -0.0555435   -0.0352084   -0.0058588
h    -0.7403595    1.8317265    0.3159297  0.00   -0.0200389   -0.0043211    0.0021051
    13
 Energy =       0.0859320047
c    -3.7040635    1.6970186    0.3196105  0.00   -0.0248845   -0.0098192    0.0086086
c    -2.4698420    2.5945279    0.2016693  0.00    0.0442553    0.1963144    0.0699303
c    -4.9487218    2.4199324   -0.1999324  0.00    0.0213625    0.0002408    0.0098131
h    -5.8312855    1.7322730   -0.2038393  0.00   -0.0054527   -0.0074189   -0.0024543
h    -4.7789824    2.7879330   -1.2445667  0.00    0.0006861    0.0033106   -0.0070713
h    -5.1908970    3.2943452    0.4525415  0.00   -0.0027387    0.0027275    0.0043791
n    -3.4703286    0.4356889   -0.4290797  0.00    0.0297500   -0.0269282   -0.0076495
h    -3.8348232    1.4646767    1.3912641  0.00    0.0029973   -0.0065075   -0.0130952
h    -3.2774785   -0.3217464    0.2497552  0.00   -0.0096380    0.0152605   -0.0096285
h    -4.3345908    0.1438777   -0.9185738  0.00    0.0111175    0.0121929    0.0132308
o    -2.4396459    3.8151817    0.6376472  0.00   -0.0083667   -0.1483200   -0.0626465
o    -1.3831257    2.0296299   -0.4165820  0.00   -0.0465164   -0.0266767   -0.0093668
h    -0.7459088    1.7746487    0.3194180  0.00   -0.0125717   -0.0043762    0.0059502
    13
 Energy =       0.0770440155
c    -3.6796712    1.6970625    0.3095270  0.00   -0.0110170   -0.0032229    0.0042075
c    -2.4454665    2.5816514    0.1386179  0.00    0.0237956    0.0921697    0.0360273
c    -4.9558035    2.4326737   -0.1324472  0.00    0.0103096    0.0003291    0.0051915
h    -5.8497073    1.7664693   -0.0450861  0.00   -0.0062604   -0.0055640   -0.0012588
h    -4.8568610    2.7671410   -1.1960558  0.00    0.0010288    0.0021062   -0.0063905
h    -5.1258965    3.3320104    0.5090502  0.00   -0.0015894    0.0031332    0.0042519
n    -3.5148665    0.4377350   -0.4531158  0.00    0.0171906   -0.0126305   -0.0048321
h    -3.7525237    1.4728138    1.3957766  0.00    0.0016416   -0.0027578   -0.0042792
h    -3.3306535   -0.3454594    0.2086135  0.00   -0.0046501    0.0062052   -0.0043752
h    -4.3883492    0.1810266   -0.9611143  0.00    0.0040684    0.0055222    0.0053644
o    -2.4288379    3.8533202    0.5777246  0.00   -0.0045916   -0.0698235   -0.0302708
o    -1.3283083    2.0432061   -0.4674106  0.00   -0.0338922   -0.0069942   -0.0226594
h    -0.7527487    1.6483365    0.2752521  0.00    0.0039661   -0.0084727    0.0190234
    13
 Energy =       0.0758101828
c    -3.6980942    1.7150433    0.3104217  0.00   -0.0077525   -0.0028363    0.0032315
c    -2.4316543    2.5629721    0.1874185  0.00    0.0180967    0.0711035    0.0276180
c    -4.9272017    2.4689633   -0.2380921  0.00    0.0048078    0.0013063    0.0045038
h    -5.8446156    1.8355557   -0.1639583  0.00   -0.0056660   -0.0045868   -0.0004883
h    -4.7626061    2.7495506   -1.3109420  0.00    0.0012543    0.0026880   -0.0082595
h    -5.1033449    3.4036936    0.3502971  0.00   -0.0022805    0.0040545    0.0041967
n    -3.5232127    0.4241476   -0.3959042  0.00    0.0163764   -0.0086548   -0.0072239
h    -3.8477823    1.5348915    1.4013666  0.00    0.0005841   -0.0028205    0.0003794
h    -3.3988314   -0.3397893    0.3073472  0.00   -0.0028652    0.0015372   -0.0000534
h    -4.3724601    0.1693947   -0.9488245  0.00    0.0013523    0.0039685    0.0028366
o    -2.4000045    3.8394725    0.6425137  0.00   -0.0028720   -0.0534461   -0.0230197
o    -1.2941373    2.0027783   -0.3663229  0.00   -0.0316414    0.0012635   -0.0303572
h    -0.8057489    1.5013132    0.3840111  0.00    0.0106060   -0.0135768    0.0266359
    13
 Energy =       0.0741386751
c    -3.7045088    1.7166603    0.2997277  0.00   -0.0049633   -0.0007871    0.0015202
c    -2.4034049    2.5142909    0.2039632  0.00    0.0050282    0.0333525    0.0141197
c    -4.8961435    2.5145677   -0.2687171  0.00    0.0021647    0.0010293    0.0015315
h    -5.8387897    1.9258970   -0.1809184  0.00   -0.0035237   -0.0029125    0.0000005
h    -4.7169286    2.7633489   -1.3427024  0.00    0.0008125    0.0014703   -0.0041525
h    -5.0293230    3.4695404    0.2945490  0.00   -0.0014937    0.0029658    0.0024387
n    -3.5776199    0.4164148   -0.3954352  0.00    0.0152244    0.0023798   -0.0042288
h    -3.8806283    1.5514229    1.3890797  0.00    0.0001084   -0.0014675    0.0006424
h    -3.5575845   -0.3620369    0.3115373  0.00   -0.0009779   -0.0062778    0.0058263
h    -4.3955412    0.2228941   -1.0274246  0.00   -0.0066510    0.0011360   -0.0039647
o    -2.3568415    3.8203159    0.6314655  0.00   -0.0015343   -0.0225594   -0.0103779
o    -1.2401415    1.9129560   -0.2624811  0.00   -0.0112444   -0.0009480   -0.0175342
h    -0.8122383    1.4017153    0.5066884  0.00    0.0070500   -0.0073815    0.0141787
    13
 Energy =       0.0744319880
c    -3.7007530    1.7034307    0.2858704  0.00   -0.0046884   -0.0006366    0.0017870
c    -2.4177998    2.5326661    0.2039683  0.00    0.0015717    0.0284572    0.0124499
c    -4.9139917    2.4802626   -0.2671662  0.00    0.0019108    0.0013806    0.0014225
h    -5.8414897    1.8672212   -0.1852608  0.00   -0.0035360   -0.0028254    0.0001109
h    -4.7437182    2.7495059   -1.3374253  0.00    0.0008408    0.0014099   -0.0039559
h    -5.0687814    3.4239231    0.3094147  0.00   -0.0014580    0.0030198    0.0023269
n    -3.5439294    0.4173112   -0.4298588  0.00    0.0149188    0.0021468   -0.0038203
h    -3.8712060    1.5166870    1.3727054  0.00   -0.0000460   -0.0013791    0.0008011
h    -3.5433703   -0.3745113    0.2621501  0.00   -0.0008987   -0.0060627    0.0057292
h    -4.3360377    0.2313105   -1.0968066  0.00   -0.0070321    0.0003290   -0.0046232
o    -2.4279005    3.8664514    0.5584758  0.00   -0.0026459   -0.0147456   -0.0077439
o    -1.2154720    1.9374435   -0.1716048  0.00   -0.0095667   -0.0002154   -0.0245242
h    -0.7852440    1.5162853    0.6548698  0.00    0.0106299   -0.0108785    0.0200400
    13
 Energy =       0.0739223237
c    -3.7044191    1.7075391    0.2966210  0.00   -0.0034473    0.0010630    0.0046152
c    -2.4615229    2.6002431    0.2472125  0.00   -0.0008318    0.0159279    0.0080363
c    -4.9296655    2.4129049   -0.3275214  0.00   -0.0008598    0.0010524   -0.0005127
h    -5.8345106    1.7666470   -0.2526505  0.00   -0.0034272   -0.0023737   -0.0001427
h    -4.7353605    2.6478129   -1.4014474  0.00    0.0003784    0.0011513   -0.0038469
h    -5.1408827    3.3715446    0.2078730  0.00   -0.0016420    0.0043105    0.0029199
n    -3.4596231    0.4086475   -0.3758626  0.00    0.0143951   -0.0023482   -0.0035279
h    -3.9116905    1.5444401    1.3816893  0.00    0.0000762   -0.0003619    0.0017275
h    -3.4535858   -0.3630564    0.3372232  0.00   -0.0005446   -0.0051342    0.0045630
h    -4.2146824    0.1685596   -1.0696735  0.00   -0.0078644   -0.0010406   -0.0061955
o    -2.5303989    3.9051104    0.7172289  0.00   -0.0034477   -0.0007647   -0.0011950
o    -1.2354204    2.0958003   -0.1910271  0.00   -0.0020839   -0.0012931   -0.0268064
h    -0.7979313    1.6017943    0.5896665  0.00    0.0092989   -0.0101888    0.0203652
    13
 Energy =       0.0730626922
c    -3.7151209    1.7203437    0.3236726  0.00   -0.0000846    0.0029849    0.0023894
c    -2.4758963    2.6095955    0.2728578  0.00   -0.0055587   -0.0017774   -0.0021819
c    -4.9111820    2.3870340   -0.3875962  0.00   -0.0021298   -0.0001542    0.0000624
h    -5.8182358    1.7516633   -0.2970917  0.00   -0.0003187   -0.0004918    0.0001268
h    -4.6815783    2.5481302   -1.4676994  0.00    0.0003134    0.0008227   -0.0034383
h    -5.1319697    3.3791890    0.0746230  0.00   -0.0009679    0.0030157    0.0017186
n    -3.4511413    0.3804195   -0.2511035  0.00    0.0133936    0.0036973   -0.0062673
h    -3.9644432    1.6277888    1.4102855  0.00   -0.0003565   -0.0000027    0.0034601
h    -3.5736960   -0.3560482    0.4959763  0.00   -0.0003593   -0.0101988    0.0122632
h    -4.1178687    0.1433551   -1.0340544  0.00   -0.0098994   -0.0004893   -0.0095430
o    -2.5160692    3.8715106    0.8666423  0.00   -0.0032406    0.0094291    0.0052581
o    -1.2773125    2.1584482   -0.2814312  0.00    0.0064007   -0.0029094   -0.0114532
h    -0.7751798    1.6465575    0.4342508  0.00    0.0028077   -0.0039261    0.0076050
    13
 Energy =       0.0722657143
c    -3.7411747    1.7364324    0.3496321  0.00    0.0030155    0.0010850    0.0010809
c    -2.4894103    2.6083727    0.3430000  0.00   -0.0071484   -0.0002309    0.0014971
c    -4.8752250    2.3850224   -0.4773936  0.00   -0.0051295    0.0014118    0.0003442
h    -5.8002399    1.7718712   -0.4142439  0.00   -0.0010863   -0.0002623    0.0003910
h    -4.5695821    2.4831438   -1.5489286  0.00    0.0011745    0.0009488   -0.0060828
h    -5.1077553    3.4043149   -0.0835511  0.00   -0.0017326    0.0036999    0.0016753
n    -3.4530344    0.3687957   -0.1431751  0.00    0.0096546   -0.0006797   -0.0043323
h    -4.0695599    1.6971663    1.4210879  0.00   -0.0013386    0.0001057    0.0059372
h    -3.6001669   -0.3276889    0.6320282  0.00   -0.0000690   -0.0064152    0.0070338
h    -4.0879011    0.0861101   -0.9334071  0.00   -0.0056315   -0.0011968   -0.0062474
o    -2.4976770    3.8254247    1.0253954  0.00   -0.0029054    0.0100552    0.0055280
o    -1.3283704    2.2065231   -0.3226711  0.00    0.0044620   -0.0009182   -0.0172931
h    -0.7895968    1.6224986    0.3115588  0.00    0.0067347   -0.0076032    0.0104680
    13
 Energy =       0.0712546502
c    -3.7644704    1.7540410    0.3692820  0.00    0.0035569    0.0014994    0.0005741
c    -2.5063659    2.6136554    0.3950137  0.00   -0.0057315   -0.0008359    0.0026863
c    -4.8343181    2.3667046   -0.5630813  0.00   -0.0053665    0.0017157    0.0002000
h    -5.7706191    1.7692724   -0.5243504  0.00   -0.0009901   -0.0000022    0.0003590
h    -4.4603982    2.3995670   -1.6168447  0.00    0.0013754    0.0006672   -0.0059721
h    -5.0760048    3.4088997   -0.2423043  0.00   -0.0017379    0.0035770    0.0013848
n    -3.4570101    0.3612758   -0.0320030  0.00    0.0068436   -0.0023041   -0.0028161
h    -4.1625885    1.7729827    1.4176049  0.00   -0.0015771    0.0003929    0.0057963
h    -3.6108479   -0.2853073    0.7815042  0.00   -0.0002597   -0.0042843    0.0041264
h    -4.0773791    0.0207314   -0.8085055  0.00   -0.0028497   -0.0019433   -0.0041740
o    -2.4858196    3.7796672    1.1585129  0.00   -0.0022000    0.0080799    0.0045942
o    -1.3841327    2.2742012   -0.3623493  0.00    0.0023391    0.0007216   -0.0154997
h    -0.8197394    1.6322961    0.1868526  0.00    0.0065974   -0.0072837    0.0087406
    13
 Energy =       0.0703031035
c    -3.7796961    1.7717790    0.3924723  0.00    0.0021257    0.0032773    0.0008140
c    -2.5206638    2.6265153    0.4228168  0.00   -0.0062235   -0.0024006    0.0029380
c    -4.8003028    2.3281784   -0.6233459  0.00   -0.0038911    0.0008613   -0.0003334
h    -5.7374521    1.7321982   -0.5979334  0.00   -0.0004723    0.0001219    0.0001009
h    -4.3749825    2.3015931   -1.6561294  0.00    0.0010652    0.0002305   -0.0043795
h    -5.0548200    3.3861862   -0.3744536  0.00   -0.0013365    0.0032086    0.0010992
n    -3.4580922    0.3573559    0.0906833  0.00    0.0066834   -0.0030511   -0.0037880
h    -4.2255238    1.8533972    1.4173009  0.00   -0.0012609    0.0004920    0.0044758
h    -3.6763853   -0.2402729    0.9276197  0.00   -0.0007245   -0.0039662    0.0057508
h    -4.0268230   -0.0204014   -0.7076203  0.00   -0.0026077   -0.0013030   -0.0040621
o    -2.4575763    3.7308215    1.2714840  0.00   -0.0024238    0.0080512    0.0057649
o    -1.4497917    2.3582126   -0.4316618  0.00    0.0028825    0.0014794   -0.0149566
h    -0.8475841    1.6824241    0.0280995  0.00    0.0061834   -0.0070013    0.0065758
    13
 Energy =       0.0694485276
c    -3.7968869    1.7950124    0.4131864  0.00    0.0013705    0.0039023    0.0012625
c    -2.5378980    2.6475876    0.4478829  0.00   -0.0028310   -0.0041735    0.0000106
c    -4.7596354    2.2755539   -0.6929286  0.00   -0.0032167    0.0002438   -0.0008249
h    -5.6957320    1.6778706   -0.6793062  0.00   -0.0002346    0.0001481   -0.0000613
h    -4.2768713    2.1796301   -1.6953299  0.00    0.0011786   -0.0002315   -0.0035722
h    -5.0279042    3.3470215   -0.5332067  0.00   -0.0012664    0.0032444    0.0006817
n    -3.4604057    0.3645442    0.2285886  0.00    0.0064189   -0.0032870   -0.0022136
h    -4.2968060    1.9469098    1.4039391  0.00   -0.0013043    0.0006876    0.0035904
h    -3.7492734   -0.1766910    1.0817553  0.00   -0.0009263   -0.0027832    0.0052053
h    -3.9654637   -0.0634090   -0.5871919  0.00   -0.0023465   -0.0015421   -0.0042420
o    -2.4209514    3.6740008    1.3832029  0.00   -0.0015008    0.0067534    0.0057712
o    -1.5224756    2.4566324   -0.4860209  0.00   -0.0000249    0.0023249   -0.0093244
h    -0.8993902    1.7433239   -0.1252392  0.00    0.0046834   -0.0052873    0.0037168
    13
 Energy =       0.0689406330
c    -3.8109422    1.8160722    0.4258343  0.00    0.0003706    0.0015755    0.0008948
c    -2.5560730    2.6741877    0.4639866  0.00   -0.0017074   -0.0049251   -0.0031306
c    -4.7236421    2.2172475   -0.7484351  0.00   -0.0010242   -0.0000504   -0.0004867
h    -5.6566429    1.6146985   -0.7386142  0.00   -0.0000382    0.0000082   -0.0000431
h    -4.1962599    2.0616790   -1.7176056  0.00    0.0003705   -0.0001031   -0.0010197
h    -5.0013774    3.2931195   -0.6716269  0.00   -0.0004345    0.0012216    0.0001729
n    -3.4613706    0.3822175    0.3462720  0.00    0.0013793   -0.0015093    0.0003037
h    -4.3562151    2.0254212    1.3788791  0.00   -0.0004532    0.0002632    0.0010443
h    -3.7917086   -0.1068204    1.2119742  0.00   -0.0000408   -0.0003587    0.0002237
h    -3.9223323   -0.1005485   -0.4621858  0.00   -0.0003961   -0.0007427   -0.0009254
o    -2.3741988    3.5976273    1.4922536  0.00   -0.0005520    0.0061970    0.0072515
o    -1.5957846    2.5709999   -0.5374081  0.00   -0.0011489    0.0027480   -0.0061825
h    -0.9631463    1.8220859   -0.2839923  0.00    0.0036748   -0.0043241    0.0018971
    13
 Energy =       0.0688278781
c    -3.8193758    1.8316800    0.4282582  0.00    0.0003744    0.0018094    0.0006335
c    -2.5703466    2.6985673    0.4626507  0.00    0.0003063   -0.0000513    0.0000969
c    -4.7039847    2.1729539   -0.7863274  0.00   -0.0011307   -0.0001703   -0.0006135
h    -5.6332585    1.5646722   -0.7728229  0.00   -0.0000631   -0.0000142   -0.0000628
h    -4.1512649    1.9775494   -1.7340096  0.00    0.0004239   -0.0002226   -0.0011356
h    -4.9898407    3.2493158   -0.7660574  0.00   -0.0004719    0.0013655    0.0000408
n    -3.4594951    0.3978672    0.4231623  0.00    0.0025716   -0.0016058   -0.0000998
h    -4.3909207    2.0803557    1.3563487  0.00   -0.0004975    0.0004870    0.0011479
h    -3.8260405   -0.0566492    1.2943328  0.00   -0.0006115   -0.0006532    0.0018682
h    -3.8817035   -0.1203052   -0.3852625  0.00   -0.0007461   -0.0009881   -0.0018109
o    -2.3707409    3.5927914    1.5059428  0.00   -0.0001353    0.0000837   -0.0001880
o    -1.6221108    2.6160180   -0.5480797  0.00    0.0000615   -0.0001453    0.0000428
h    -0.9906112    1.8631706   -0.3188040  0.00   -0.0000816    0.0001051    0.0000804
    13
 Energy =       0.0688083890
c    -3.8170136    1.8313766    0.4329589  0.00    0.0000565    0.0003747    0.0001635
c    -2.5670810    2.6971088    0.4637256  0.00   -0.0005020   -0.0007020   -0.0004544
c    -4.7052477    2.1717839   -0.7775500  0.00   -0.0002255   -0.0000251   -0.0001304
h    -5.6347843    1.5640205   -0.7601485  0.00   -0.0000187   -0.0000063   -0.0000134
h    -4.1562533    1.9758886   -1.7262269  0.00    0.0000960   -0.0000450   -0.0002306
h    -4.9898396    3.2473457   -0.7573783  0.00   -0.0000953    0.0002717    0.0000089
n    -3.4585321    0.3987431    0.4273162  0.00    0.0005344   -0.0003147   -0.0000300
h    -4.3853173    2.0802698    1.3618590  0.00   -0.0001145    0.0000915    0.0002317
h    -3.8280389   -0.0567998    1.2955794  0.00   -0.0001225   -0.0001340    0.0003883
h    -3.8776737   -0.1184901   -0.3820057  0.00   -0.0001593   -0.0002014   -0.0003665
o    -2.3389876    3.5552421    1.5325590  0.00   -0.0000405    0.0009731    0.0014314
o    -1.6417130    2.6427350   -0.5708637  0.00   -0.0002470    0.0007228   -0.0012566
h    -1.0092116    1.8787630   -0.3804932  0.00    0.0008384   -0.0010052    0.0002580
    13
 Energy =       0.0688057107
c    -3.8176919    1.8324797    0.4329428  0.00    0.0000030    0.0000110    0.0000054
c    -2.5682580    2.6989419    0.4637620  0.00    0.0000005   -0.0000059   -0.0000021
c    -4.7033874    2.1681048   -0.7803361  0.00   -0.0000082   -0.0000011   -0.0000032
h    -5.6327903    1.5601676   -0.7625820  0.00   -0.0000003   -0.0000000   -0.0000002
h    -4.1524692    1.9689956   -1.7269554  0.00    0.0000029   -0.0000010   -0.0000086
h    -4.9881561    3.2434256   -0.7647575  0.00   -0.0000033    0.0000096    0.0000010
n    -3.4586048    0.4003529    0.4329641  0.00    0.0000143   -0.0000105    0.0000005
h    -4.3881484    2.0841085    1.3595014  0.00   -0.0000032    0.0000028    0.0000079
h    -3.8300249   -0.0525553    1.3015020  0.00   -0.0000016   -0.0000043    0.0000079
h    -3.8752808   -0.1198490   -0.3754030  0.00   -0.0000051   -0.0000058   -0.0000107
o    -2.3383521    3.5537715    1.5335863  0.00   -0.0000024    0.0000084    0.0000051
o    -1.6441764    2.6471143   -0.5712287  0.00   -0.0000008    0.0000006   -0.0000080
h    -1.0123535    1.8829290   -0.3836640  0.00    0.0000041   -0.0000039    0.0000050
    13
 Energy =       0.0688057019
c    -3.8177420    1.8325331    0.4330201  0.00    0.0000000    0.0000000   -0.0000000
c    -2.5682665    2.6989318    0.4639854  0.00   -0.0000003   -0.0000005   -0.0000005
c    -4.7031770    2.1679784   -0.7804878  0.00   -0.0000000    0.0000000   -0.0000000
h    -5.6326156    1.5600935   -0.7628021  0.00   -0.0000000    0.0000000    0.0000000
h    -4.1520900    1.9686691   -1.7269558  0.00    0.0000000   -0.0000000   -0.0000000
h    -4.9878828    3.2433090   -0.7651734  0.00   -0.0000000    0.0000000   -0.0000000
n    -3.4587228    0.4004027    0.4333622  0.00    0.0000001    0.0000000   -0.0000000
h    -4.3883814    2.0843432    1.3594074  0.00   -0.0000000    0.0000000    0.0000000
h    -3.8305003   -0.0523726    1.3018110  0.00   -0.0000000   -0.0000000    0.0000001
h    -3.8750989   -0.1198904   -0.3750907  0.00   -0.0000000   -0.0000000   -0.0000001
o    -2.3377353    3.5527153    1.5345046  0.00    0.0000000    0.0000007    0.0000010
o    -1.6446207    2.6478706   -0.5714304  0.00   -0.0000002    0.0000005   -0.0000007
h    -1.0128604    1.8834035   -0.3848186  0.00    0.0000005   -0.0000006    0.0000002
