    27
 Energy =       5.1534327448
c    -1.4235396    2.6054793   -0.0667700  0.00   -0.0467058    0.0383901    0.0027574
c    -1.3072796    1.2134697   -0.1072300  0.00   -0.0852734   -0.0325396    0.0020109
c    -0.0178900    0.6711998   -0.1697000  0.00   -0.0896494   -0.1884971   -0.0014773
c    -0.2940599    3.4190890   -0.0891300  0.00   -0.0203996    0.0689351    0.0029804
c     0.9872197    2.8590292   -0.1560400  0.00    0.4787114    0.1859617    0.1443048
c     1.1340797    1.4562096   -0.1970299  0.00    0.0656389    0.0629152    0.0067581
n     0.3879399   -0.6395298   -0.2140799  0.00    0.1447691    0.1110381   -0.0022391
c     2.2666594    0.5727398   -0.2659299  0.00    0.1560958   -0.0914578   -0.0204157
c     1.7555995   -0.7123598   -0.2706899  0.00   -0.1004746   -0.0972219    0.0044874
h    -0.2400399   -1.4313496   -0.2047299  0.00    0.0369399    0.0481957   -0.0009064
c     3.7030089    1.0223397   -0.3320099  0.00    0.0048001   -0.0018071    0.0793491
c     4.0547688    2.2615794    0.5049969  0.00    0.0373835   -0.0984727   -0.1131099
h     3.9407589    1.2278196   -1.3843196  0.00    0.0003106   -0.0064679    0.0113009
h     4.3455988    0.1801669   -0.0411573  0.00   -0.0135446    0.0125934    0.0059645
c     4.1070688    1.8611695    1.9910894  0.00    0.0308758    0.2267554    0.3259985
n     3.0543991    3.3796390    0.3726399  0.00  -39.4989817    4.1189489  -17.8148683
h     5.0442386    2.6531392    0.2410219  0.00   -0.0265204    0.0128725    0.0048205
h     2.6236993    3.5084390    1.2940596  0.00   -0.1780445   -0.0477207   -0.4115369
h     3.5785090    4.2489388    0.2226519  0.00   -0.0690475   -0.0581264   -0.0037744
h    -2.4108593    3.0588691   -0.0157800  0.00   -0.0008331    0.0002776   -0.0000062
h    -2.1896094    0.5822398   -0.0890100  0.00   -0.0035635    0.0037056    0.0000097
h    -0.4052699    4.5000487   -0.0535400  0.00    0.0008956    0.0001007    0.0002115
h     1.8590495    3.5066790   -0.1715100  0.00   39.2778760   -4.1229456   18.1411637
h     2.2327294   -1.6813195   -0.3062999  0.00   -0.0412525   -0.0117701    0.0013605
o     4.4286787    2.5928493    2.9125692  0.00   -0.0714653   -0.1760227   -0.2238867
o     3.7415389    0.5622178    2.1634194  0.00   -0.0054678    0.0281231   -0.1095324
h     2.9344892    0.5974698    2.7396392  0.00    0.0169270    0.0142366   -0.0317247
    27
 Energy =       3.6202217461
c    -1.4141064    2.5836718   -0.0950210  0.00   -0.0274666    0.0226327    0.0021278
c    -1.2892441    1.2069258   -0.1317010  0.00   -0.0510599   -0.0197357    0.0015693
c    -0.0187402    0.6754671   -0.1983562  0.00   -0.0531165   -0.1133520   -0.0010746
c    -0.2964962    3.3956488   -0.1256927  0.00   -0.0122469    0.0408696    0.0022650
c     0.9722631    2.8440580   -0.1962255  0.00    0.3165518    0.1207079    0.0932811
c     1.1073162    1.4587713   -0.2249073  0.00    0.0386528    0.0391827    0.0048283
n     0.3630742   -0.6627682   -0.2195479  0.00    0.0849426    0.0654671   -0.0011110
c     2.2266231    0.6122807   -0.2615335  0.00    0.0950436   -0.0545860   -0.0130124
c     1.7564768   -0.6707208   -0.2633618  0.00   -0.0611614   -0.0553054    0.0022527
h    -0.2561293   -1.4794057   -0.2058801  0.00    0.0226367    0.0283655   -0.0006734
c     3.6775191    1.0289837   -0.3312963  0.00    0.0030107   -0.0026397    0.0528608
c     4.0753338    2.2394427    0.5218769  0.00    0.0238541   -0.0601635   -0.0681576
h     3.9122776    1.2487931   -1.3868506  0.00    0.0000992   -0.0036146    0.0065126
h     4.3017249    0.1649700   -0.0394157  0.00   -0.0089004    0.0076960    0.0059943
c     4.1749901    1.8248764    1.9897403  0.00    0.0242133    0.1473979    0.1906968
n     3.0882481    3.3587465    0.3965947  0.00  -26.7059629    2.7790314  -12.0546229
h     5.0752911    2.6025174    0.2244471  0.00   -0.0153371    0.0080895    0.0023516
h     2.6528578    3.4727709    1.3349370  0.00   -0.1209950   -0.0324683   -0.2714111
h     3.6258949    4.2365496    0.2816164  0.00   -0.0448400   -0.0357038   -0.0022422
h    -2.4035623    3.0303388   -0.0296427  0.00   -0.0007062   -0.0001709    0.0007426
h    -2.1641629    0.5658091   -0.0984416  0.00   -0.0021579    0.0017834    0.0004720
h    -0.4120420    4.4757175   -0.0768325  0.00    0.0002876   -0.0000517    0.0006308
h     1.8562500    3.4897414   -0.1637653  0.00   26.5606401   -2.7859659   12.2684105
h     2.3162765   -1.5988143   -0.2913976  0.00   -0.0222434   -0.0089796    0.0002265
o     4.5082502    2.6574754    2.9152539  0.00   -0.0444709   -0.1007032   -0.1347533
o     3.6795664    0.5709017    2.2665655  0.00    0.0243610   -0.0058775   -0.0841179
h     2.7757360    0.7435138    2.7159690  0.00   -0.0236284    0.0180943   -0.0040464
    27
 Energy =       3.2438506007
c    -1.4343336    2.5584389   -0.1317239  0.00   -0.0241186    0.0197910    0.0017699
c    -1.2966996    1.1851733   -0.1526242  0.00   -0.0447682   -0.0174798    0.0012689
c    -0.0248704    0.6649775   -0.1999532  0.00   -0.0464652   -0.0993971   -0.0011696
c    -0.3248748    3.3786973   -0.1573586  0.00   -0.0108816    0.0357662    0.0019146
c     0.9470860    2.8387575   -0.2087132  0.00    0.2791323    0.1059060    0.0820912
c     1.0906439    1.4565733   -0.2232302  0.00    0.0340288    0.0343553    0.0041784
n     0.3640114   -0.6758628   -0.2024430  0.00    0.0744349    0.0570869   -0.0010016
c     2.2132664    0.6251711   -0.2430703  0.00    0.0833862   -0.0478805   -0.0110419
c     1.7618624   -0.6610867   -0.2358565  0.00   -0.0533585   -0.0484298    0.0019408
h    -0.2460621   -1.5026050   -0.1854936  0.00    0.0199881    0.0245711   -0.0006278
c     3.6600000    1.0506892   -0.3355218  0.00    0.0025110   -0.0020343    0.0465936
c     4.0638391    2.2549652    0.5209647  0.00    0.0208039   -0.0525344   -0.0597665
h     3.8725717    1.2847595   -1.3938668  0.00    0.0003151   -0.0030689    0.0055088
h     4.2986999    0.1889507   -0.0648975  0.00   -0.0074914    0.0066170    0.0054460
c     4.1933138    1.8411462    1.9839293  0.00    0.0221399    0.1319782    0.1653087
n     3.0722194    3.3661422    0.4019531  0.00  -23.6044809    2.4549190  -10.6546003
h     5.0607354    2.6188640    0.2085293  0.00   -0.0133695    0.0072746    0.0021314
h     2.6443015    3.4924699    1.3426901  0.00   -0.1072243   -0.0284614   -0.2397286
h     3.6095431    4.2453318    0.2691512  0.00   -0.0392910   -0.0310277   -0.0020482
h    -2.4286939    2.9964518   -0.0836021  0.00   -0.0008285   -0.0002782    0.0004953
h    -2.1654202    0.5354595   -0.1234576  0.00   -0.0018558    0.0013202    0.0002838
h    -0.4509061    4.4580437   -0.1198732  0.00    0.0000960   -0.0000595    0.0004453
h     1.8285620    3.4988936   -0.1638252  0.00   23.4763647   -2.4614073   10.8436289
h     2.3432626   -1.5763365   -0.2587633  0.00   -0.0191045   -0.0080642    0.0003038
o     4.5474561    2.6876536    2.9071145  0.00   -0.0388420   -0.0880482   -0.1175521
o     3.7642634    0.5653304    2.2823513  0.00    0.0376473   -0.0097304   -0.0841863
h     2.9277089    0.6992131    2.8747221  0.00   -0.0387682    0.0183163    0.0084134
    27
 Energy =       2.8263959287
c    -1.4544410    2.5400795   -0.1643283  0.00   -0.0203621    0.0166243    0.0014211
c    -1.3072682    1.1705264   -0.1675353  0.00   -0.0377261   -0.0149315    0.0009735
c    -0.0360323    0.6589563   -0.1951459  0.00   -0.0390255   -0.0838441   -0.0012396
c    -0.3514737    3.3658829   -0.1865731  0.00   -0.0093343    0.0300595    0.0015738
c     0.9216740    2.8344182   -0.2187330  0.00    0.2376023    0.0897125    0.0698150
c     1.0701310    1.4556629   -0.2174396  0.00    0.0287914    0.0289647    0.0034526
n     0.3555643   -0.6854875   -0.1779771  0.00    0.0627874    0.0478033   -0.0008524
c     2.1936991    0.6372399   -0.2214717  0.00    0.0702972   -0.0404216   -0.0091027
c     1.7580353   -0.6508638   -0.2037834  0.00   -0.0447857   -0.0407760    0.0015623
h    -0.2484781   -1.5201797   -0.1554105  0.00    0.0170353    0.0204519   -0.0005917
c     3.6380201    1.0655696   -0.3390511  0.00    0.0019263   -0.0014571    0.0395144
c     4.0562130    2.2634840    0.5179737  0.00    0.0173441   -0.0438715   -0.0505589
h     3.8273672    1.3110799   -1.4004923  0.00    0.0004399   -0.0024819    0.0044330
h     4.2875936    0.2038863   -0.0900428  0.00   -0.0060177    0.0055008    0.0047350
c     4.2245953    1.8535372    1.9767174  0.00    0.0193985    0.1138848    0.1376149
n     3.0627328    3.3689160    0.4076882  0.00  -20.1793407    2.0970208   -9.1085665
h     5.0490619    2.6246557    0.1835545  0.00   -0.0110953    0.0063593    0.0017993
h     2.6437756    3.5064238    1.3516793  0.00   -0.0919145   -0.0239871   -0.2047586
h     3.6008208    4.2488055    0.2595906  0.00   -0.0332242   -0.0259752   -0.0018387
h    -2.4523919    2.9715317   -0.1336050  0.00   -0.0009068   -0.0003917    0.0002724
h    -2.1711089    0.5141961   -0.1412534  0.00   -0.0015066    0.0008600    0.0001054
h    -0.4851287    4.4446849   -0.1621725  0.00   -0.0001079   -0.0000803    0.0002859
h     1.8041105    3.5038388   -0.1650637  0.00   20.0702294   -2.1031548    9.2701347
h     2.3591138   -1.5539790   -0.2233111  0.00   -0.0157277   -0.0069253    0.0003313
o     4.5948936    2.7223053    2.8931314  0.00   -0.0324516   -0.0737426   -0.0986212
o     3.8639453    0.5606858    2.3023903  0.00    0.0379207   -0.0110821   -0.0747671
h     3.0864620    0.6604058    2.9777957  0.00   -0.0402458    0.0158806    0.0128729
    27
 Energy =       2.4610912311
c    -1.4735315    2.5247278   -0.1921238  0.00   -0.0171450    0.0139480    0.0011393
c    -1.3190689    1.1585403   -0.1744557  0.00   -0.0316580   -0.0127920    0.0007268
c    -0.0488887    0.6537149   -0.1843875  0.00   -0.0326559   -0.0704595   -0.0013102
c    -0.3757631    3.3545889   -0.2161901  0.00   -0.0079994    0.0251838    0.0013056
c     0.8978249    2.8296113   -0.2313394  0.00    0.2014197    0.0758202    0.0592090
c     1.0498068    1.4537551   -0.2110204  0.00    0.0242716    0.0243053    0.0028573
n     0.3436447   -0.6936763   -0.1434703  0.00    0.0529194    0.0397763   -0.0006637
c     2.1735905    0.6452949   -0.2003974  0.00    0.0590498   -0.0340237   -0.0075221
c     1.7497974   -0.6437185   -0.1675473  0.00   -0.0375073   -0.0342949    0.0012042
h    -0.2564575   -1.5340005   -0.1101145  0.00    0.0144726    0.0169105   -0.0005350
c     3.6167764    1.0722587   -0.3425627  0.00    0.0015226   -0.0010710    0.0333557
c     4.0516074    2.2684202    0.5081210  0.00    0.0143593   -0.0364981   -0.0427482
h     3.7861636    1.3210325   -1.4076252  0.00    0.0005017   -0.0019973    0.0036041
h     4.2731480    0.2104805   -0.1078730  0.00   -0.0048650    0.0046570    0.0040807
c     4.2596778    1.8691116    1.9645848  0.00    0.0166765    0.0972478    0.1143083
n     3.0566063    3.3690014    0.4049352  0.00  -17.2033913    1.7863442   -7.7654421
h     5.0390902    2.6255565    0.1488747  0.00   -0.0090881    0.0056032    0.0014677
h     2.6452745    3.5135215    1.3524810  0.00   -0.0785189   -0.0201404   -0.1743203
h     3.5946655    4.2500551    0.2474303  0.00   -0.0281157   -0.0217352   -0.0016154
h    -2.4740649    2.9509851   -0.1766976  0.00   -0.0009308   -0.0004964    0.0001129
h    -2.1789834    0.4971363   -0.1462758  0.00   -0.0011883    0.0004629   -0.0000218
h    -0.5151424    4.4329305   -0.2073845  0.00   -0.0002851   -0.0000703    0.0001731
h     1.7825669    3.5062208   -0.1749945  0.00   17.1108568   -1.7919298    7.9030078
h     2.3661803   -1.5371244   -0.1820661  0.00   -0.0129000   -0.0058847    0.0003219
o     4.6460418    2.7629958    2.8680635  0.00   -0.0269230   -0.0612577   -0.0823652
o     3.9557088    0.5679330    2.3204426  0.00    0.0370935   -0.0110957   -0.0668552
h     3.2452151    0.6469094    3.0687241  0.00   -0.0399716    0.0134871    0.0165250
    27
 Energy =       2.2004609958
c    -1.4837621    2.5421273   -0.2243319  0.00   -0.0149897    0.0121389    0.0009136
c    -1.3378684    1.1769381   -0.1911753  0.00   -0.0276218   -0.0111941    0.0005293
c    -0.0732109    0.6645347   -0.1790590  0.00   -0.0281621   -0.0613281   -0.0012547
c    -0.3811102    3.3636365   -0.2429868  0.00   -0.0071170    0.0219364    0.0011142
c     0.8872130    2.8298226   -0.2377877  0.00    0.1762643    0.0663803    0.0518263
c     1.0283331    1.4556194   -0.2009722  0.00    0.0212132    0.0210640    0.0024556
n     0.3057196   -0.6882072   -0.1268202  0.00    0.0459618    0.0344565   -0.0007388
c     2.1447955    0.6435938   -0.1736678  0.00    0.0513420   -0.0297506   -0.0063814
c     1.7153769   -0.6420522   -0.1351419  0.00   -0.0323610   -0.0299084    0.0010443
h    -0.3022975   -1.5250258   -0.0945834  0.00    0.0125772    0.0146117   -0.0006568
c     3.5924289    1.0533031   -0.3310760  0.00    0.0011754   -0.0010810    0.0288414
c     4.0543268    2.2535647    0.5019833  0.00    0.0122434   -0.0313827   -0.0374846
h     3.7537862    1.2899529   -1.4007718  0.00    0.0005641   -0.0017651    0.0031160
h     4.2423869    0.1855471   -0.0972405  0.00   -0.0041871    0.0039647    0.0035436
c     4.3029871    1.8733196    1.9580451  0.00    0.0148061    0.0857322    0.0983976
n     3.0661107    3.3584866    0.4052709  0.00  -15.0985994    1.5673846   -6.8154332
h     5.0364837    2.5976683    0.1127221  0.00   -0.0074539    0.0050520    0.0011348
h     2.6598581    3.5057747    1.3557943  0.00   -0.0689528   -0.0175358   -0.1527553
h     3.6089302    4.2375059    0.2455727  0.00   -0.0246202   -0.0189092   -0.0013873
h    -2.4817092    2.9749284   -0.2277624  0.00   -0.0010099   -0.0004061   -0.0000463
h    -2.2020074    0.5207634   -0.1702231  0.00   -0.0010684    0.0003209   -0.0002018
h    -0.5129702    4.4430394   -0.2482328  0.00   -0.0003476    0.0000231    0.0001122
h     1.7792855    3.4973108   -0.1805510  0.00   15.0176489   -1.5725953    6.9361367
h     2.3325287   -1.5354145   -0.1466099  0.00   -0.0111520   -0.0051160    0.0002913
o     4.7005458    2.7945479    2.8419945  0.00   -0.0230694   -0.0524874   -0.0710436
o     4.0513571    0.5686211    2.3453926  0.00    0.0355720   -0.0111562   -0.0608903
h     3.4039682    0.6363558    3.1493497  0.00   -0.0386560    0.0115507    0.0188172
    27
 Energy =       1.9822667654
c    -1.4944917    2.5548738   -0.2561406  0.00   -0.0132184    0.0107367    0.0007213
c    -1.3563005    1.1908627   -0.2026301  0.00   -0.0242876   -0.0099238    0.0003562
c    -0.0966621    0.6720281   -0.1689383  0.00   -0.0245279   -0.0538076   -0.0012491
c    -0.3876604    3.3689830   -0.2740052  0.00   -0.0064069    0.0192970    0.0009595
c     0.8758572    2.8277137   -0.2486141  0.00    0.1553335    0.0585527    0.0456988
c     1.0076219    1.4551431   -0.1910664  0.00    0.0186712    0.0183811    0.0021356
n     0.2702557   -0.6847268   -0.0972043  0.00    0.0403858    0.0299930   -0.0007409
c     2.1176733    0.6397367   -0.1456311  0.00    0.0450032   -0.0262642   -0.0054540
c     1.6825830   -0.6425658   -0.0951748  0.00   -0.0282388   -0.0263880    0.0008796
h    -0.3446264   -1.5180840   -0.0594741  0.00    0.0110210    0.0127033   -0.0007342
c     3.5696486    1.0319959   -0.3178718  0.00    0.0008417   -0.0011682    0.0251385
c     4.0567631    2.2409968    0.4908515  0.00    0.0103970   -0.0270841   -0.0332643
h     3.7245965    1.2500584   -1.3930749  0.00    0.0006390   -0.0015497    0.0026230
h     4.2128751    0.1600267   -0.0782888  0.00   -0.0036459    0.0033609    0.0030866
c     4.3478574    1.8863349    1.9468206  0.00    0.0132085    0.0761309    0.0853516
n     3.0730915    3.3481222    0.3980787  0.00  -13.3467040    1.3851723   -6.0247589
h     5.0312580    2.5727963    0.0696847  0.00   -0.0060462    0.0046520    0.0008092
h     2.6707961    3.4969508    1.3513384  0.00   -0.0609905   -0.0153712   -0.1347871
h     3.6191324    4.2260751    0.2375284  0.00   -0.0217345   -0.0165836   -0.0011865
h    -2.4898831    2.9932111   -0.2778872  0.00   -0.0010619   -0.0003134   -0.0001823
h    -2.2240384    0.5393990   -0.1839197  0.00   -0.0009393    0.0002058   -0.0003508
h    -0.5127820    4.4490948   -0.2965505  0.00   -0.0004068    0.0001545    0.0000601
h     1.7740620    3.4885615   -0.1933490  0.00   13.2754027   -1.3899487    6.1313889
h     2.2996606   -1.5364490   -0.0997671  0.00   -0.0097058   -0.0045034    0.0002580
o     4.7543595    2.8372280    2.8062530  0.00   -0.0198378   -0.0450784   -0.0616087
o     4.1471176    0.5820612    2.3678946  0.00    0.0337583   -0.0112220   -0.0557049
h     3.5627214    0.6458341    3.2182694  0.00   -0.0369097    0.0098659    0.0205547
    27
 Energy =       1.6332301809
c    -1.5015514    2.5791805   -0.3113402  0.00   -0.0104988    0.0081041    0.0004043
c    -1.3713463    1.2172206   -0.2438932  0.00   -0.0189262   -0.0076587    0.0001765
c    -0.1183272    0.6931226   -0.1779545  0.00   -0.0184084   -0.0414817   -0.0009884
c    -0.3909260    3.3859803   -0.3066280  0.00   -0.0052236    0.0148386    0.0005771
c     0.8663981    2.8377604   -0.2482765  0.00    0.1224821    0.0457241    0.0355620
c     0.9865893    1.4685301   -0.1857025  0.00    0.0145977    0.0140537    0.0015663
n     0.2359775   -0.6692983   -0.0975254  0.00    0.0307881    0.0228628   -0.0006923
c     2.0892038    0.6544551   -0.1265378  0.00    0.0344321   -0.0202352   -0.0040749
c     1.6527251   -0.6254269   -0.0747844  0.00   -0.0214331   -0.0203285    0.0008647
h    -0.3852092   -1.5012470   -0.0672924  0.00    0.0083709    0.0096036   -0.0006363
c     3.5428404    1.0378901   -0.3185262  0.00    0.0003273   -0.0010049    0.0194395
c     4.0577652    2.2237863    0.5093083  0.00    0.0083816   -0.0207263   -0.0254836
h     3.6793430    1.2784114   -1.3922834  0.00    0.0005624   -0.0015353    0.0018005
h     4.1843203    0.1547807   -0.1104878  0.00   -0.0024970    0.0020712    0.0028782
c     4.3708824    1.8398264    1.9541456  0.00    0.0089268    0.0586392    0.0645397
n     3.0905872    3.3456276    0.4387661  0.00  -10.5896632    1.0989973   -4.7819040
h     5.0328114    2.5441760    0.0782763  0.00   -0.0045608    0.0035559    0.0004824
h     2.6920077    3.4786231    1.3984163  0.00   -0.0484597   -0.0122624   -0.1059984
h     3.6457562    4.2213953    0.2919531  0.00   -0.0172405   -0.0127155   -0.0010714
h    -2.4939647    3.0224968   -0.3616017  0.00   -0.0012842   -0.0002266   -0.0004593
h    -2.2423767    0.5696492   -0.2429064  0.00   -0.0009390   -0.0000063   -0.0004889
h    -0.5090332    4.4666434   -0.3369572  0.00   -0.0004530    0.0000714   -0.0001956
h     1.7681026    3.4888105   -0.1628319  0.00   10.5335911   -1.1026960    4.8655061
h     2.2750800   -1.5161603   -0.0766904  0.00   -0.0074557   -0.0035245    0.0004298
o     4.8214481    2.7755602    2.8260611  0.00   -0.0141476   -0.0335970   -0.0462291
o     4.1909084    0.5282308    2.3649585  0.00    0.0340346   -0.0096537   -0.0548091
h     3.7214745    0.5762374    3.2874661  0.00   -0.0353039    0.0091309    0.0288042
    27
 Energy =       1.2824655081
c    -1.5124768    2.5960246   -0.3693904  0.00   -0.0077813    0.0055387    0.0000469
c    -1.3869831    1.2366893   -0.2848679  0.00   -0.0135940   -0.0053652   -0.0000380
c    -0.1400564    0.7112725   -0.1814281  0.00   -0.0123216   -0.0292907   -0.0007498
c    -0.4011242    3.3988835   -0.3387958  0.00   -0.0040023    0.0104187    0.0001808
c     0.8503277    2.8475537   -0.2427060  0.00    0.0896365    0.0327513    0.0254735
c     0.9629569    1.4822241   -0.1745715  0.00    0.0105851    0.0097560    0.0010051
n     0.2058956   -0.6554459   -0.0892758  0.00    0.0214014    0.0158047   -0.0005550
c     2.0606695    0.6730733   -0.1033620  0.00    0.0238005   -0.0142288   -0.0026612
c     1.6266458   -0.6055958   -0.0491593  0.00   -0.0148459   -0.0142801    0.0008075
h    -0.4184791   -1.4880666   -0.0641841  0.00    0.0058206    0.0065896   -0.0004992
c     3.5136155    1.0520823   -0.3236617  0.00   -0.0001311   -0.0007623    0.0138300
c     4.0601748    2.2115476    0.5236773  0.00    0.0062560   -0.0148304   -0.0180553
h     3.6241913    1.3201870   -1.3949217  0.00    0.0004727   -0.0013986    0.0007955
h     4.1558902    0.1591871   -0.1554967  0.00   -0.0012350    0.0007434    0.0026208
c     4.4090974    1.7917449    1.9519460  0.00    0.0041193    0.0401398    0.0443253
n     3.1064484    3.3453529    0.4905209  0.00   -7.8588571    0.8154061   -3.5520453
h     5.0302381    2.5263998    0.0751384  0.00   -0.0030113    0.0023837    0.0001393
h     2.7089397    3.4431825    1.4583460  0.00   -0.0360612   -0.0093002   -0.0763027
h     3.6682263    4.2232016    0.3757234  0.00   -0.0126088   -0.0082814   -0.0008937
h    -2.5021199    3.0411657   -0.4527067  0.00   -0.0014852   -0.0001242   -0.0007863
h    -2.2589049    0.5904069   -0.3035032  0.00   -0.0009018   -0.0001846   -0.0006505
h    -0.5149857    4.4796530   -0.3785182  0.00   -0.0004853   -0.0000168   -0.0004606
h     1.7530026    3.4922701   -0.1242084  0.00    7.8178368   -0.8179015    3.6118213
h     2.2568768   -1.4913054   -0.0514417  0.00   -0.0052102   -0.0025516    0.0005857
o     4.9281309    2.7047276    2.8288886  0.00   -0.0078033   -0.0213408   -0.0301546
o     4.2250612    0.4772147    2.3541864  0.00    0.0307478   -0.0079506   -0.0514596
h     3.8802276    0.5126315    3.3309036  0.00   -0.0303414    0.0082758    0.0336803
    27
 Energy =       1.0157425147
c    -1.5294181    2.5949473   -0.4075288  0.00   -0.0057287    0.0037021   -0.0002717
c    -1.4009708    1.2381409   -0.3110335  0.00   -0.0097158   -0.0037528   -0.0002433
c    -0.1567282    0.7183730   -0.1772198  0.00   -0.0081898   -0.0206036   -0.0005742
c    -0.4225005    3.4008963   -0.3536935  0.00   -0.0029310    0.0072638   -0.0001242
c     0.8262925    2.8537827   -0.2277324  0.00    0.0650819    0.0232211    0.0180991
c     0.9407177    1.4918662   -0.1583727  0.00    0.0076128    0.0067483    0.0006338
n     0.1906542   -0.6496064   -0.0789317  0.00    0.0147983    0.0108848   -0.0004042
c     2.0395138    0.6921129   -0.0834127  0.00    0.0161705   -0.0099239   -0.0015850
c     1.6139096   -0.5880428   -0.0294517  0.00   -0.0103223   -0.0099360    0.0007548
h    -0.4311732   -1.4862653   -0.0579515  0.00    0.0040435    0.0044691   -0.0003738
c     3.4881076    1.0756463   -0.3357339  0.00   -0.0002848   -0.0004844    0.0099341
c     4.0630091    2.2130359    0.5246937  0.00    0.0043570   -0.0119004   -0.0134659
h     3.5688418    1.3696599   -1.4037194  0.00    0.0004272   -0.0011849    0.0000140
h     4.1348637    0.1780409   -0.2077154  0.00   -0.0003090   -0.0001488    0.0023745
c     4.4659490    1.7584553    1.9299265  0.00   -0.0001112    0.0258622    0.0297647
n     3.1109949    3.3477970    0.5461534  0.00   -5.8168084    0.6029512   -2.6336700
h     5.0181677    2.5366777    0.0486450  0.00   -0.0015685    0.0014698   -0.0003313
h     2.7096107    3.3869199    1.5206473  0.00   -0.0272720   -0.0071419   -0.0523418
h     3.6717081    4.2337120    0.4841705  0.00   -0.0086060   -0.0036871   -0.0006537
h    -2.5182172    3.0361394   -0.5176859  0.00   -0.0014212   -0.0001149   -0.0010550
h    -2.2696169    0.5881524   -0.3472356  0.00   -0.0008109   -0.0002985   -0.0007898
h    -0.5385031    4.4811711   -0.3991831  0.00   -0.0004422   -0.0000951   -0.0006592
h     1.7253663    3.4986838   -0.0816866  0.00    5.7862342   -0.6048041    2.6739330
h     2.2543282   -1.4668056   -0.0386636  0.00   -0.0035881   -0.0019036    0.0006868
o     5.0868840    2.6393216    2.7904473  0.00   -0.0013224   -0.0099816   -0.0165565
o     4.2394710    0.4503901    2.3354739  0.00    0.0252572   -0.0084687   -0.0474017
h     4.0102245    0.4830599    3.3439254  0.00   -0.0245503    0.0078576    0.0343064
    27
 Energy =       0.9204716002
c    -1.5422058    2.6171229   -0.2954860  0.00   -0.0055209    0.0033494   -0.0002841
c    -1.4127226    1.2589075   -0.2186748  0.00   -0.0091959   -0.0029814   -0.0002764
c    -0.1651973    0.7361710   -0.1325040  0.00   -0.0072806   -0.0178958   -0.0004526
c    -0.4321653    3.4205699   -0.2688940  0.00   -0.0031110    0.0067306   -0.0001792
c     0.8186903    2.8688261   -0.1915295  0.00    0.0575437    0.0200276    0.0158767
c     0.9314730    1.5083235   -0.1435276  0.00    0.0065534    0.0060294    0.0006302
n     0.1865937   -0.6336928   -0.0627971  0.00    0.0116755    0.0095007   -0.0002269
c     2.0325774    0.7124534   -0.1213801  0.00    0.0144903   -0.0090864   -0.0007154
c     1.6133107   -0.5692595   -0.0690074  0.00   -0.0076094   -0.0086375    0.0006969
h    -0.4336726   -1.4717279   -0.0283307  0.00    0.0033658    0.0037911   -0.0002698
c     3.4678895    1.1137193   -0.4212292  0.00   -0.0007555   -0.0004584    0.0091657
c     4.0708082    2.2082911    0.4775496  0.00    0.0043520   -0.0114106   -0.0125257
h     3.5014060    1.4649743   -1.4770103  0.00    0.0003167   -0.0003921   -0.0026307
h     4.1238973    0.2125832   -0.3664686  0.00    0.0014158   -0.0021841    0.0020199
c     4.4966972    1.6838825    1.8528484  0.00   -0.0008235    0.0217037    0.0253395
n     3.1283889    3.3508461    0.5678227  0.00   -5.1102810    0.5306835   -2.3157984
h     5.0187471    2.5448040   -0.0042664  0.00   -0.0011686    0.0011399   -0.0005815
h     2.7260863    3.3313482    1.5443076  0.00   -0.0247882   -0.0064265   -0.0430755
h     3.6941844    4.2366900    0.5589425  0.00   -0.0068874   -0.0009794   -0.0004481
h    -2.5337421    3.0614954   -0.3664959  0.00   -0.0019758    0.0002162   -0.0009747
h    -2.2833869    0.6105594   -0.2323507  0.00   -0.0010369   -0.0002676   -0.0006838
h    -0.5469499    4.5017148   -0.2965094  0.00   -0.0005336    0.0000844   -0.0006171
h     1.7287410    3.5024347   -0.0662222  0.00    5.0825600   -0.5314640    2.3481856
h     2.2572743   -1.4450567   -0.1144220  0.00   -0.0025659   -0.0021132    0.0005883
o     5.1780339    2.5071912    2.7308077  0.00    0.0013363   -0.0061648   -0.0114329
o     4.2268749    0.3703590    2.2182724  0.00    0.0218681   -0.0102850   -0.0432809
h     4.0398544    0.3727316    3.2336862  0.00   -0.0219430    0.0074902    0.0319507
    27
 Energy =       0.8271010905
c    -1.5724815    2.5986577   -0.1979463  0.00   -0.0050583    0.0033474   -0.0002851
c    -1.4249152    1.2405352   -0.1512967  0.00   -0.0083233   -0.0025770   -0.0002545
c    -0.1696043    0.7314461   -0.1051773  0.00   -0.0063788   -0.0150611   -0.0003201
c    -0.4716510    3.4147011   -0.1807108  0.00   -0.0031780    0.0062068   -0.0002092
c     0.7863123    2.8755770   -0.1444622  0.00    0.0498819    0.0172477    0.0136006
c     0.9154209    1.5173130   -0.1283060  0.00    0.0053670    0.0051852    0.0006144
n     0.2025180   -0.6359763   -0.0733422  0.00    0.0095987    0.0076078   -0.0001120
c     2.0272333    0.7393049   -0.1531608  0.00    0.0123937   -0.0080772   -0.0000160
c     1.6292944   -0.5494762   -0.1172485  0.00   -0.0058636   -0.0076103    0.0006444
h    -0.4050142   -1.4840372   -0.0399097  0.00    0.0027587    0.0030357   -0.0002066
c     3.4457295    1.1744122   -0.4892561  0.00   -0.0008033   -0.0000775    0.0082735
c     4.0665890    2.2358645    0.4390744  0.00    0.0046112   -0.0115109   -0.0123637
h     3.4349893    1.5757290   -1.5294359  0.00    0.0003125    0.0003815   -0.0043864
h     4.1160927    0.2802065   -0.5024839  0.00    0.0026488   -0.0036987    0.0014941
c     4.5534747    1.6523559    1.7723242  0.00    0.0004964    0.0190465    0.0225805
n     3.1106118    3.3597982    0.6194943  0.00   -4.4177159    0.4593139   -2.0072203
h     4.9903200    2.6106668   -0.0635718  0.00    0.0000965    0.0008596   -0.0016196
h     2.7032193    3.2474090    1.5925371  0.00   -0.0239244   -0.0063583   -0.0301855
h     3.6655815    4.2529632    0.6913431  0.00   -0.0040405    0.0043516    0.0002938
h    -2.5707054    3.0328262   -0.2354200  0.00   -0.0022601    0.0005348   -0.0008613
h    -2.2878685    0.5818808   -0.1567592  0.00   -0.0010296   -0.0002550   -0.0005796
h    -0.5992856    4.4951622   -0.1810207  0.00   -0.0006616    0.0005330   -0.0005488
h     1.6948013    3.5123520   -0.0211888  0.00    4.3912411   -0.4592906    2.0282558
h     2.2865527   -1.4133749   -0.2021588  0.00   -0.0015238   -0.0025213    0.0004435
o     5.2356865    2.4523548    2.6729833  0.00    0.0015568   -0.0048402   -0.0093185
o     4.3299772    0.3141681    2.0851075  0.00    0.0194698   -0.0117801   -0.0396466
h     4.1986075    0.2634426    3.1071231  0.00   -0.0196719    0.0060067    0.0319332
    27
 Energy =       0.7064713203
c    -1.5784556    2.6039247   -0.1002459  0.00   -0.0046005    0.0026939   -0.0002036
c    -1.4240653    1.2463038   -0.0768997  0.00   -0.0072114   -0.0018738   -0.0002205
c    -0.1664176    0.7422425   -0.0796689  0.00   -0.0048342   -0.0118427   -0.0001940
c    -0.4805404    3.4240495   -0.1107181  0.00   -0.0031857    0.0051586   -0.0001164
c     0.7798177    2.8895040   -0.1244741  0.00    0.0398960    0.0132057    0.0109370
c     0.9127366    1.5329273   -0.1278459  0.00    0.0044355    0.0041246    0.0005995
n     0.2124397   -0.6249557   -0.0778180  0.00    0.0069498    0.0056941   -0.0000142
c     2.0254654    0.7631888   -0.1965475  0.00    0.0104486   -0.0067374    0.0004186
c     1.6382306   -0.5279781   -0.1650702  0.00   -0.0035443   -0.0060446    0.0004196
h    -0.3894457   -1.4774032   -0.0369376  0.00    0.0021653    0.0022236   -0.0001983
c     3.4329583    1.2171593   -0.5491565  0.00   -0.0017203   -0.0002920    0.0066802
c     4.0661984    2.2301439    0.4236748  0.00    0.0034557   -0.0082016   -0.0096110
h     3.3976311    1.6730508   -1.5670804  0.00    0.0000673    0.0010886   -0.0052507
h     4.1054525    0.3269083   -0.6219277  0.00    0.0030093   -0.0041952    0.0008311
c     4.5199936    1.5909434    1.7430711  0.00    0.0000555    0.0152284    0.0143941