    13
 Energy =      16.5577521115
c    -3.7133889    1.6950595    0.3173519  0.00    0.0074363   -0.0333367   -0.0209769
c    -2.4962693    2.6345192    0.2419999  0.00    0.0685913    0.3384477    0.0940655
c    -4.9565486    2.3924193   -0.2155699  0.00    0.0050653    0.0127334    0.0154685
h    -4.7854386    2.7464192   -1.2386596  0.00   -0.0044159   -0.0020488    0.0168766
h    -5.2149185    3.2645991    0.3947669  0.00    0.0020569   -0.0124633   -0.0125890
h    -5.8205083    1.7195795   -0.2420919  0.00    0.0080163    0.0155812   -0.0031694
n    -3.4097890    0.4519539   -0.4549189  0.00    0.8363596    0.2798676   -0.1065106
h    -3.8575589    1.4177196    1.3669296  0.00    0.0077310   -0.0098409   -0.0247943
h    -2.5963493    0.6418898   -1.0496997  0.00  151.0978703   94.7034185   71.4579160
h    -3.0749291   -0.2623099    0.1989099  0.00    0.0104608    0.0531125   -0.0386270
o    -2.4571893    3.7760389    0.6681628  0.00   -0.0123132   -0.2669149   -0.1029041
o    -1.4389296    2.0221094   -0.3549299  0.00   -0.2288687   -0.2431378   -0.0854893
h    -1.7862895    1.1491097   -0.6669268  0.00 -151.7979901  -94.8354185  -71.1892660
    13
 Energy =       1.5953101642
c    -3.7133933    1.6950790    0.3173642  0.00   -0.0142667   -0.0320326   -0.0066385
c    -2.4963093    2.6343217    0.2419450  0.00    0.0744223    0.3546766    0.1017046
c    -4.9565515    2.3924119   -0.2155790  0.00    0.0052989    0.0120282    0.0150982
h    -4.7854361    2.7464204   -1.2386695  0.00   -0.0045315   -0.0016864    0.0169225
h    -5.2149197    3.2646063    0.3947742  0.00    0.0020738   -0.0123248   -0.0124956
h    -5.8205130    1.7195704   -0.2420901  0.00    0.0078492    0.0157104   -0.0030706
n    -3.4102771    0.4517906   -0.4548567  0.00    0.5180586    0.1413236   -0.1035082
h    -3.8575634    1.4177253    1.3669441  0.00    0.0078931   -0.0096703   -0.0244778
h    -2.6845216    0.5866261   -1.0913986  0.00   11.5190463    7.2763987    5.5682811
h    -3.0749352   -0.2623409    0.1989325  0.00    0.0018188    0.0473778   -0.0321394
o    -2.4571821    3.7761947    0.6682229  0.00   -0.0128274   -0.2660943   -0.1019964
o    -1.4387960    2.0222513   -0.3548800  0.00   -0.2262312   -0.3081410   -0.0903994
h    -1.6977086    1.2044504   -0.6253847  0.00  -11.8786044   -7.2175659   -5.3272806
    13
 Energy =       1.3156154322
c    -3.7093548    1.7051344    0.3490823  0.00   -0.0151568   -0.0221959   -0.0018565
c    -2.4418189    2.5849157    0.1977353  0.00    0.0554679    0.2803537    0.0835165
c    -4.9408566    2.4408221   -0.1647812  0.00    0.0049180    0.0081692    0.0131588
h    -4.7494941    2.8728109   -1.1614976  0.00   -0.0029785    0.0001762    0.0103160
h    -5.2116933    3.2662967    0.5119316  0.00    0.0015721   -0.0076326   -0.0077694
h    -5.8024972    1.7619391   -0.2604670  0.00    0.0049306    0.0106838   -0.0031049
n    -3.4993218    0.4130908   -0.3972810  0.00    0.3921489    0.1038326   -0.0613065
h    -3.8295756    1.4751381    1.4180093  0.00    0.0056640   -0.0074707   -0.0182196
h    -2.8042290    0.5291076   -1.1999790  0.00    9.4576898    5.9656656    4.5207775
h    -3.0799436   -0.2682549    0.2619604  0.00    0.0053223    0.0350646   -0.0197061
o    -2.2984290    3.7676790    0.5963558  0.00   -0.0063171   -0.2054351   -0.0816743
o    -1.4340327    1.9420123   -0.4666622  0.00   -0.1731280   -0.2436558   -0.0764181
h    -1.8068603    1.1584154   -0.7190822  0.00   -9.7301330   -5.9175556   -4.3577134
    13
 Energy =       0.9888788896
c    -3.6935791    1.7003032    0.2945980  0.00   -0.0084864   -0.0160967   -0.0051145
c    -2.4758645    2.6119285    0.2114347  0.00    0.0340550    0.1979332    0.0604498
c    -4.9611376    2.4159554   -0.1662523  0.00    0.0044641    0.0047467    0.0102549
h    -4.7967101    2.9261478   -1.1364371  0.00   -0.0019315    0.0022055    0.0052942
h    -5.2649399    3.1803210    0.5772750  0.00   -0.0000534   -0.0026933   -0.0017091
h    -5.7912464    1.6975655   -0.2929827  0.00    0.0024914    0.0063653   -0.0008450
n    -3.4569965    0.4684681   -0.5073612  0.00    0.2820843    0.1008069   -0.0623656
h    -3.8050776    1.4167861    1.3582968  0.00    0.0041120   -0.0062025   -0.0117603
h    -2.6691898    0.5261113   -1.1680069  0.00    7.2162834    4.5568084    3.4423380
h    -3.2173955   -0.3153322    0.1587428  0.00    0.0135309    0.0047140    0.0065455
o    -2.4556020    3.8215361    0.6827009  0.00   -0.0077891   -0.1389967   -0.0550375
o    -1.3722608    2.0299424   -0.3616827  0.00   -0.1173946   -0.1639025   -0.0535715
h    -1.6481072    1.1693739   -0.6850009  0.00   -7.4213661   -4.5456883   -3.3344790
    13
 Energy =       0.6587161236
c    -3.6794757    1.6876827    0.2766349  0.00   -0.0042878   -0.0086979   -0.0027619
c    -2.4974918    2.6379196    0.2217597  0.00    0.0188358    0.1156192    0.0354574
c    -4.9740877    2.3721054   -0.1579579  0.00    0.0086173    0.0017060    0.0100677
h    -4.8728000    2.7673947   -1.1999260  0.00    0.0001446    0.0043955   -0.0063238
h    -5.2090800    3.2217990    0.5282989  0.00    0.0004101    0.0035712    0.0046544
h    -5.8221271    1.6456130   -0.1369410  0.00   -0.0062214   -0.0033025    0.0002183
n    -3.4324264    0.5030286   -0.5753504  0.00    0.1879562    0.0801020   -0.0521108
h    -3.7770823    1.3712095    1.3370715  0.00    0.0021898   -0.0039387   -0.0062547
h    -2.5881133    0.5582676   -1.1415795  0.00    4.8523307    3.0689290    2.3143027
h    -3.3214372   -0.3486089    0.0507223  0.00    0.0104979   -0.0095214    0.0145320
o    -2.5700542    3.8727869    0.7302776  0.00   -0.0083310   -0.0781653   -0.0301653
o    -1.3308210    2.1399098   -0.3196884  0.00   -0.0685286   -0.0922150   -0.0329892
h    -1.5331102    1.2199993   -0.6479975  0.00   -4.9936137   -3.0784821   -2.2486270
    13
 Energy =       0.5993825415
c    -3.6581772    1.6888357    0.2757842  0.00   -0.0046032   -0.0076342   -0.0016638
c    -2.4979057    2.6651908    0.1573073  0.00    0.0151791    0.1014439    0.0315514
c    -4.9882431    2.3478019   -0.0935031  0.00    0.0064082    0.0020222    0.0095684
h    -4.9427697    2.7465435   -1.1391042  0.00    0.0001755    0.0045058   -0.0071628
h    -5.2081168    3.1912185    0.6049053  0.00    0.0001847    0.0033309    0.0044156
h    -5.8201235    1.6045299   -0.0360606  0.00   -0.0064630   -0.0034157    0.0002872
n    -3.4353568    0.5092066   -0.5909661  0.00    0.1699919    0.0724238   -0.0477168
h    -3.6930606    1.3717046    1.3423513  0.00    0.0019475   -0.0039388   -0.0037552
h    -2.5899725    0.5626416   -1.1673318  0.00    4.4109588    2.7895424    2.1023105
h    -3.3405441   -0.3536618    0.0203375  0.00    0.0096438   -0.0090652    0.0132581
o    -2.5510768    3.8761258    0.7383238  0.00   -0.0094258   -0.0677427   -0.0247282
o    -1.3553754    2.2106607   -0.4784415  0.00   -0.0486347   -0.0636662   -0.0320338
h    -1.5273850    1.2283095   -0.6682780  0.00   -4.5453629   -2.8178064   -2.0443305
    13
 Energy =       0.4626928071
c    -3.6737133    1.6789062    0.2753180  0.00   -0.0040479   -0.0057225   -0.0012358
c    -2.5009886    2.6501285    0.2271556  0.00    0.0108147    0.0724956    0.0241519
c    -4.9812885    2.3475412   -0.1584495  0.00    0.0036973    0.0013725    0.0072026
h    -4.8885875    2.7323031   -1.2050756  0.00    0.0001250    0.0037408   -0.0065203
h    -5.2250496    3.1999140    0.5196258  0.00   -0.0000847    0.0028298    0.0037183
h    -5.8201080    1.6124188   -0.1272450  0.00   -0.0052786   -0.0027026    0.0003092
n    -3.4281605    0.5061037   -0.5894702  0.00    0.1318207    0.0562508   -0.0373971
h    -3.7681324    1.3556019    1.3384906  0.00    0.0013100   -0.0033397   -0.0011819
h    -2.5652399    0.5734464   -1.1356993  0.00    3.4501730    2.1822361    1.6445910
h    -3.3533961   -0.3613788    0.0136990  0.00    0.0073931   -0.0070161    0.0102180
o    -2.6178216    3.8949251    0.7563175  0.00   -0.0099334   -0.0465642   -0.0170618
o    -1.3041356    2.2078104   -0.3196884  0.00   -0.0269230   -0.0387872   -0.0234743
h    -1.4814853    1.2513868   -0.6296543  0.00   -3.5590662   -2.2147934   -1.6033198
    13
 Energy =       0.2741776369
c    -3.6867969    1.6837332    0.2884933  0.00   -0.0005973   -0.0007043   -0.0001812
c    -2.5161943    2.6629001    0.2401090  0.00    0.0058345    0.0171988    0.0119611
c    -4.9815777    2.3182547   -0.2341070  0.00    0.0000145   -0.0003375    0.0032333
h    -4.8498065    2.6454067   -1.2946135  0.00   -0.0000720    0.0026972   -0.0055788
h    -5.2624192    3.2036410    0.3854367  0.00   -0.0008403    0.0035496    0.0034900
h    -5.8116887    1.5773508   -0.1983314  0.00   -0.0027236   -0.0014297    0.0001007
n    -3.4147431    0.4707088   -0.5100000  0.00    0.0743881    0.0283744   -0.0214497
h    -3.8256572    1.4150900    1.3638431  0.00    0.0005987   -0.0019849    0.0017928
h    -2.5482954    0.5669442   -1.0692210  0.00    2.1247132    1.3451456    1.0084875
h    -3.3171013   -0.3676057    0.1257129  0.00    0.0040641   -0.0055747    0.0059738
o    -2.7042208    3.9895976    0.5975644  0.00   -0.0130047    0.0008830   -0.0040460
o    -1.2668917    2.2140149   -0.1857221  0.00   -0.0052526   -0.0242282   -0.0158522
h    -1.4227143    1.2690708   -0.5438399  0.00   -2.1871225   -1.3635891   -0.9879312
    13
 Energy =       0.2177530216
c    -3.7078978    1.6771076    0.2838039  0.00    0.0001653   -0.0026492   -0.0007509
c    -2.5136548    2.6327010    0.3078517  0.00    0.0059589    0.0097792    0.0075399
c    -4.9604569    2.3474045   -0.2974594  0.00   -0.0014271    0.0003255    0.0026112
h    -4.7740985    2.6659462   -1.3524529  0.00    0.0000979    0.0026688   -0.0058479
h    -5.2442406    3.2416135    0.3065309  0.00   -0.0010035    0.0029387    0.0028455
h    -5.8119648    1.6295707   -0.2952025  0.00   -0.0030782   -0.0016734    0.0002058
n    -3.4317078    0.4634768   -0.5104299  0.00    0.0601598    0.0230561   -0.0174741
h    -3.9093344    1.4030133    1.3493241  0.00    0.0001976   -0.0022118    0.0032489
h    -2.5597275    0.5589430   -1.0631970  0.00    1.7380085    1.0999953    0.8247849
h    -3.3391825   -0.3732378    0.1263672  0.00    0.0032800   -0.0044914    0.0047521
o    -2.6773050    3.9376531    0.7563175  0.00   -0.0097602    0.0063596   -0.0013879
o    -1.2618820    2.1928813   -0.1155206  0.00   -0.0035003   -0.0164355   -0.0112012
h    -1.4166545    1.2720340   -0.5306088  0.00   -1.7890988   -1.1176619   -0.8093264
    13
 Energy =       0.1450903840
c    -3.7330536    1.6735473    0.2781238  0.00    0.0010257   -0.0043750   -0.0012303
c    -2.5124908    2.5949294    0.3800905  0.00    0.0056379    0.0030322    0.0026581
c    -4.9288771    2.3854200   -0.3726256  0.00   -0.0029953    0.0012862    0.0018323
h    -4.6779296    2.6850834   -1.4196101  0.00    0.0004254    0.0025383   -0.0059237
h    -5.2110656    3.2945590    0.2076704  0.00   -0.0012177    0.0022510    0.0019780
h    -5.8053651    1.6986182   -0.4069865  0.00   -0.0033200   -0.0018180    0.0003219
n    -3.4587706    0.4514916   -0.5015283  0.00    0.0415112    0.0160713   -0.0120482
h    -4.0075183    1.4045130    1.3299591  0.00   -0.0004274   -0.0024046    0.0045885
h    -2.5793094    0.5372433   -1.0488688  0.00    1.2440877    0.7866881    0.5896382
h    -3.3774894   -0.3791533    0.1424135  0.00    0.0022467   -0.0031397    0.0032003
o    -2.6521637    3.8713610    0.9150707  0.00   -0.0056269    0.0094776    0.0010909
o    -1.2572633    2.1628051   -0.0352862  0.00   -0.0016827   -0.0083873   -0.0059182
h    -1.4068104    1.2686893   -0.5030982  0.00   -1.2796646   -0.8012200   -0.5801880
    13
 Energy =       0.0723743843
c    -3.7594955    1.6858828    0.2639166  0.00    0.0008978   -0.0041139   -0.0009164
c    -2.4990965    2.5457062    0.4362260  0.00    0.0038138    0.0007420   -0.0001531
c    -4.8752938    2.4553373   -0.4630215  0.00   -0.0041623    0.0031122    0.0012474
h    -4.5504649    2.7196092   -1.4990804  0.00    0.0010417    0.0024841   -0.0059038
h    -5.1367132    3.3899572    0.0846798  0.00   -0.0015955    0.0020795    0.0011130
h    -5.7874587    1.8185545   -0.5339661  0.00   -0.0038748   -0.0021531    0.0004778
n    -3.5195429    0.4361464   -0.4823946  0.00    0.0171842    0.0138637   -0.0080019
h    -4.1126795    1.4478762    1.3006848  0.00   -0.0013670   -0.0027484    0.0053896
h    -2.6014869    0.4452109   -0.9820414  0.00    0.7623765    0.4766780    0.3538624
h    -3.5362425   -0.3911856    0.1753496  0.00    0.0012898   -0.0077672    0.0062410
o    -2.6047683    3.8039466    1.0157117  0.00   -0.0017167    0.0067938    0.0013686
o    -1.2401785    2.0868587    0.0655767  0.00    0.0011707   -0.0039859   -0.0029669
h    -1.3846858    1.2052067   -0.4163169  0.00   -0.7750583   -0.4849848   -0.3517578
    13
 Energy =      -0.0209351530
c    -3.7792254    1.6956639    0.2477487  0.00    0.0003278    0.0041159    0.0005007
c    -2.4999215    2.5080036    0.4855482  0.00   -0.0025351   -0.0007259   -0.0028110
c    -4.8036565    2.5023037   -0.5500635  0.00    0.0003681   -0.0006793    0.0007333
h    -4.4186098    2.6990683   -1.5726133  0.00   -0.0003717    0.0002043    0.0013668
h    -5.0246177    3.4720951   -0.0504716  0.00   -0.0000838    0.0007457    0.0006814
h    -5.7473273    1.9249719   -0.6382298  0.00    0.0008931    0.0004485    0.0010550
n    -3.5972049    0.4029869   -0.4443704  0.00   -0.0084847   -0.0054042    0.0032172
h    -4.2034151    1.5184816    1.2633713  0.00    0.0006782    0.0005073   -0.0002206
h    -2.6880966    0.3259905   -0.9599574  0.00    0.1399144    0.0788523    0.0570302
h    -3.6949956   -0.3979720    0.2263953  0.00   -0.0019156    0.0011645   -0.0024918
o    -2.6068895    3.7476996    1.0882527  0.00    0.0025748   -0.0040191   -0.0027145
o    -1.2246024    2.0573991    0.1829960  0.00    0.0006739    0.0006241    0.0006960
h    -1.3195447    1.1924150   -0.3132818  0.00   -0.1320392   -0.0758340   -0.0570428
    13
 Energy =      -0.0226327404
c    -3.7531893    1.6735106    0.2523491  0.00    0.0016429    0.0037419    0.0011178
c    -2.4937193    2.5307455    0.4465707  0.00   -0.0016752   -0.0004352   -0.0028449
c    -4.8627878    2.4701251   -0.4472046  0.00   -0.0032109    0.0012080    0.0012887
h    -4.5487736    2.7295651   -1.4846451  0.00    0.0009712    0.0014362   -0.0028811
h    -5.0966469    3.4080286    0.1082815  0.00   -0.0013907    0.0024817    0.0012907
h    -5.7862955    1.8548160   -0.5039236  0.00   -0.0006686   -0.0000831    0.0012879
n    -3.5590339    0.4195288   -0.5081718  0.00   -0.0084954   -0.0040880    0.0007515
h    -4.1063835    1.4335268    1.2866788  0.00   -0.0010330   -0.0006341    0.0039417
h    -2.6714375    0.3945833   -1.0676454  0.00    0.1282901    0.0698898    0.0487040
h    -3.6010130   -0.4164426    0.1290437  0.00   -0.0017857   -0.0025845    0.0004140
o    -2.6212007    3.7587137    1.0706378  0.00    0.0019163   -0.0030505   -0.0020246
o    -1.2132554    2.1250403    0.0975629  0.00    0.0029294    0.0001656    0.0001742
h    -1.2943705    1.2673662   -0.4142097  0.00   -0.1174905   -0.0680478   -0.0512199
    13
 Energy =      -0.0246844831
c    -3.7528209    1.6911430    0.2628625  0.00    0.0026105    0.0041445    0.0018814
c    -2.5032452    2.5764953    0.3958396  0.00   -0.0013344   -0.0038289   -0.0040537
c    -4.8764797    2.4280519   -0.4811675  0.00   -0.0034275    0.0010326    0.0002214
h    -4.5660522    2.6376089   -1.5317744  0.00    0.0008533    0.0016590   -0.0038692
h    -5.1283020    3.3910737    0.0236341  0.00   -0.0014656    0.0037211    0.0018712
h    -5.7879656    1.7918148   -0.5064417  0.00   -0.0011101   -0.0006903    0.0009844
n    -3.5430393    0.3945416   -0.4214800  0.00   -0.0088541   -0.0035434   -0.0050528
h    -4.0982160    1.5087862    1.3126779  0.00   -0.0010726   -0.0008821    0.0053497
h    -2.6761255    0.3714065   -1.0127848  0.00    0.1154391    0.0630072    0.0428316
h    -3.5256637   -0.4004411    0.2729658  0.00   -0.0015627   -0.0075555    0.0047432
o    -2.6458045    3.8581273    0.9118847  0.00    0.0007970    0.0058379    0.0016121
o    -1.2163154    2.1458257    0.0987496  0.00    0.0037220    0.0008647    0.0007375
h    -1.2880770    1.2546736   -0.3596414  0.00   -0.1045949   -0.0637669   -0.0472567
    13
 Energy =      -0.0250171412
c    -3.7313271    1.6975301    0.2618579  0.00    0.0032269    0.0017620    0.0011609
c    -2.4888007    2.6053583    0.3203463  0.00    0.0001971   -0.0048715   -0.0045106
c    -4.9062955    2.4087194   -0.4301803  0.00   -0.0043815    0.0016510    0.0001314
h    -4.6488033    2.6216579   -1.4955898  0.00    0.0010831    0.0018947   -0.0050135
h    -5.1538227    3.3682595    0.0826699  0.00   -0.0015802    0.0035046    0.0017518
h    -5.8062288    1.7543362   -0.4112286  0.00   -0.0021110   -0.0011710    0.0009570
n    -3.5377593    0.3999231   -0.4253632  0.00   -0.0088530   -0.0026132   -0.0051452
h    -4.0179266    1.5188030    1.3312467  0.00   -0.0014912   -0.0010974    0.0067785
h    -2.6598355    0.3540503   -0.9975718  0.00    0.1081811    0.0587705    0.0394163
h    -3.5578760   -0.4000155    0.2637534  0.00   -0.0013780   -0.0080248    0.0051015
o    -2.6368570    3.9198769    0.7531316  0.00    0.0006376    0.0102731    0.0031719
o    -1.1985489    2.1589026    0.0603339  0.00    0.0038963    0.0018115    0.0013665
h    -1.2640256    1.2417055   -0.3480816  0.00   -0.0974271   -0.0618895   -0.0451664
    13
 Energy =      -0.0250842458
c    -3.7053771    1.7015724    0.2552350  0.00    0.0046890    0.0004674    0.0006685
c    -2.4652311    2.6188344    0.2388602  0.00    0.0018462   -0.0056842   -0.0050068
c    -4.9311269    2.4092148   -0.3544690  0.00   -0.0064118    0.0019819    0.0002186
h    -4.7383249    2.6411047   -1.4315569  0.00    0.0013512    0.0021936   -0.0069161
h    -5.1589066    3.3586735    0.1861085  0.00   -0.0020316    0.0037200    0.0020014
h    -5.8228736    1.7451203   -0.2925833  0.00   -0.0030253   -0.0013776    0.0009711
n    -3.5489257    0.4135230   -0.4603958  0.00   -0.0104745    0.0006703   -0.0074260
h    -3.9193213    1.5113617    1.3417067  0.00   -0.0019806   -0.0009151    0.0092003
h    -2.6451741    0.3285352   -0.9869500  0.00    0.1043677    0.0555681    0.0351338
h    -3.6504101   -0.4047831    0.2044682  0.00   -0.0017428   -0.0125643    0.0082603
o    -2.6103625    3.9589891    0.5943784  0.00    0.0006052    0.0137152    0.0041940
o    -1.1742526    2.1532994    0.0142819  0.00    0.0040866    0.0026871    0.0019411
h    -1.2378206    1.2136618   -0.3437596  0.00   -0.0912793   -0.0604624   -0.0432401
    13
 Energy =      -0.0275233997
c    -3.7280951    1.7005470    0.2684876  0.00    0.0065494    0.0019697    0.0012026
c    -2.5003093    2.6328972    0.3067480  0.00    0.0021552   -0.0053661   -0.0045147
c    -4.9210859    2.3746213   -0.4398906  0.00   -0.0081385    0.0013716   -0.0003210
h    -4.6687290    2.5689733   -1.5128632  0.00    0.0013581    0.0020506   -0.0080161
h    -5.1888725    3.3400299    0.0543512  0.00   -0.0025363    0.0045434    0.0026036
h    -5.8093665    1.7040120   -0.4067859  0.00   -0.0030957   -0.0010789    0.0006750
n    -3.5130080    0.3890645   -0.3897195  0.00   -0.0165279    0.0055149   -0.0114099
h    -4.0112332    1.5432426    1.3454941  0.00   -0.0021585    0.0000203    0.0106209
h    -2.6539519    0.3591549   -1.0004399  0.00    0.0940348    0.0471160    0.0235866
h    -3.4916570   -0.4051545    0.3208527  0.00   -0.0015368   -0.0215409    0.0154421
o    -2.6709878    3.9529910    0.7203611  0.00    0.0003313    0.0137884    0.0042459
o    -1.2022628    2.2059408    0.0488720  0.00    0.0043826    0.0025963    0.0019142
h    -1.2485480    1.2827873   -0.3501434  0.00   -0.0748176   -0.0509852   -0.0360294
    13
 Energy =      -0.0317939028
c    -3.7542746    1.6954367    0.2751201  0.00    0.0062224    0.0015136    0.0011682
c    -2.5436461    2.6419840    0.3949930  0.00    0.0029181   -0.0045193   -0.0031930
c    -4.8959880    2.3413339   -0.5352852  0.00   -0.0083738    0.0006574   -0.0006618
h    -4.5717282    2.5054402   -1.5934807  0.00    0.0013489    0.0015482   -0.0079035
h    -5.2019919    3.3173371   -0.0868613  0.00   -0.0025276    0.0041338    0.0025351
h    -5.7811741    1.6661989   -0.5456415  0.00   -0.0030271   -0.0007824    0.0002899
n    -3.4757089    0.3735355   -0.3333659  0.00   -0.0140580    0.0052384   -0.0112360
h    -4.1196301    1.5551635    1.3290659  0.00   -0.0022924    0.0006835    0.0102485
h    -2.6617327    0.3775450   -1.0019095  0.00    0.0658251    0.0316220    0.0131141
h    -3.3619451   -0.3850753    0.4049743  0.00   -0.0007799   -0.0200519    0.0144567
o    -2.7490669    3.9318471    0.8791142  0.00    0.0000183    0.0126978    0.0039875
o    -1.2358220    2.2656868    0.1101758  0.00    0.0040713    0.0021356    0.0015378
h    -1.2553983    1.3626740   -0.3315748  0.00   -0.0493453   -0.0348765   -0.0243435
    13
 Energy =      -0.0344002896
c    -3.7805975    1.6833956    0.2711575  0.00    0.0046837    0.0018513    0.0014219
c    -2.6074495    2.6605395    0.4904991  0.00    0.0041904   -0.0047570   -0.0023069
c    -4.8687878    2.2954279   -0.6344249  0.00   -0.0088766   -0.0001231   -0.0013110
h    -4.4702962    2.4463627   -1.6694426  0.00    0.0017862    0.0011659   -0.0085364
h    -5.2230873    3.2727717   -0.2251671  0.00   -0.0028085    0.0043693    0.0028050
h    -5.7404742    1.6046349   -0.6988878  0.00   -0.0038660   -0.0010332   -0.0001867
n    -3.4160637    0.3656269   -0.3014281  0.00   -0.0110111    0.0026100   -0.0120833
h    -4.2294781    1.5376042    1.2924852  0.00   -0.0032009    0.0013978    0.0110890
h    -2.6219805    0.4058860   -0.9917683  0.00    0.0492083    0.0225531    0.0079924
h    -3.2362876   -0.3595920    0.4549007  0.00    0.0002456   -0.0182644    0.0127840
o    -2.8743369    3.9142197    1.0378674  0.00   -0.0003698    0.0143587    0.0050338
o    -1.2808742    2.3533658    0.2082230  0.00    0.0056470    0.0027612    0.0015721
h    -1.2583935    1.4688644   -0.2686897  0.00   -0.0356283   -0.0268896   -0.0182740
    13
 Energy =      -0.0356819550
c    -3.7887301    1.6974536    0.2877596  0.00    0.0013864    0.0024116    0.0034226
c    -2.5458906    2.5938721    0.4846102  0.00    0.0022349   -0.0052185   -0.0020745
c    -4.8470333    2.3764714   -0.6063106  0.00   -0.0079815    0.0003886   -0.0022145
h    -4.4479366    2.5093167   -1.6428566  0.00    0.0018364    0.0010784   -0.0078769
h    -5.1421718    3.3714217   -0.1895505  0.00   -0.0032168    0.0056604    0.0030472
h    -5.7579231    1.7351042   -0.6677338  0.00   -0.0051403   -0.0019803   -0.0003133
n    -3.5172007    0.3570975   -0.2838483  0.00   -0.0128989   -0.0019149   -0.0114639
h    -4.2344410    1.5823370    1.3138464  0.00   -0.0035208    0.0011971    0.0103579
h    -2.7765063    0.3742882   -1.0330248  0.00    0.0456176    0.0187492    0.0022540
h    -3.2926174   -0.3539139    0.4736518  0.00    0.0003513   -0.0171477    0.0135995
o    -2.7155838    3.8505144    1.0707076  0.00   -0.0012970    0.0192053    0.0074692
o    -1.2497412    2.2153480    0.1292751  0.00    0.0117670    0.0039305    0.0015842
h    -1.2923312    1.3397963   -0.3712018  0.00   -0.0291385   -0.0263597   -0.0177914
    13
 Energy =      -0.0393775026
c    -3.8203771    1.7048770    0.3005294  0.00    0.0022882   -0.0021432    0.0015303
c    -2.5460109    2.5302533    0.5511276  0.00    0.0023589   -0.0035591   -0.0012161
c    -4.7829333    2.4231670   -0.6626484  0.00   -0.0051200    0.0024188   -0.0013113
h    -4.3190348    2.5178837   -1.6738151  0.00    0.0018400    0.0010801   -0.0056346
h    -5.0472732    3.4368764   -0.2800600  0.00   -0.0021229    0.0031660    0.0011538
h    -5.7195891    1.8274784   -0.7660425  0.00   -0.0039375   -0.0017928    0.0001961
n    -3.5827880    0.3486325   -0.2255338  0.00   -0.0143945    0.0039868   -0.0068681
h    -4.3297132    1.6233900    1.2959387  0.00   -0.0028356   -0.0005370    0.0063482
h    -2.9352594    0.3643048   -1.0571494  0.00    0.0267735    0.0115682   -0.0068104
h    -3.2372335   -0.3028849    0.5404514  0.00    0.0031654   -0.0142854    0.0164038
o    -2.6640507    3.7485665    1.2160624  0.00   -0.0013096    0.0130823    0.0051091
o    -1.2746252    2.1369830    0.1343554  0.00    0.0061606    0.0020495    0.0007266
h    -1.3492186    1.2895795   -0.4078913  0.00   -0.0128664   -0.0150342   -0.0096274
    13
 Energy =      -0.0403803714
c    -3.8486472    1.7044290    0.2787462  0.00   -0.0001572   -0.0031473    0.0019361
c    -2.5565030    2.4639431    0.6294104  0.00   -0.0007915    0.0001467    0.0007354
c    -4.7269446    2.4970982   -0.7060875  0.00   -0.0030838    0.0034562   -0.0021825
h    -4.2098309    2.6007226   -1.6889774  0.00    0.0013801    0.0011442   -0.0045375
h    -4.9611558    3.5098425   -0.3054024  0.00   -0.0011967    0.0022930    0.0004566
h    -5.6835786    1.9480722   -0.8755256  0.00   -0.0048104   -0.0025694   -0.0002868
n    -3.6345626    0.3628100   -0.2877168  0.00   -0.0086222    0.0003656   -0.0040603
h    -4.4123203    1.6030035    1.2409334  0.00   -0.0021062   -0.0012751    0.0051360
h    -2.9934081    0.4022467   -1.1195047  0.00    0.0118171    0.0058703   -0.0057666
h    -3.2864299   -0.3078684    0.4517796  0.00    0.0019619   -0.0072809    0.0090316
o    -2.6598068    3.6658744    1.3183212  0.00    0.0004090    0.0072339    0.0027422
o    -1.2776084    2.0172038    0.2931085  0.00    0.0100915    0.0016316    0.0001221
h    -1.3573108    1.1817297   -0.2637604  0.00   -0.0048914   -0.0078688   -0.0033263
    13
 Energy =      -0.0413601043
c    -3.8589242    1.7107811    0.3000381  0.00    0.0011211    0.0004134    0.0022856
c    -2.5727005    2.4709348    0.6537676  0.00   -0.0099719    0.0002415    0.0029589
c    -4.6950028    2.4642225   -0.7494618  0.00   -0.0035444    0.0026519   -0.0020637
h    -4.1473620    2.5179957   -1.7194685  0.00    0.0016500    0.0008847   -0.0046190
h    -4.9324883    3.4962365   -0.4012502  0.00   -0.0012387    0.0029152    0.0008008
h    -5.6497783    1.9166377   -0.9239577  0.00   -0.0032839   -0.0016462   -0.0002137
n    -3.6425022    0.3346988   -0.1818448  0.00   -0.0100772   -0.0024694   -0.0049816
h    -4.4536905    1.6652630    1.2480125  0.00   -0.0022424   -0.0007054    0.0053460
h    -3.0489284    0.3221553   -1.0491760  0.00    0.0071859    0.0029831   -0.0091092
h    -3.2369463   -0.2734644    0.5842882  0.00    0.0031220   -0.0082933    0.0112341
o    -2.6752978    3.6114055    1.4464101  0.00   -0.0032220    0.0118165    0.0067246
o    -1.3032872    2.1074568    0.1804803  0.00    0.0189616   -0.0037292   -0.0052604
h    -1.3911984    1.3047841   -0.4225135  0.00    0.0015399   -0.0050629   -0.0031024
    13
 Energy =      -0.0424721065
c    -3.8862249    1.7255206    0.3048335  0.00    0.0032666   -0.0000733   -0.0003087
c    -2.6045218    2.4519532    0.7109912  0.00    0.0006735   -0.0041574   -0.0014688
c    -4.6168231    2.4529940   -0.8342132  0.00   -0.0036166    0.0019316   -0.0005147
h    -4.0015172    2.4441522   -1.7629719  0.00    0.0021609    0.0001751   -0.0034777
h    -4.8445627    3.5050874   -0.5496744  0.00   -0.0009773    0.0015248    0.0003527
h    -5.5729267    1.9292357   -1.0523798  0.00   -0.0008405    0.0001189    0.0000643
n    -3.6748210    0.3230544   -0.0878022  0.00    0.0010125   -0.0027120   -0.0003618
h    -4.5484557    1.7431584    1.2063397  0.00   -0.0023547   -0.0000050    0.0034421
h    -3.0975249    0.2462054   -0.9559910  0.00   -0.0004686   -0.0007845   -0.0015268
h    -3.2426170   -0.2247181    0.6991286  0.00    0.0004671   -0.0010126    0.0009345
o    -2.6901016    3.5116438    1.6051632  0.00   -0.0013515    0.0069441    0.0042578
o    -1.3615171    2.1521933    0.1645208  0.00    0.0005954   -0.0014040   -0.0002455
h    -1.4664932    1.3886269   -0.4826203  0.00    0.0014330   -0.0005455   -0.0011474
    13
 Energy =      -0.0426785423
c    -3.8898441    1.7329512    0.3119561  0.00   -0.0006691    0.0008410    0.0007267
c    -2.6094285    2.4673433    0.7033665  0.00   -0.0029899   -0.0010331    0.0006166
c    -4.6056989    2.4210079   -0.8541178  0.00    0.0003402   -0.0004800   -0.0001185
h    -3.9866786    2.3777106   -1.7744306  0.00   -0.0001712    0.0000985    0.0001221
h    -4.8288225    3.4825327   -0.6082287  0.00    0.0000400    0.0004047    0.0001829
h    -5.5607471    1.8924911   -1.0625539  0.00    0.0001373   -0.0000917   -0.0000375
n    -3.6771162    0.3206529   -0.0342552  0.00   -0.0009336   -0.0001568   -0.0004366
h    -4.5579189    1.7795569    1.2030678  0.00    0.0003375   -0.0000435   -0.0001943
h    -3.0850497    0.2168243   -0.8889548  0.00   -0.0002020   -0.0005048   -0.0007018
h    -3.2480188   -0.1976741    0.7736688  0.00    0.0004045   -0.0003547    0.0005907
o    -2.6791653    3.4702454    1.6574576  0.00   -0.0014134    0.0019368    0.0016769
o    -1.3848581    2.2296470    0.0855391  0.00    0.0050452   -0.0009630   -0.0028346
h    -1.4947602    1.4558181   -0.5471908  0.00    0.0000744    0.0003468    0.0004074
    13
 Energy =      -0.0427000826
c    -3.8964658    1.7389529    0.3077040  0.00    0.0000707   -0.0000558   -0.0000035
c    -2.6144920    2.4628415    0.7133467  0.00    0.0000891   -0.0001600   -0.0000462
c    -4.5878468    2.4239459   -0.8755498  0.00   -0.0001629    0.0000983   -0.0000491
h    -3.9573842    2.3616652   -1.7874368  0.00    0.0001693   -0.0000015   -0.0002119
h    -4.8004002    3.4907645   -0.6447835  0.00   -0.0000747    0.0001746   -0.0000021
h    -5.5475703    1.9062507   -1.0903506  0.00   -0.0000907   -0.0000271    0.0000114
n    -3.6909841    0.3222664   -0.0232474  0.00   -0.0003873    0.0001058    0.0001025
h    -4.5787234    1.7993238    1.1879154  0.00   -0.0001751   -0.0000028    0.0001801
h    -3.0815468    0.2064242   -0.8639108  0.00    0.0003005   -0.0000472   -0.0004242