    27
 Energy =       0.7457377205
c    -1.4235396    2.6054793   -0.0667700  0.00   -0.0463377    0.0383324    0.0026622
c    -1.3072796    1.2134697   -0.1072300  0.00   -0.0852441   -0.0326250    0.0019192
c    -0.0178900    0.6711998   -0.1697000  0.00   -0.0885981   -0.1877730   -0.0008410
c    -0.2940599    3.4190890   -0.0891300  0.00   -0.0230812    0.0690810    0.0028282
c     0.9872197    2.8590292   -0.1560400  0.00    0.0104930    0.0644269    0.0008713
c     1.1340797    1.4562096   -0.1970299  0.00    0.0538762    0.0513280    0.0021154
n     0.3879399   -0.6395298   -0.2140799  0.00    0.1434112    0.1078265   -0.0050010
c     2.2666594    0.5727398   -0.2659299  0.00    0.3280739   -0.1576924   -0.2118750
c     1.7555995   -0.7123598   -0.2706899  0.00   -0.0554238   -0.0890423   -0.0167091
h    -0.2400399   -1.4313496   -0.2047299  0.00    0.0366787    0.0481356    0.0001441
c     3.7030089    1.0223397   -0.3320099  0.00   -0.1470902   -0.9960253   -1.2390655
c     4.7465686   -0.0024900    0.1378100  0.00   -0.0629188    0.1494585   -0.1081543
h     3.7978489    1.9290294    0.2803699  0.00   -0.0057236   -0.0096691   -0.0128795
h     3.9233889    1.3348996   -1.3618196  0.00   -0.3517975   -1.2367253   -0.2944884
c     4.8964886   -1.0916697   -0.9404947  0.00    0.1887463   -0.3198598    0.0041157
n     4.3764788   -0.6892298    1.4261196  0.00   -0.0229498   -0.0861952    0.0503380
h     5.7313184    0.4619039    0.2668599  0.00   -0.0170504   -0.0107248    0.0066769
h     3.5102190   -0.2546209    1.7604995  0.00    0.0190225   -0.0070729   -0.0432135
h     4.0970388   -1.6495395    1.1968197  0.00    0.0121124    0.0435848   -0.0285719
h    -2.4108593    3.0588691   -0.0157800  0.00   -0.0006833    0.0002015    0.0000930
h    -2.1896094    0.5822398   -0.0890100  0.00   -0.0036072    0.0038569    0.0001673
h    -0.4052699    4.5000487   -0.0535400  0.00    0.0008832    0.0001281    0.0003549
h     1.8590495    3.5066790   -0.1715100  0.00   -0.0006982    0.0029550    0.0008883
h     2.2327294   -1.6813195   -0.3062999  0.00   -0.0348096   -0.0069428    0.0037477
o     5.6946284   -2.0136594   -0.9120977  0.00   -0.1906787    0.2192522   -0.0066726
o     4.0108389   -0.9035257   -1.9557794  0.00   -0.0334491    0.1151266    0.0994883
h     3.5186590   -0.0758581   -1.7163295  0.00    0.3768438    2.2266541    1.7910611
    27
 Energy =       0.6315592541
c    -1.4373295    2.5267615   -0.0687787  0.00   -0.0365345    0.0304592    0.0021332
c    -1.3074834    1.1430618   -0.1139682  0.00   -0.0676565   -0.0258976    0.0016079
c    -0.0230839    0.6151058   -0.1666411  0.00   -0.0697842   -0.1477793    0.0007822
c    -0.3190135    3.3467740   -0.0849930  0.00   -0.0181928    0.0547781    0.0022475
c     0.9590098    2.7992736   -0.1471420  0.00    0.0087122    0.0510066    0.0006388
c     1.1085169    1.4083354   -0.1844937  0.00    0.0422348    0.0413410    0.0017458
n     0.3839685   -0.7049913   -0.2513566  0.00    0.1101518    0.0848999   -0.0064325
c     2.2442437    0.5617698   -0.2474727  0.00    0.2633675   -0.1275016   -0.1707791
c     1.7690332   -0.7303802   -0.2385261  0.00   -0.0411182   -0.0694588   -0.0114394
h    -0.2303023   -1.5174058   -0.2861685  0.00    0.0280158    0.0365139   -0.0004796
c     3.6686485    1.0554514   -0.3636126  0.00   -0.1199898   -0.8103601   -1.0158401
c     4.7473009    0.0835999    0.1149526  0.00   -0.0504992    0.1207168   -0.0902280
h     3.7522085    1.9779391    0.2328644  0.00   -0.0044309   -0.0072887   -0.0100596
h     3.9022060    1.3524151   -1.3813443  0.00   -0.2842495   -1.0062285   -0.2358526
c     4.8928656   -1.0323993   -0.9234794  0.00    0.1469742   -0.2526666    0.0021642
n     4.4355506   -0.5354326    1.4474764  0.00   -0.0160751   -0.0645748    0.0444391
h     5.7268784    0.5841657    0.1822788  0.00   -0.0115679   -0.0072215    0.0055325
h     3.5803404   -0.0958678    1.8176569  0.00    0.0141543   -0.0058920   -0.0330910
h     4.1873547   -1.5282123    1.3018601  0.00    0.0076042    0.0280835   -0.0229755
h    -2.4291269    2.9709801   -0.0244724  0.00   -0.0006105    0.0001986    0.0000816
h    -2.1825866    0.5014757   -0.1121090  0.00   -0.0030441    0.0029560    0.0001186
h    -0.4394884    4.4268599   -0.0502810  0.00    0.0007092    0.0001467    0.0002827
h     1.8269310    3.4518762   -0.1607278  0.00   -0.0003644    0.0022042    0.0007016
h     2.2960229   -1.6752319   -0.2643735  0.00   -0.0266172   -0.0065603    0.0031625
o     5.7381583   -1.9577063   -0.8303791  0.00   -0.1481204    0.1727170   -0.0030610
o     4.0099577   -0.9081316   -1.9611880  0.00   -0.0260914    0.0886053    0.0770026
h     3.4804334   -0.0720121   -1.7631034  0.00    0.3030227    1.8168032    1.4575979
    27
 Energy =       0.5813602412
c    -1.4043356    2.5822322   -0.0829875  0.00   -0.0324566    0.0267994    0.0019010
c    -1.2958885    1.2013370   -0.1521513  0.00   -0.0597615   -0.0234095    0.0014378
c    -0.0245615    0.6547014   -0.1907708  0.00   -0.0600019   -0.1269194    0.0021273
c    -0.2736400    3.3817189   -0.0688528  0.00   -0.0158727    0.0485727    0.0019086
c     0.9932709    2.8140891   -0.1186679  0.00    0.0078505    0.0452194    0.0004565
c     1.1160938    1.4257768   -0.1734687  0.00    0.0373939    0.0368729    0.0015221
n     0.3483546   -0.6734153   -0.3420916  0.00    0.0933337    0.0726745   -0.0074905
c     2.2335371    0.5664583   -0.2287395  0.00    0.2331443   -0.1115712   -0.1512941
c     1.7375826   -0.7171390   -0.2427197  0.00   -0.0317523   -0.0600643   -0.0087715
h    -0.2854252   -1.4723661   -0.4449216  0.00    0.0219563    0.0289335   -0.0012108
c     3.6711396    1.0275022   -0.3405803  0.00   -0.1054546   -0.7187731   -0.9015570
c     4.7346930    0.0337028    0.1411039  0.00   -0.0443588    0.1059852   -0.0794503
h     3.7747723    1.9475001    0.2591968  0.00   -0.0038467   -0.0062651   -0.0087219
h     3.8890589    1.3256522   -1.3612735  0.00   -0.2527553   -0.8920232   -0.2090266
c     4.8763686   -1.0749636   -0.9014472  0.00    0.1291705   -0.2222189    0.0021348
n     4.4107307   -0.5755078    1.4721156  0.00   -0.0140721   -0.0566751    0.0392218
h     5.7215375    0.5229981    0.2111619  0.00   -0.0100887   -0.0063160    0.0048514
h     3.5514877   -0.1373776    1.8400607  0.00    0.0124249   -0.0051928   -0.0290817
h     4.1732268   -1.5743649    1.3367514  0.00    0.0066419    0.0245144   -0.0203628
h    -2.3895751    3.0421261   -0.0499973  0.00   -0.0007831    0.0001830    0.0000784
h    -2.1810147    0.5732646   -0.1880064  0.00   -0.0033667    0.0020175    0.0000478
h    -0.3762208    4.4633685   -0.0196606  0.00    0.0006595    0.0004206    0.0002546
h     1.8734253    3.4507778   -0.1080160  0.00    0.0000750    0.0022706    0.0006110
h     2.2602068   -1.6656121   -0.2636547  0.00   -0.0234692   -0.0058862    0.0028864
o     5.7332378   -2.0113032   -0.8110665  0.00   -0.1302168    0.1519193   -0.0027476
o     4.0021494   -0.9499323   -1.9482190  0.00   -0.0230068    0.0781167    0.0677632
h     3.4710026   -0.1131503   -1.7506189  0.00    0.2686135    1.6108150    1.2925119
    27
 Energy =       0.5747852250
c    -1.4143060    2.5593413   -0.0830753  0.00   -0.0322988    0.0266477    0.0018932
c    -1.2982970    1.1776647   -0.1233843  0.00   -0.0592577   -0.0237323    0.0013801
c    -0.0243793    0.6382963   -0.1725941  0.00   -0.0584037   -0.1224000    0.0022483
c    -0.2885601    3.3661094   -0.1013961  0.00   -0.0154197    0.0483999    0.0018907
c     0.9806563    2.8055157   -0.1602163  0.00    0.0079112    0.0450544    0.0004630
c     1.1108781    1.4173697   -0.1917015  0.00    0.0372572    0.0370051    0.0014955
n     0.3548750   -0.6970159   -0.2521113  0.00    0.0897599    0.0696176   -0.0074810
c     2.2332031    0.5665726   -0.2468580  0.00    0.2313938   -0.1099233   -0.1497628
c     1.7504260   -0.7210872   -0.2295760  0.00   -0.0278348   -0.0581392   -0.0087047
h    -0.2747072   -1.5081344   -0.2861685  0.00    0.0193052    0.0255145   -0.0013165
c     3.6660078    1.0390021   -0.3618856  0.00   -0.1044131   -0.7115386   -0.8924978
c     4.7364478    0.0560464    0.1229621  0.00   -0.0438827    0.1049742   -0.0787393
h     3.7622785    1.9615826    0.2355581  0.00   -0.0037967   -0.0061819   -0.0086112
h     3.8962872    1.3334870   -1.3786580  0.00   -0.2501614   -0.8829652   -0.2068936
c     4.8776735   -1.0601618   -0.9115313  0.00    0.1278368   -0.2199895    0.0021041
n     4.4227765   -0.5419334    1.4610518  0.00   -0.0138895   -0.0560785    0.0389642
h     5.7212450    0.5511515    0.1830055  0.00   -0.0099369   -0.0062127    0.0048110
h     3.5668475   -0.0999772    1.8328610  0.00    0.0122811   -0.0051474   -0.0287373
h     4.1868899   -1.5426960    1.3375342  0.00    0.0065318    0.0241557   -0.0201598
h    -2.4018854    3.0135895   -0.0414318  0.00   -0.0008658    0.0001450    0.0000789
h    -2.1799462    0.5425422   -0.1204589  0.00   -0.0039480    0.0014470    0.0000424
h    -0.3971444    4.4480407   -0.0710878  0.00    0.0007222    0.0006336    0.0002552
h     1.8570547    3.4478298   -0.1754918  0.00    0.0003495    0.0025041    0.0005999
h     2.2827360   -1.6639560   -0.2458925  0.00   -0.0233599   -0.0060106    0.0028446
o     5.7396875   -1.9927573   -0.8140267  0.00   -0.1288636    0.1503700   -0.0027080
o     4.0021998   -0.9450656   -1.9593718  0.00   -0.0227514    0.0772029    0.0669991
h     3.4722699   -0.1032829   -1.7735768  0.00    0.2657350    1.5946474    1.2795417
    27
 Energy =       0.5497710157
c    -1.4158374    2.5471740   -0.0859523  0.00   -0.0304352    0.0251138    0.0017821
c    -1.2965042    1.1664095   -0.0964337  0.00   -0.0556350   -0.0228103    0.0012313
c    -0.0241110    0.6299283   -0.1554413  0.00   -0.0538879   -0.1115447    0.0016419
c    -0.2931981    3.3555544   -0.1371635  0.00   -0.0141556    0.0456839    0.0018051
c     0.9747818    2.7971050   -0.2043510  0.00    0.0075440    0.0425468    0.0004908
c     1.1059044    1.4108732   -0.2112041  0.00    0.0351612    0.0351915    0.0014175
n     0.3562829   -0.7112594   -0.1623725  0.00    0.0820374    0.0629228   -0.0063651
c     2.2280588    0.5669597   -0.2646884  0.00    0.2178895   -0.1026410   -0.1407417
c     1.7553858   -0.7217509   -0.2137045  0.00   -0.0229562   -0.0531857   -0.0087331
h    -0.2702264   -1.5289872   -0.1274153  0.00    0.0157560    0.0208325   -0.0009861
c     3.6586058    1.0438747   -0.3836342  0.00   -0.0983927   -0.6687156   -0.8389002
c     4.7333374    0.0682431    0.1061159  0.00   -0.0411650    0.0985851   -0.0740676
h     3.7520419    1.9691135    0.2114248  0.00   -0.0035533   -0.0057920   -0.0080692
h     3.9003343    1.3337630   -1.3966635  0.00   -0.2348382   -0.8296304   -0.1941319
c     4.8726548   -1.0557329   -0.9188063  0.00    0.1197665   -0.2063265    0.0019395
n     4.4300386   -0.5107273    1.4532851  0.00   -0.0129530   -0.0523786    0.0367869
h     5.7176737    0.5673546    0.1531227  0.00   -0.0092536   -0.0057699    0.0045136
h     3.5773002   -0.0642118    1.8297765  0.00    0.0114867   -0.0048228   -0.0268992
h     4.2005581   -1.5160420    1.3499780  0.00    0.0060370    0.0223096   -0.0189158
h    -2.4038595    2.9996412   -0.0362582  0.00   -0.0008795    0.0000946    0.0000752
h    -2.1756648    0.5282289   -0.0547111  0.00   -0.0042910    0.0008127    0.0000678
h    -0.4038802    4.4378073   -0.1266768  0.00    0.0007489    0.0008134    0.0002404
h     1.8497886    3.4405650   -0.2460032  0.00    0.0005908    0.0026011    0.0005543
h     2.2979838   -1.6588383   -0.2239003  0.00   -0.0220405   -0.0058278    0.0026319
o     5.7461795   -1.9865876   -0.8129181  0.00   -0.1207110    0.1410065   -0.0024719
o     3.9983094   -0.9544265   -1.9710359  0.00   -0.0212900    0.0721374    0.0627300
h     3.4692764   -0.1059575   -1.8018907  0.00    0.2494197    1.4987937    1.2023734
    27
 Energy =       0.4570539286
c    -1.3828975    2.5832890   -0.1079958  0.00   -0.0217881    0.0177421    0.0013235
c    -1.2801450    1.2082484   -0.0789259  0.00   -0.0392946   -0.0170276    0.0006260
c    -0.0258013    0.6562569   -0.1432031  0.00   -0.0369905   -0.0753393   -0.0009269
c    -0.2536173    3.3709681   -0.1983147  0.00   -0.0097344    0.0326599    0.0015596
c     0.9988799    2.7940109   -0.2689734  0.00    0.0053863    0.0307043    0.0006948
c     1.1025316    1.4154471   -0.2398418  0.00    0.0249447    0.0253191    0.0012247
n     0.3238397   -0.6996846   -0.0719136  0.00    0.0571728    0.0413974   -0.0021969
c     2.2040658    0.5717855   -0.2804142  0.00    0.1593364   -0.0726053   -0.1048530
c     1.7297670   -0.7080355   -0.1833883  0.00   -0.0141974   -0.0364632   -0.0078883
h    -0.3129191   -1.5123245    0.0313378  0.00    0.0087673    0.0116744    0.0001218
c     3.6448090    1.0231646   -0.4021016  0.00   -0.0744447   -0.5002281   -0.6288695
c     4.7110763    0.0377055    0.1014591  0.00   -0.0294257    0.0699416   -0.0537408
h     3.7537561    1.9510416    0.1914477  0.00   -0.0024603   -0.0039875   -0.0056608
h     3.8990430    1.3037811   -1.4133319  0.00   -0.1743810   -0.6186559   -0.1428136
c     4.8451744   -1.0933529   -0.9096782  0.00    0.0832854   -0.1457477    0.0018029
n     4.4150734   -0.4925056    1.4643551  0.00   -0.0088219   -0.0346561    0.0269722
h     5.7018129    0.5329127    0.1268672  0.00   -0.0063348   -0.0039253    0.0030866
h     3.5632095   -0.0403539    1.8473383  0.00    0.0079834   -0.0033075   -0.0190607
h     4.2135196   -1.5128131    1.4136425  0.00    0.0038201    0.0130012   -0.0136586
h    -2.3639701    3.0500796   -0.0540601  0.00   -0.0007916    0.0000636    0.0000582
h    -2.1641868    0.5806897    0.0048522  0.00   -0.0037219   -0.0001765    0.0001179
h    -0.3488653    4.4549493   -0.2164809  0.00    0.0005845    0.0011427    0.0001787
h     1.8839077    3.4210685   -0.3420112  0.00    0.0008948    0.0023349    0.0003767
h     2.2880416   -1.6373197   -0.1748136  0.00   -0.0156410   -0.0044817    0.0017780
o     5.7580715   -2.0294009   -0.7917289  0.00   -0.0839554    0.0997027   -0.0013754
o     3.9841699   -1.0209705   -1.9819464  0.00   -0.0148927    0.0500334    0.0442529
h     3.4528678   -0.1605634   -1.8496980  0.00    0.1846999    1.1208842    0.8968697
    27
 Energy =       0.3513740153
c    -1.3087141    2.7027733   -0.1619832  0.00   -0.0114661    0.0081826    0.0008615
c    -1.2562373    1.3341711   -0.1081383  0.00   -0.0191977   -0.0090819    0.0003102
c    -0.0353909    0.7368659   -0.1562865  0.00   -0.0162138   -0.0349529   -0.0005494
c    -0.1532459    3.4396562   -0.2630575  0.00   -0.0053313    0.0164380    0.0010482
c     1.0687241    2.8136842   -0.3151140  0.00    0.0029350    0.0155333    0.0004861
c     1.1087765    1.4442788   -0.2577110  0.00    0.0118507    0.0116554    0.0006992
n     0.2416669   -0.6434017   -0.0772895  0.00    0.0264409    0.0179362   -0.0015838
c     2.1674694    0.5788535   -0.2689610  0.00    0.0846888   -0.0361189   -0.0612070
c     1.6610684   -0.6797363   -0.1555732  0.00   -0.0051980   -0.0179049   -0.0036401
h    -0.4301111   -1.4355365    0.0170651  0.00    0.0030052    0.0045308    0.0000963
c     3.6352305    0.9669458   -0.3789135  0.00   -0.0441284   -0.2976320   -0.3765579
c     4.6682641   -0.0588097    0.1436845  0.00   -0.0142511    0.0320699   -0.0267333
h     3.7799084    1.8932244    0.2167123  0.00   -0.0009254   -0.0013465   -0.0024279
h     3.9069419    1.2335757   -1.3985926  0.00   -0.1018820   -0.3655857   -0.0843338
c     4.8094967   -1.1831891   -0.8680435  0.00    0.0348028   -0.0683490    0.0034309
n     4.3538622   -0.5476209    1.5113315  0.00   -0.0030965   -0.0118466    0.0135995
h     5.6715641    0.4198908    0.1705406  0.00   -0.0027280   -0.0017790    0.0013274
h     3.4815540   -0.1145992    1.8847196  0.00    0.0029058   -0.0011469   -0.0089887
h     4.2129347   -1.5862493    1.5108402  0.00    0.0015088    0.0010529   -0.0073436
h    -2.2719810    3.2079882   -0.1222179  0.00   -0.0013261    0.0004693    0.0000799
h    -2.1616754    0.7394428   -0.0210912  0.00   -0.0023538   -0.0006942    0.0001145
h    -0.2058702    4.5265915   -0.3039259  0.00    0.0001010    0.0017803    0.0000702
h     1.9803879    3.4007295   -0.3964196  0.00    0.0013286    0.0018937    0.0000878
h     2.2210970   -1.6099508   -0.1217705  0.00   -0.0070245   -0.0022852    0.0011270
o     5.7917317   -2.1087835   -0.7584904  0.00   -0.0354607    0.0470288   -0.0012530
o     3.9719265   -1.1436360   -1.9686166  0.00   -0.0067714    0.0231983    0.0209557
h     3.4318355   -0.2790851   -1.8802195  0.00    0.1077870    0.6669542    0.5303242
    27
 Energy =       0.3301866872
c    -1.2823947    2.7636798   -0.1997102  0.00   -0.0097921    0.0067798    0.0007423
c    -1.2559361    1.3955490   -0.1483181  0.00   -0.0160896   -0.0076557    0.0003160
c    -0.0477707    0.7760859   -0.1828576  0.00   -0.0132994   -0.0287478   -0.0003889
c    -0.1126631    3.4781012   -0.2851393  0.00   -0.0044364    0.0138644    0.0008517
c     1.0966933    2.8295738   -0.3217906  0.00    0.0027016    0.0129594    0.0003580
c     1.1086623    1.4616342   -0.2663335  0.00    0.0098822    0.0096219    0.0005194
n     0.1995788   -0.6116370   -0.1102463  0.00    0.0214383    0.0145415   -0.0013847
c     2.1494455    0.5802502   -0.2627421  0.00    0.0696917   -0.0295451   -0.0510117
c     1.6213985   -0.6693530   -0.1646122  0.00   -0.0037104   -0.0151030   -0.0025835
h    -0.4884923   -1.3926582   -0.0323952  0.00    0.0020993    0.0033382    0.0001101
c     3.6301065    0.9391137   -0.3424131  0.00   -0.0370737   -0.2490067   -0.3157774
c     4.6414851   -0.1018392    0.1971193  0.00   -0.0123930    0.0268206   -0.0227634
h     3.7800781    1.8645235    0.2539728  0.00   -0.0007360   -0.0011037   -0.0019614
h     3.9409321    1.1876184   -1.3608946  0.00   -0.0837209   -0.3063176   -0.0711709
c     4.8334420   -1.1971135   -0.8398381  0.00    0.0121679   -0.0458337    0.0034468
n     4.2876595   -0.6194039    1.5444772  0.00    0.0064449   -0.0037057    0.0106562
h     5.6420615    0.3823302    0.2700024  0.00   -0.0012927   -0.0009726    0.0011172
h     3.3522348   -0.2733523    1.8718135  0.00   -0.0076505    0.0025855   -0.0037408
h     4.2548056   -1.6729992    1.5387327  0.00    0.0013432   -0.0087926   -0.0073053
h    -2.2364979    3.2868177   -0.1713392  0.00   -0.0013553    0.0004932    0.0000786
h    -2.1731724    0.8173559   -0.0752754  0.00   -0.0022087   -0.0007445    0.0001216
h    -0.1441909    4.5658361   -0.3250501  0.00    0.0000734    0.0017040    0.0000479
h     2.0206085    3.3988503   -0.3899846  0.00    0.0013704    0.0017425    0.0000434
h     2.1730271   -1.6054037   -0.1246169  0.00   -0.0054486   -0.0018551    0.0010525
o     5.9377788   -2.0116518   -0.8067394  0.00   -0.0120925    0.0269845   -0.0016959
o     3.9837097   -1.1902160   -1.9339290  0.00   -0.0055558    0.0191823    0.0165609
h     3.4286250   -0.3336183   -1.8594142  0.00    0.0896427    0.5587659    0.4437615
    27
 Energy =       0.3303503839
c    -1.2764063    2.7658638   -0.1942638  0.00   -0.0097071    0.0067233    0.0007355
c    -1.2523616    1.3976137   -0.1466915  0.00   -0.0159461   -0.0075931    0.0003138
c    -0.0453321    0.7761879   -0.1817588  0.00   -0.0131800   -0.0284815   -0.0003851
c    -0.1053903    3.4784579   -0.2765813  0.00   -0.0043935    0.0137459    0.0008433
c     1.1028328    2.8279683   -0.3136713  0.00    0.0026803    0.0128507    0.0003539
c     1.1122966    1.4599573   -0.2619339  0.00    0.0097952    0.0095390    0.0005128
n     0.1993347   -0.6123475   -0.1143681  0.00    0.0212390    0.0144032   -0.0013740
c     2.1512938    0.5767270   -0.2602834  0.00    0.0690519   -0.0292895   -0.0505692
c     1.6211728   -0.6721605   -0.1675145  0.00   -0.0035002   -0.0149941   -0.0024322
h    -0.4903095   -1.3924249   -0.0405946  0.00    0.0020748    0.0032939    0.0001110
c     3.6331241    0.9317412   -0.3367178  0.00   -0.0367524   -0.2467394   -0.3129202
c     4.6385420   -0.1121051    0.2076407  0.00   -0.0135280    0.0279142   -0.0234862
h     3.7835385    1.8579104    0.2583429  0.00   -0.0007358   -0.0010964   -0.0019293
h     3.9524671    1.1768948   -1.3540576  0.00   -0.0828725   -0.3035447   -0.0705332
c     4.8632018   -1.1817879   -0.8502395  0.00    0.0095919   -0.0435681    0.0023653
n     4.2522083   -0.6650874    1.5328559  0.00    0.0168922    0.0040494    0.0105758
h     5.6337973    0.3777275    0.3181407  0.00   -0.0006638   -0.0005686    0.0011671
h     3.3650357   -0.2239731    1.8990510  0.00   -0.0162540    0.0081502   -0.0013647
h     4.0960525   -1.7142796    1.4718797  0.00   -0.0009029   -0.0232576   -0.0077964
h    -2.2296363    3.2905671   -0.1655778  0.00   -0.0013445    0.0004897    0.0000778
h    -2.1706790    0.8207901   -0.0765599  0.00   -0.0021927   -0.0007426    0.0001209
h    -0.1350278    4.5663420   -0.3137773  0.00    0.0000732    0.0016943    0.0000471
h     2.0277441    3.3958437   -0.3797494  0.00    0.0013605    0.0017297    0.0000426
h     2.1715562   -1.6092039   -0.1364261  0.00   -0.0050704   -0.0018776    0.0012911
o     6.0114138   -1.9392929   -0.8543106  0.00   -0.0087072    0.0243296   -0.0018491
o     4.0011688   -1.1880272   -1.9357523  0.00   -0.0055194    0.0189335    0.0163455
h     3.4295766   -0.3418289   -1.8546033  0.00    0.0885117    0.5539067    0.4397362
    27
 Energy =       0.3158418556
c    -1.2558798    2.7925539   -0.2174144  0.00   -0.0087183    0.0060594    0.0006625
c    -1.2421920    1.4253451   -0.1564270  0.00   -0.0142650   -0.0068579    0.0002800
c    -0.0409171    0.7946374   -0.1851839  0.00   -0.0117480   -0.0254012   -0.0003722
c    -0.0798058    3.4948200   -0.3065312  0.00   -0.0039280    0.0123568    0.0007624
c     1.1224975    2.8347401   -0.3370462  0.00    0.0024305    0.0115494    0.0003203
c     1.1205747    1.4683326   -0.2718716  0.00    0.0087635    0.0084915    0.0004584
n     0.1925135   -0.5957236   -0.1036308  0.00    0.0189635    0.0127260   -0.0012049
c     2.1521815    0.5794820   -0.2610936  0.00    0.0619137   -0.0262104   -0.0454235
c     1.6149288   -0.6644920   -0.1563394  0.00   -0.0030419   -0.0134184   -0.0022083
h    -0.5024603   -1.3706463   -0.0217111  0.00    0.0017879    0.0028614    0.0001087
c     3.6356856    0.9249309   -0.3407984  0.00   -0.0330033   -0.2214317   -0.2808325
c     4.6319498   -0.1277004    0.2053796  0.00   -0.0127692    0.0258737   -0.0217241
h     3.7945136    1.8500132    0.2542953  0.00   -0.0006532   -0.0009620   -0.0016877
h     3.9466659    1.1706969   -1.3612485  0.00   -0.0745181   -0.2723076   -0.0633268
c     4.8205490   -1.2293189   -0.8283288  0.00   -0.0008136   -0.0307731    0.0012859
n     4.2587741   -0.6384717    1.5515815  0.00    0.0146949    0.0041460    0.0107821
h     5.6385979    0.3454091    0.2855356  0.00   -0.0000413   -0.0001371    0.0009526
h     3.3716809   -0.1939416    1.9109680  0.00   -0.0145222    0.0073239   -0.0012055
h     4.1088126   -1.6891667    1.5260126  0.00   -0.0010088   -0.0217597   -0.0069348
h    -2.2049456    3.3248397   -0.1939578  0.00   -0.0012426    0.0004704    0.0000709
h    -2.1646452    0.8561682   -0.0806900  0.00   -0.0019965   -0.0007048    0.0001110
h    -0.1009182    4.5824190   -0.3543273  0.00    0.0000620    0.0016083    0.0000402
h     2.0518783    3.3943748   -0.4084500  0.00    0.0012567    0.0015879    0.0000340
h     2.1608246   -1.6038859   -0.1138106  0.00   -0.0044013   -0.0017474    0.0011541
o     5.8960164   -2.0980460   -0.7566297  0.00    0.0031115    0.0123172   -0.0009880
o     3.9854296   -1.2176332   -1.9353248  0.00   -0.0053999    0.0170266    0.0141202
h     3.4289039   -0.3616628   -1.8704791  0.00    0.0790871    0.4973129    0.3947650
    27
 Energy =       0.2941640446
c    -1.2054310    2.8646183   -0.2685700  0.00   -0.0073061    0.0050170    0.0005513
c    -1.2224663    1.4991540   -0.1928678  0.00   -0.0116414   -0.0056652    0.0002597
c    -0.0368451    0.8419104   -0.2055862  0.00   -0.0092373   -0.0201113   -0.0003242
c    -0.0137366    3.5387006   -0.3561781  0.00   -0.0032289    0.0102568    0.0006086
c     1.1725193    2.8515808   -0.3696098  0.00    0.0022729    0.0093732    0.0002331
c     1.1381265    1.4879686   -0.2895694  0.00    0.0070714    0.0066291    0.0003431
n     0.1631791   -0.5539922   -0.1095778  0.00    0.0147648    0.0096645   -0.0009343
c     2.1486242    0.5799514   -0.2598881  0.00    0.0498054   -0.0209045   -0.0367624
c     1.5862465   -0.6510064   -0.1488817  0.00   -0.0020725   -0.0108530   -0.0017580
h    -0.5491295   -1.3138178   -0.0266228  0.00    0.0011071    0.0019433    0.0001212
c     3.6402044    0.8944259   -0.3275220  0.00   -0.0267187   -0.1790313   -0.2275558
c     4.6086403   -0.1802750    0.2302737  0.00   -0.0103957    0.0208555   -0.0177693
h     3.8148491    1.8172793    0.2675339  0.00   -0.0004772   -0.0006467   -0.0012817
h     3.9583743    1.1326156   -1.3499434  0.00   -0.0604221   -0.2204046   -0.0514326
c     4.7697700   -1.3086938   -0.7806795  0.00   -0.0057959   -0.0188714    0.0002722
n     4.2276609   -0.6495323    1.5886785  0.00    0.0113524    0.0036088    0.0094730
h     5.6283305    0.2669960    0.2972431  0.00    0.0004135    0.0001331    0.0006003
h     3.3439352   -0.1926529    1.9359290  0.00   -0.0116615    0.0058685   -0.0007991
h     4.0731618   -1.6975691    1.5945436  0.00   -0.0009005   -0.0179357   -0.0055479
h    -2.1425551    3.4182983   -0.2583763  0.00   -0.0013318    0.0005829    0.0000635
h    -2.1577238    0.9512080   -0.1187058  0.00   -0.0018541   -0.0007316    0.0001118
h    -0.0099329    4.6259659   -0.4160825  0.00    0.0000176    0.0016761    0.0000150
h     2.1150553    3.3889068   -0.4396049  0.00    0.0012811    0.0014553   -0.0000013
h     2.1155997   -1.5995103   -0.0909489  0.00   -0.0032892   -0.0016758    0.0009593
o     5.7767337   -2.2567991   -0.6401127  0.00    0.0092870    0.0030347    0.0002086
o     3.9676289   -1.2881090   -1.9129965  0.00   -0.0045366    0.0130706    0.0107014
h     3.4303949   -0.4195480   -1.8793995  0.00    0.0634966    0.4036615    0.3196445
    27
 Energy =       0.2729546645
c    -1.1330330    2.9646824   -0.3455413  0.00   -0.0062440    0.0041470    0.0004362
c    -1.1943245    1.6020786   -0.2552308  0.00   -0.0093907   -0.0045451    0.0002689
c    -0.0312664    0.9077129   -0.2426824  0.00   -0.0067693   -0.0148878   -0.0002512
c     0.0805593    3.5989499   -0.4223825  0.00   -0.0025660    0.0085373    0.0004185
c     1.2435455    2.8742677   -0.4091531  0.00    0.0024774    0.0072784    0.0001183
c     1.1631819    1.5148378   -0.3144187  0.00    0.0055186    0.0047545    0.0002060
n     0.1212514   -0.4946905   -0.1316325  0.00    0.0102130    0.0064526   -0.0006759
c     2.1431930    0.5790176   -0.2574487  0.00    0.0377212   -0.0155757   -0.0280431
c     1.5436319   -0.6330702   -0.1455950  0.00   -0.0008838   -0.0085301   -0.0012495
h    -0.6157431   -1.2324468   -0.0541580  0.00    0.0001464    0.0007770    0.0001567
c     3.6458414    0.8486786   -0.2993453  0.00   -0.0203383   -0.1361662   -0.1741274
c     4.5714452   -0.2555462    0.2787469  0.00   -0.0076561    0.0153126   -0.0136973
h     3.8394725    1.7684574    0.2955576  0.00   -0.0002746   -0.0002837   -0.0008948
h     3.9850218    1.0723062   -1.3217168  0.00   -0.0459603   -0.1684874   -0.0397837
c     4.7098889   -1.4089803   -0.7090768  0.00   -0.0071948   -0.0101512   -0.0001976
n     4.1673404   -0.6823628    1.6437089  0.00    0.0082372    0.0027140    0.0080049
h     5.6053874    0.1588804    0.3450349  0.00    0.0009062    0.0003286    0.0002307
h     3.2858946   -0.2096843    1.9704335  0.00   -0.0089832    0.0045010   -0.0002583
h     4.0041560   -1.7260531    1.6795294  0.00   -0.0007445   -0.0138797   -0.0041267
h    -2.0524150    3.5481186   -0.3560217  0.00   -0.0017093    0.0008755    0.0000474
h    -2.1475739    1.0844905   -0.1901307  0.00   -0.0019836   -0.0008640    0.0001292
h     0.1200682    4.6850335   -0.4945218  0.00   -0.0000214    0.0019868   -0.0000324
h     2.2042259    3.3800859   -0.4702905  0.00    0.0015716    0.0014406   -0.0000559
h     2.0470360   -1.5949727   -0.0681289  0.00   -0.0021086   -0.0018365    0.0008100
o     5.6513840   -2.4155523   -0.5035577  0.00    0.0117779   -0.0029642    0.0012694
o     3.9481948   -1.3842099   -1.8706503  0.00   -0.0034564    0.0087444    0.0071776
h     3.4348504   -0.5019550   -1.8788493  0.00    0.0477153    0.3103212    0.2441200
    27
 Energy =       0.2584680671
c    -1.0424181    3.0809465   -0.4457586  0.00   -0.0060852    0.0037845    0.0003314
c    -1.1565165    1.7224315   -0.3480870  0.00   -0.0084910   -0.0038704    0.0002838
c    -0.0211448    0.9853488   -0.3035648  0.00   -0.0053525   -0.0115294   -0.0001828
c     0.1959263    3.6687002   -0.4979596  0.00   -0.0020488    0.0079395    0.0002307
c     1.3303413    2.9010834   -0.4512147  0.00    0.0031687    0.0059864    0.0000246
c     1.1960803    1.5469534   -0.3492650  0.00    0.0046956    0.0035975    0.0000864
n     0.0749439   -0.4225362   -0.1812917  0.00    0.0065602    0.0042470   -0.0005295
c     2.1387987    0.5776787   -0.2592407  0.00    0.0294214   -0.0118656   -0.0219492
c     1.4934425   -0.6112475   -0.1562894  0.00    0.0001701   -0.0073665   -0.0008079
h    -0.6908721   -1.1332735   -0.1193855  0.00   -0.0009846   -0.0003993    0.0002069
c     3.6531939    0.7923297   -0.2559195  0.00   -0.0156897   -0.1055152   -0.1366325
c     4.5197473   -0.3446178    0.3551481  0.00   -0.0053681    0.0111451   -0.0112523
h     3.8638893    1.7085081    0.3393264  0.00   -0.0001019   -0.0000156   -0.0006822
h     4.0332234    0.9933539   -1.2724472  0.00   -0.0352399   -0.1320884   -0.0321985
c     4.6431087   -1.5200422   -0.6105540  0.00   -0.0068188   -0.0055071    0.0000568