    13
 Energy =       0.4563701956
c    -3.7133889    1.6950595    0.3173519  0.00   -0.1070629    0.1291723   -0.0286804
c    -2.4962693    2.6345192    0.2419999  0.00    0.3496475   -0.0200111    0.1238373
c    -4.9565486    2.3924193   -0.2155699  0.00    0.7128133    0.7452025   -0.2469927
h    -4.7854386    2.7464192   -1.2386596  0.00    0.8789653    0.8019898    0.4991706
h    -5.2149185    3.2645991    0.3947669  0.00    0.0704562    0.0066501   -0.0618702
h    -5.8205083    1.7195795   -0.2420919  0.00    0.0136783    0.0118928   -0.0051585
n    -3.4097890    0.4519539   -0.4549189  0.00    0.0264021   -0.0731628   -0.0101196
h    -3.8575589    1.4177196    1.3669296  0.00    0.0045011   -0.0125171   -0.0277257
h    -3.2072391   -0.2948399    0.2179739  0.00   -0.0178661    0.0308433   -0.0190697
h    -4.2689788    0.1396900   -0.9176007  0.00    0.0235288    0.0224481    0.0254050
o    -1.4040496    2.4172293    0.7380088  0.00   -0.2627814    0.0522251   -0.1221422
o    -2.7835192    3.7545589   -0.4737969  0.00   -0.1108944   -0.0785965   -0.0007513
h    -3.7512389    3.6942389   -0.6738148  0.00   -1.5813877   -1.6161364   -0.1259024
    13
 Energy =       0.4252151017
c    -3.7123494    1.7136990    0.3315492  0.00   -0.0972321    0.1210381   -0.0249369
c    -2.5036042    2.6605592    0.2274625  0.00    0.3191936   -0.0179859    0.1138162
c    -4.9613604    2.3649968   -0.2715428  0.00    0.6533870    0.6848426   -0.2285410
h    -4.8052881    2.7397378   -1.2907474  0.00    0.8058084    0.7360767    0.4579483
h    -5.2631983    3.2446644    0.3086899  0.00    0.0639940    0.0072838   -0.0565071
h    -5.8069702    1.6664968   -0.3023230  0.00    0.0120153    0.0106302   -0.0046615
n    -3.3809599    0.4262691   -0.3560186  0.00    0.0258346   -0.0683925   -0.0149910
h    -3.8787152    1.5083035    1.3978004  0.00    0.0038965   -0.0115672   -0.0224578
h    -3.2062671   -0.2773743    0.3767271  0.00   -0.0152026    0.0247959   -0.0136980
h    -4.2175022    0.0797392   -0.8406762  0.00    0.0202563    0.0197735    0.0222199
o    -1.3884228    2.4567576    0.7145299  0.00   -0.2397548    0.0479210   -0.1119188
o    -2.7918447    3.7666814   -0.5102172  0.00   -0.1010355   -0.0716389   -0.0008973
h    -3.7529633    3.6826159   -0.7246554  0.00   -1.4511609   -1.4827774   -0.1153749
    13
 Energy =       0.4150935082
c    -3.7117657    1.6920402    0.3138143  0.00   -0.0939957    0.1214466   -0.0224984
c    -2.4906687    2.6192545    0.2237541  0.00    0.3117717   -0.0174035    0.1114757
c    -4.9555152    2.4063199   -0.2092065  0.00    0.6377914    0.6721052   -0.2257540
h    -4.7846748    2.7637076   -1.2266193  0.00    0.7887829    0.7192824    0.4480203
h    -5.2096366    3.2757515    0.4148342  0.00    0.0616183    0.0087197   -0.0542088
h    -5.8264866    1.7377240   -0.2351453  0.00    0.0109829    0.0101005   -0.0045069
n    -3.4311318    0.4388348   -0.4603419  0.00    0.0276194   -0.0685953   -0.0201983
h    -3.8444967    1.4247701    1.3746574  0.00    0.0039049   -0.0114614   -0.0193650
h    -3.2305961   -0.3148844    0.2179739  0.00   -0.0135570    0.0206563   -0.0101593
h    -4.2973310    0.1371595   -0.9278808  0.00    0.0178329    0.0183739    0.0202214
o    -1.3897582    2.3856871    0.7391073  0.00   -0.2337778    0.0465991   -0.1090667
o    -2.7561129    3.7434310   -0.5000439  0.00   -0.0929337   -0.0698774   -0.0007751
h    -3.7412715    3.7233507   -0.6643252  0.00   -1.4260403   -1.4499463   -0.1131848
    13
 Energy =       0.4006279115
c    -3.7056825    1.7110103    0.3290470  0.00   -0.0904327    0.1175343   -0.0200319
c    -2.4727953    2.6161301    0.1517706  0.00    0.2937362   -0.0182213    0.1089876
c    -4.9558226    2.4030227   -0.2311615  0.00    0.6045216    0.6383143   -0.2147199
h    -4.7891077    2.7721493   -1.2526061  0.00    0.7488765    0.6830023    0.4248286
h    -5.2299803    3.2762986    0.3788475  0.00    0.0585087    0.0085577   -0.0513797
h    -5.8203581    1.7249974   -0.2567189  0.00    0.0103195    0.0095393   -0.0041993
n    -3.4500038    0.3998141   -0.3585327  0.00    0.0260654   -0.0674119   -0.0256925
h    -3.8238826    1.5276835    1.4124804  0.00    0.0031247   -0.0111450   -0.0146289
h    -3.2815379   -0.3126733    0.3767271  0.00   -0.0120412    0.0158043   -0.0064583
h    -4.3169285    0.0852898   -0.8179083  0.00    0.0168481    0.0168673    0.0191071
o    -1.3555639    2.4130560    0.6646159  0.00   -0.2206886    0.0441397   -0.1037385
o    -2.7295407    3.6881853   -0.6553633  0.00   -0.0664278   -0.0586807   -0.0060145
h    -3.7382419    3.7281828   -0.6806195  0.00   -1.3724105   -1.3783004   -0.1060598
    13
 Energy =       0.3769534738
c    -3.7118663    1.6893558    0.3109270  0.00   -0.0851653    0.1127442   -0.0178968
c    -2.4831177    2.6060991    0.2037384  0.00    0.2733859   -0.0181768    0.1038967
c    -4.9515915    2.4189151   -0.2018887  0.00    0.5677696    0.6008598   -0.2029410
h    -4.7816541    2.7816731   -1.2161064  0.00    0.7034390    0.6406203    0.3993146
h    -5.1979419    3.2813163    0.4386069  0.00    0.0546149    0.0086336   -0.0476261
h    -5.8291694    1.7559528   -0.2270026  0.00    0.0094369    0.0088788   -0.0038762
n    -3.4586325    0.4255669   -0.4636204  0.00    0.0242889   -0.0644938   -0.0296335
h    -3.8355856    1.4313300    1.3827927  0.00    0.0026931   -0.0109986   -0.0108740
h    -3.2656032   -0.3369109    0.2179739  0.00   -0.0103082    0.0110452   -0.0031221
h    -4.3298372    0.1357978   -0.9348814  0.00    0.0154713    0.0151600    0.0174077
o    -1.3772432    2.3576418    0.7451219  0.00   -0.2052528    0.0405999   -0.0968344
o    -2.7184571    3.7337541   -0.5411505  0.00   -0.0548465   -0.0494701   -0.0077838
h    -3.7287462    3.7526547   -0.6539326  0.00   -1.2955268   -1.2954025   -0.1000309
    13
 Energy =       0.3046868195
c    -3.7208383    1.6642614    0.2924358  0.00   -0.0637533    0.0867264   -0.0130539
c    -2.5022836    2.5898035    0.2659242  0.00    0.1985376   -0.0164759    0.0782440
c    -4.9479711    2.4300014   -0.1816935  0.00    0.4397385    0.4667500   -0.1595800
h    -4.7726169    2.7911132   -1.1844163  0.00    0.5422729    0.4909814    0.3104898
h    -5.1740062    3.2781647    0.4904230  0.00    0.0418321    0.0070503   -0.0356733
h    -5.8376980    1.7777461   -0.2092233  0.00    0.0067950    0.0065208   -0.0027990
n    -3.4689577    0.4592091   -0.5631946  0.00    0.0186815   -0.0476932   -0.0262724
h    -3.8588576    1.3394346    1.3494145  0.00    0.0017577   -0.0088491   -0.0055187
h    -3.2648253   -0.3556009    0.0592208  0.00   -0.0068582    0.0038930    0.0003942
h    -4.3308198    0.1987481   -1.0789425  0.00    0.0100096    0.0098183    0.0111467
o    -1.3910222    2.2723456    0.8462106  0.00   -0.1494802    0.0271765   -0.0699864
o    -2.6994693    3.7912476   -0.3905007  0.00   -0.0250324   -0.0252528   -0.0057318
h    -3.7000799    3.7966723   -0.6350797  0.00   -1.0145007   -1.0006456   -0.0816592
    13
 Energy =       0.1660718510
c    -3.7296661    1.6524963    0.3165952  0.00   -0.0027226    0.0072835   -0.0008115
c    -2.5357060    2.5940885    0.3197813  0.00    0.0029115    0.0007345    0.0040865
c    -4.9692896    2.3988430   -0.2162482  0.00    0.1701000    0.1869817   -0.0704206
h    -4.7729532    2.7764537   -1.2223966  0.00    0.2103522    0.1912294    0.1214690
h    -5.2436685    3.2505842    0.4435305  0.00    0.0139494    0.0047817   -0.0127870
h    -5.8463755    1.7152179   -0.2547119  0.00   -0.0002949   -0.0001975   -0.0001350
n    -3.4538125    0.4675265   -0.5208471  0.00    0.0307745    0.0148466    0.0157587
h    -3.8975763    1.3570597    1.3806423  0.00   -0.0000967   -0.0002003    0.0004397
h    -3.3750795   -0.3872555    0.0948075  0.00    0.0002346   -0.0106147    0.0100682
h    -4.2265595    0.2721211   -1.2376956  0.00   -0.0289044   -0.0050596   -0.0283977
o    -1.3437824    2.2223476    0.9256870  0.00   -0.0030663   -0.0037507   -0.0029539
o    -2.6587721    3.8379872   -0.2960355  0.00    0.0128957    0.0021050    0.0027686
h    -3.6162046    3.8756763   -0.6725305  0.00   -0.4061329   -0.3881397   -0.0390848
    13
 Energy =       0.1359667431
c    -3.7410801    1.6503737    0.3077753  0.00   -0.0039604    0.0059396   -0.0007954
c    -2.5671525    2.6206346    0.3758478  0.00   -0.0021330    0.0019170   -0.0006011
c    -4.9887679    2.3698284   -0.2422262  0.00    0.1106404    0.1215591   -0.0455410
h    -4.7856351    2.7560507   -1.2497746  0.00    0.1378897    0.1255997    0.0790413
h    -5.2837829    3.2176987    0.4141184  0.00    0.0092403    0.0033294   -0.0082773
h    -5.8521673    1.6696675   -0.2922121  0.00   -0.0004215   -0.0002538   -0.0000955
n    -3.4093917    0.4923066   -0.5483969  0.00    0.0198939    0.0099218    0.0069627
h    -3.9361680    1.3240103    1.3588943  0.00   -0.0005809    0.0000668    0.0012723
h    -3.2549857   -0.3606545    0.0538985  0.00    0.0005181   -0.0103193    0.0079734
h    -4.1852602    0.2530685   -1.2342774  0.00   -0.0182106   -0.0024547   -0.0178518
o    -1.4148887    2.2868104    1.0844402  0.00    0.0053132   -0.0037163    0.0025477
o    -2.6615838    3.8545537   -0.2666157  0.00    0.0092503    0.0014550    0.0019273
h    -3.5885821    3.8987980   -0.7008934  0.00   -0.2674394   -0.2530440   -0.0265627
    13
 Energy =       0.1165624720
c    -3.7519416    1.6512624    0.2984050  0.00   -0.0043932    0.0046724   -0.0007894
c    -2.5991746    2.6457840    0.4158951  0.00   -0.0021386    0.0018637   -0.0012492
c    -5.0084004    2.3440098   -0.2631771  0.00    0.0731910    0.0802922   -0.0298469
h    -4.8001465    2.7351424   -1.2720018  0.00    0.0924344    0.0840762    0.0524952
h    -5.3230881    3.1875808    0.3900557  0.00    0.0061772    0.0023852   -0.0053921
h    -5.8583747    1.6283798   -0.3216220  0.00   -0.0004598   -0.0002799   -0.0000681
n    -3.3745247    0.5196292   -0.5735099  0.00    0.0172868    0.0153543    0.0018858
h    -3.9643404    1.2966595    1.3371154  0.00   -0.0008653    0.0002529    0.0015197
h    -3.0962325   -0.3114664    0.0226387  0.00    0.0034170   -0.0163938    0.0114827
h    -4.1771278    0.2025563   -1.1921030  0.00   -0.0179703   -0.0024517   -0.0159937
o    -1.4794383    2.3330490    1.1843182  0.00    0.0058569   -0.0027126    0.0030741
o    -2.6701099    3.8755356   -0.2391542  0.00    0.0075395    0.0008641    0.0018784
h    -3.5665463    3.9250240   -0.7262818  0.00   -0.1800757   -0.1679230   -0.0189965
    13
 Energy =       0.1010325612
c    -3.7620861    1.6547313    0.2903714  0.00   -0.0043999    0.0034938   -0.0004841
c    -2.6387759    2.6795062    0.4576570  0.00   -0.0020913    0.0018278   -0.0017880
c    -5.0303170    2.3075522   -0.2903065  0.00    0.0437358    0.0480592   -0.0177158
h    -4.8162731    2.6980963   -1.3021001  0.00    0.0572511    0.0517237    0.0318193
h    -5.3742896    3.1474739    0.3536543  0.00    0.0036565    0.0018198   -0.0030133
h    -5.8601550    1.5692008   -0.3564007  0.00   -0.0006458   -0.0003973   -0.0000906
n    -3.3305506    0.5492523   -0.5889728  0.00    0.0150841    0.0175290   -0.0006805
h    -3.9902125    1.2744946    1.3165287  0.00   -0.0010221    0.0003388    0.0014320
h    -2.9374794   -0.2404516    0.0009022  0.00    0.0054673   -0.0178249    0.0119379
h    -4.1426212    0.1427187   -1.1369692  0.00   -0.0174688   -0.0035440   -0.0136988
o    -1.5580676    2.3940802    1.2904976  0.00    0.0062891   -0.0019943    0.0036981
o    -2.6854837    3.9030256   -0.2131937  0.00    0.0066497    0.0003536    0.0022804
h    -3.5431341    3.9534661   -0.7610900  0.00   -0.1125056   -0.1013851   -0.0136964
    13
 Energy =       0.0975488055
c    -3.7421140    1.6370708    0.2649474  0.00   -0.0031888    0.0047747    0.0012062
c    -2.6380567    2.6783433    0.4587336  0.00   -0.0017404    0.0004073   -0.0011340
c    -5.0501273    2.2897112   -0.2287964  0.00    0.0359213    0.0405312   -0.0140262
h    -4.8988642    2.7491080   -1.2278024  0.00    0.0494240    0.0463918    0.0236978
h    -5.3870743    3.0831658    0.4790598  0.00    0.0018690    0.0036521   -0.0008452
h    -5.8635686    1.5335878   -0.3001614  0.00   -0.0008445   -0.0005563    0.0002002
n    -3.3130821    0.5937003   -0.6926031  0.00    0.0140538    0.0137306   -0.0059681
h    -3.9250913    1.1902227    1.2763834  0.00   -0.0014788   -0.0009146    0.0042254
h    -2.8779492   -0.2136781   -0.1578509  0.00    0.0063427   -0.0184491    0.0122025
h    -4.1330675    0.1918481   -1.2286068  0.00   -0.0148936   -0.0033879   -0.0119982
o    -1.5408518    2.3788269    1.2643295  0.00    0.0057584   -0.0022925    0.0036912
o    -2.7176576    3.9305090   -0.1567461  0.00    0.0055334    0.0028881    0.0007085
h    -3.5819413    3.9907308   -0.6903085  0.00   -0.0967566   -0.0867754   -0.0119601
    13
 Energy =       0.0888442093
c    -3.7458343    1.6410847    0.2571376  0.00   -0.0036202    0.0029044    0.0008231
c    -2.6817171    2.7182255    0.4937045  0.00   -0.0012638    0.0013553   -0.0014730
c    -5.0735893    2.2405644   -0.2452707  0.00    0.0206177    0.0238017   -0.0080974
h    -4.9278751    2.6935596   -1.2482723  0.00    0.0302529    0.0275365    0.0143273
h    -5.4421970    3.0262579    0.4540179  0.00    0.0009983    0.0023336   -0.0003313
h    -5.8585961    1.4548298   -0.3184971  0.00   -0.0010432   -0.0007929    0.0000109
n    -3.2654157    0.6345225   -0.7120296  0.00    0.0121967    0.0179421   -0.0051641
h    -3.9271596    1.1656337    1.2540605  0.00   -0.0013546   -0.0004700    0.0026458
h    -2.7191961   -0.1155898   -0.1949388  0.00    0.0087743   -0.0187598    0.0117007
h    -4.0755443    0.1379979   -1.1803729  0.00   -0.0162916   -0.0052410   -0.0106154
o    -1.6156485    2.4487660    1.3493043  0.00    0.0051533   -0.0013696    0.0032555
o    -2.7545523    3.9663271   -0.1308802  0.00    0.0052701    0.0012299    0.0018318
h    -3.5821204    4.0209674   -0.7173850  0.00   -0.0596899   -0.0504703   -0.0089140
    13
 Energy =       0.0836398521
c    -3.7368399    1.6432559    0.2470520  0.00   -0.0039796    0.0016222    0.0010401
c    -2.7324262    2.7715231    0.5215238  0.00   -0.0007026    0.0022245   -0.0017471
c    -5.0989612    2.1698762   -0.2456405  0.00    0.0111569    0.0147221   -0.0043706
h    -4.9848791    2.6244018   -1.2529507  0.00    0.0183621    0.0165782    0.0081427
h    -5.5040759    2.9370151    0.4537415  0.00    0.0001858    0.0018704    0.0000456
h    -5.8412710    1.3417809   -0.3120233  0.00   -0.0017715   -0.0016392   -0.0000177
n    -3.1982795    0.6887749   -0.7433128  0.00    0.0100783    0.0162393   -0.0055165
h    -3.8947121    1.1310399    1.2294262  0.00   -0.0014832   -0.0008252    0.0021645
h    -2.5604430   -0.0019512   -0.2515852  0.00    0.0094861   -0.0167812    0.0097554
h    -3.9766733    0.1115247   -1.1671787  0.00   -0.0142357   -0.0056803   -0.0081121
o    -1.6884203    2.5458019    1.4154918  0.00    0.0046689   -0.0005575    0.0029347
o    -2.8280178    4.0181440   -0.1036032  0.00    0.0049375    0.0011016    0.0021724
h    -3.6244465    4.0519595   -0.7303626  0.00   -0.0367029   -0.0288750   -0.0064914
    13
 Energy =       0.0811047423
c    -3.7147845    1.6493069    0.2411109  0.00   -0.0034224   -0.0004122    0.0017102
c    -2.7902764    2.8449602    0.5284808  0.00   -0.0001661    0.0020853   -0.0016135
c    -5.1194480    2.0746777   -0.2363963  0.00    0.0050401    0.0112031   -0.0023982
h    -5.0526924    2.5195502   -1.2533631  0.00    0.0117038    0.0109814    0.0041960
h    -5.5669951    2.8224025    0.4585988  0.00   -0.0005391    0.0019832    0.0003556
h    -5.8041191    1.1944833   -0.2808567  0.00   -0.0030799   -0.0033057   -0.0000511
n    -3.1147582    0.7467296   -0.7627508  0.00    0.0091832    0.0153175   -0.0054757
h    -3.8282476    1.1130522    1.2171058  0.00   -0.0014616   -0.0016486    0.0020948
h    -2.4016899    0.1211683   -0.2891143  0.00    0.0103315   -0.0153616    0.0084706
h    -3.8476015    0.0955636   -1.1585087  0.00   -0.0130480   -0.0069330   -0.0070159
o    -1.7486762    2.6856051    1.4399853  0.00    0.0051121   -0.0001889    0.0034614
o    -2.9501027    4.0860345   -0.0985359  0.00    0.0047726    0.0035194    0.0015103
h    -3.7300542    4.0796124   -0.7451776  0.00   -0.0244261   -0.0172400   -0.0052443
    13
 Energy =       0.0814540060
c    -3.6806548    1.6632258    0.2476639  0.00   -0.0022359   -0.0030895    0.0013957
c    -2.8188865    2.9216562    0.4746237  0.00   -0.0006399    0.0004777   -0.0017109
c    -5.1239772    1.9915840   -0.1989481  0.00    0.0023391    0.0120878   -0.0021702
h    -5.1106806    2.4081163   -1.2311132  0.00    0.0105179    0.0109710    0.0022025
h    -5.5939035    2.7345057    0.4867290  0.00   -0.0007667    0.0022374    0.0004078
h    -5.7594586    1.0710016   -0.1970373  0.00   -0.0047514   -0.0055303   -0.0000274
n    -3.0557397    0.7672940   -0.7478666  0.00    0.0090530    0.0149019   -0.0053374
h    -3.7343427    1.1486156    1.2423137  0.00   -0.0012172   -0.0031426    0.0036049
h    -2.3263610    0.1652245   -0.2693626  0.00    0.0103118   -0.0150455    0.0083400
h    -3.7684041    0.0929787   -1.1415990  0.00   -0.0128065   -0.0072742   -0.0070222
o    -1.7351041    2.8443582    1.3521090  0.00    0.0095626   -0.0006161    0.0071203
o    -3.0784544    4.1418403   -0.1700456  0.00    0.0061568    0.0093399    0.0005196
h    -3.8834787    4.0827457   -0.7868887  0.00   -0.0255236   -0.0153174   -0.0073226
    13
 Energy =       0.0796959857
c    -3.7167659    1.6461953    0.2301127  0.00   -0.0027910   -0.0041566   -0.0002149
c    -2.8329735    2.8662815    0.5765543  0.00   -0.0009497   -0.0008632   -0.0017304
c    -5.1274272    2.0266360   -0.2799495  0.00   -0.0002451    0.0077687   -0.0018188
h    -5.0563927    2.4782383   -1.2982354  0.00    0.0071166    0.0083954   -0.0010607
h    -5.6154615    2.7533417    0.4096255  0.00   -0.0006622    0.0015748    0.0006988
h    -5.7818516    1.1217898   -0.3421225  0.00   -0.0047903   -0.0053569   -0.0000394
n    -3.0648223    0.7900949   -0.7799098  0.00    0.0059812    0.0129498   -0.0058272
h    -3.8346444    1.0785173    1.1924051  0.00   -0.0014234   -0.0039277    0.0058495
h    -2.2915033    0.2346070   -0.3180198  0.00    0.0094226   -0.0121377    0.0068989
h    -3.7493366    0.0747201   -1.1457132  0.00   -0.0106008   -0.0064021   -0.0053430
o    -1.7987291    2.7058262    1.5042723  0.00    0.0122022   -0.0005362    0.0095606
o    -3.0164736    4.1292833   -0.0112924  0.00    0.0080446    0.0128115    0.0012461
h    -3.7830643    4.1276153   -0.6771490  0.00   -0.0213048   -0.0101198   -0.0082197
    13
 Energy =       0.0795731448
c    -3.7256843    1.6410217    0.2162653  0.00   -0.0030036   -0.0037832    0.0020099
c    -2.8839276    2.8675896    0.6443321  0.00    0.0010279   -0.0033237    0.0006394
c    -5.1126498    1.9980038   -0.3719732  0.00   -0.0015707    0.0046376   -0.0020392
h    -4.9872064    2.4701997   -1.3777095  0.00    0.0059176    0.0064773   -0.0030695
h    -5.6617985    2.6969315    0.3029890  0.00   -0.0016859    0.0024397    0.0022740
h    -5.7406513    1.0796982   -0.4923695  0.00   -0.0055185   -0.0056571   -0.0004079
n    -2.9992671    0.8178510   -0.7721030  0.00    0.0072426    0.0116741   -0.0073741
h    -3.8877975    1.0516883    1.1588379  0.00   -0.0017719   -0.0033125    0.0062527
h    -2.2108933    0.3054973   -0.2877965  0.00    0.0093010   -0.0110098    0.0061509
h    -3.6362202    0.0663012   -1.1515366  0.00   -0.0102956   -0.0073914   -0.0054877
o    -1.8536914    2.6789702    1.5690721  0.00    0.0102345   -0.0005181    0.0080174
o    -3.1000986    4.1640192    0.1409662  0.00    0.0071228    0.0161017   -0.0000844
h    -3.8695600    4.1953749   -0.5183959  0.00   -0.0170002   -0.0063347   -0.0068814
    13
 Energy =       0.0783969241
c    -3.7248163    1.6410358    0.2214130  0.00   -0.0016690   -0.0026694    0.0039371
c    -2.8548871    2.8555094    0.6184646  0.00    0.0016120   -0.0067521    0.0027726
c    -5.1406770    2.0171967   -0.2844100  0.00   -0.0029560    0.0029912   -0.0016073
h    -5.0766637    2.4666684   -1.3064930  0.00    0.0046980    0.0050982   -0.0049875
h    -5.6310306    2.7415345    0.4113417  0.00   -0.0022647    0.0033439    0.0035627
h    -5.7925386    1.1092786   -0.3493744  0.00   -0.0061543   -0.0059396   -0.0007174
n    -3.0570010    0.8257509   -0.8146263  0.00    0.0070336    0.0098391   -0.0093608
h    -3.8414588    1.0419591    1.1646909  0.00   -0.0015853   -0.0029256    0.0064890
h    -2.2439748    0.3096443   -0.3774184  0.00    0.0096897   -0.0102135    0.0063035
h    -3.7154027    0.0790233   -1.1644044  0.00   -0.0094727   -0.0069605   -0.0051427
o    -1.8608218    2.6758177    1.5835318  0.00    0.0097360   -0.0018016    0.0079832
o    -3.0032622    4.1295484    0.0350117  0.00    0.0075192    0.0189503   -0.0004323
h    -3.7269112    4.1401795   -0.6771490  0.00   -0.0161865   -0.0029602   -0.0088001
    13
 Energy =       0.0767364459
c    -3.7291982    1.6383163    0.2191342  0.00   -0.0004456   -0.0006117    0.0046961
c    -2.8391858    2.8339743    0.6103475  0.00    0.0004303   -0.0075449    0.0032903
c    -5.1645477    2.0390015   -0.2027112  0.00   -0.0036695    0.0013826   -0.0009437
h    -5.1613767    2.4939125   -1.2226786  0.00    0.0021248    0.0028308   -0.0047495
h    -5.6053558    2.7643216    0.5237809  0.00   -0.0020427    0.0030544    0.0032229
h    -5.8275862    1.1409034   -0.2380279  0.00   -0.0042727   -0.0038336   -0.0007039
n    -3.1180688    0.8535809   -0.8726940  0.00    0.0042170    0.0068273   -0.0103343
h    -3.8030928    1.0110099    1.1468682  0.00   -0.0009200   -0.0021403    0.0053527
h    -2.2627831    0.3571583   -0.4994015  0.00    0.0097907   -0.0083189    0.0059855
h    -3.7805957    0.0943139   -1.1791575  0.00   -0.0072172   -0.0050028   -0.0035370
o    -1.9016057    2.6617760    1.6307354  0.00    0.0082958   -0.0030275    0.0074374
o    -2.9078912    4.0792814   -0.0417013  0.00    0.0069086    0.0163822    0.0005083
h    -3.5681580    4.0655966   -0.8139158  0.00   -0.0131994    0.0000025   -0.0102248
    13
 Energy =       0.0751894506
c    -3.7340163    1.6331531    0.2135151  0.00   -0.0000076    0.0011048    0.0049412
c    -2.8300083    2.8119494    0.6068160  0.00   -0.0017017   -0.0065367    0.0022581
c    -5.1837586    2.0568654   -0.1188839  0.00   -0.0034694   -0.0001016   -0.0004326
h    -5.2358602    2.5516330   -1.1177386  0.00    0.0000130    0.0016837   -0.0043078
h    -5.5833602    2.7558000    0.6551339  0.00   -0.0018778    0.0028700    0.0028240
h    -5.8492391    1.1641970   -0.1536013  0.00   -0.0019764   -0.0017572   -0.0004109
n    -3.1821449    0.8955448   -0.9398947  0.00    0.0007804    0.0045280   -0.0109869
h    -3.7629953    0.9672985    1.1154804  0.00   -0.0003615   -0.0018025    0.0043419
h    -2.2818531    0.4272499   -0.6452969  0.00    0.0103556   -0.0069601    0.0051834
h    -3.8377162    0.1173395   -1.2044170  0.00   -0.0049905   -0.0031209   -0.0017763
o    -1.9653143    2.6601403    1.6925976  0.00    0.0074461   -0.0038864    0.0078886
o    -2.8137743    4.0192568   -0.1110209  0.00    0.0048786    0.0127103   -0.0000109
h    -3.4094049    3.9727190   -0.9321114  0.00   -0.0090889    0.0012686   -0.0095119
    13
 Energy =       0.0738616378
c    -3.7380155    1.6270713    0.2067711  0.00   -0.0000347    0.0016098    0.0048599
c    -2.8242892    2.7938214    0.6014047  0.00   -0.0038985   -0.0048743   -0.0002384
c    -5.1980821    2.0675273   -0.0318058  0.00   -0.0018609   -0.0019095    0.0001092
h    -5.2940389    2.6396364   -0.9864685  0.00   -0.0011776    0.0024686   -0.0051460
h    -5.5657894    2.7063110    0.8087539  0.00   -0.0021742    0.0035920    0.0037336
h    -5.8603218    1.1760932   -0.1039901  0.00   -0.0005709   -0.0014142   -0.0001154
n    -3.2493674    0.9462095   -1.0075273  0.00   -0.0018253    0.0029483   -0.0103068
h    -3.7193938    0.9201417    1.0763524  0.00   -0.0000633   -0.0017629    0.0034463
h    -2.3103823    0.5102757   -0.8001139  0.00    0.0099518   -0.0056321    0.0036217
h    -3.8904356    0.1476638   -1.2386907  0.00   -0.0029305   -0.0016602   -0.0004440
o    -2.0507845    2.6830505    1.7595201  0.00    0.0072577   -0.0043132    0.0098536
o    -2.7178934    3.9518484   -0.1824637  0.00    0.0027175    0.0097166   -0.0016476
h    -3.2506518    3.8634964   -1.0411639  0.00   -0.0053910    0.0012311   -0.0077262
    13
 Energy =       0.0728036681
c    -3.7417666    1.6223005    0.1997216  0.00   -0.0000549    0.0005034    0.0039072
c    -2.8161033    2.7803704    0.5851411  0.00   -0.0042057   -0.0029367   -0.0029713
c    -5.2067166    2.0742156    0.0575914  0.00    0.0001580   -0.0026739    0.0002030
h    -5.3333688    2.7377205   -0.8327721  0.00   -0.0010925    0.0033035   -0.0047988
h    -5.5421313    2.6306153    0.9675070  0.00   -0.0019180    0.0033701    0.0041673
h    -5.8702204    1.1904113   -0.0739367  0.00   -0.0002216   -0.0018831   -0.0001713
n    -3.3260544    0.9935337   -1.0665691  0.00   -0.0029454    0.0025561   -0.0066263
h    -3.6739789    0.8814928    1.0360070  0.00    0.0000509   -0.0011236    0.0018420
h    -2.3554646    0.5992819   -0.9526431  0.00    0.0075584   -0.0034889    0.0016659
h    -3.9469646    0.1712047   -1.2630691  0.00   -0.0016070   -0.0009393    0.0002126
o    -2.1490124    2.7352134    1.8111818  0.00    0.0054990   -0.0035174    0.0101843
o    -2.6138082    3.8752841   -0.2633415  0.00    0.0005383    0.0064893   -0.0039859
h    -3.0938558    3.7415024   -1.1442400  0.00   -0.0017594    0.0003405   -0.0036285
    13
 Energy =       0.0723038452
c    -3.7425715    1.6200141    0.1897171  0.00    0.0002947   -0.0002278    0.0013938
c    -2.8000214    2.7710286    0.5560294  0.00   -0.0006927   -0.0005973   -0.0017842
c    -5.2084409    2.0776595    0.1461043  0.00   -0.0005825   -0.0004199   -0.0003324
h    -5.3631305    2.8141840   -0.6740189  0.00    0.0000200    0.0004531   -0.0005972
h    -5.5014303    2.5519189    1.1103123  0.00   -0.0003420    0.0005331    0.0008480
h    -5.8826087    1.2124579   -0.0329669  0.00    0.0000418   -0.0000585   -0.0000525
n    -3.4079944    1.0287528   -1.1157043  0.00   -0.0010884    0.0005027   -0.0013564
h    -3.6255790    0.8557025    0.9965496  0.00    0.0001029   -0.0001010    0.0003056
h    -2.4196198    0.6754651   -1.0936111  0.00    0.0017509   -0.0004562    0.0000499
h    -4.0099714    0.1861807   -1.2786894  0.00   -0.0003004   -0.0002143    0.0000341
o    -2.2372026    2.8067125    1.8279482  0.00    0.0008084   -0.0006982    0.0028517
o    -2.5068754    3.7974091   -0.3430709  0.00   -0.0006371    0.0016009   -0.0029747
h    -2.9640000    3.6356609   -1.2280210  0.00    0.0006244   -0.0003164    0.0016143
    13
 Energy =       0.0722925781
c    -3.7417077    1.6202927    0.1878254  0.00    0.0000089    0.0000052    0.0000067
c    -2.8000129    2.7717157    0.5549318  0.00   -0.0000144   -0.0000105   -0.0000111
c    -5.2079838    2.0745360    0.1520362  0.00   -0.0000061   -0.0000198    0.0000019
h    -5.3675149    2.8156240   -0.6621521  0.00   -0.0000012    0.0000225   -0.0000304
h    -5.4979421    2.5414236    1.1196603  0.00   -0.0000148    0.0000202    0.0000255
h    -5.8812592    1.2091706   -0.0294791  0.00   -0.0000000   -0.0000049    0.0000012
n    -3.4111099    1.0332307   -1.1197470  0.00    0.0000029   -0.0000051   -0.0000223
h    -3.6204329    0.8536874    0.9915016  0.00    0.0000001   -0.0000102    0.0000130
h    -2.4239756    0.6794209   -1.1013380  0.00    0.0000105   -0.0000039    0.0000052
h    -4.0133926    0.1914090   -1.2842447  0.00    0.0000004   -0.0000037   -0.0000018
o    -2.2432602    2.8122815    1.8275516  0.00    0.0000241   -0.0000130    0.0000285
o    -2.5012223    3.7942811   -0.3449552  0.00   -0.0000026    0.0000252   -0.0000087
h    -2.9596319    3.6360733   -1.2310125  0.00   -0.0000079   -0.0000021   -0.0000077
    13
 Energy =       0.0722925300
c    -3.7417317    1.6203577    0.1877631  0.00   -0.0000001    0.0000000    0.0000000
c    -2.8002245    2.7719266    0.5549126  0.00   -0.0000010   -0.0000008   -0.0000015
c    -5.2080812    2.0743029    0.1525154  0.00    0.0000001   -0.0000001   -0.0000000
h    -5.3678574    2.8159774   -0.6610482  0.00    0.0000000    0.0000003   -0.0000003
h    -5.4979447    2.5403741    1.1205257  0.00   -0.0000001    0.0000002    0.0000003
h    -5.8812350    1.2089622   -0.0295449  0.00   -0.0000000   -0.0000002   -0.0000000
n    -3.4114147    1.0336444   -1.1200289  0.00   -0.0000000    0.0000001   -0.0000001
h    -3.6200503    0.8536060    0.9912160  0.00   -0.0000000   -0.0000001    0.0000001
h    -2.4242035    0.6800494   -1.1020232  0.00    0.0000002   -0.0000001   -0.0000000
h    -4.0135703    0.1917316   -1.2845192  0.00   -0.0000000   -0.0000000    0.0000000
o    -2.2453384    2.8137832    1.8282847  0.00    0.0000012   -0.0000004    0.0000034
o    -2.5000366    3.7935407   -0.3455730  0.00    0.0000001    0.0000011   -0.0000012
h    -2.9577574    3.6348903   -1.2319019  0.00   -0.0000003   -0.0000000   -0.0000006
    13
 Energy =       0.0722925300
c    -3.7417319    1.6203582    0.1877627  0.00   -0.0000000    0.0000000    0.0000000
c    -2.8002252    2.7719276    0.5549123  0.00   -0.0000000   -0.0000000   -0.0000000
c    -5.2080817    2.0743019    0.1525168  0.00   -0.0000000   -0.0000000   -0.0000000
h    -5.3678593    2.8159775   -0.6610451  0.00    0.0000000    0.0000000   -0.0000000
h    -5.4979445    2.5403710    1.1205279  0.00   -0.0000000    0.0000000   -0.0000000
h    -5.8812349    1.2089612   -0.0295443  0.00   -0.0000000   -0.0000000   -0.0000000
n    -3.4114158    1.0336456   -1.1200298  0.00    0.0000000   -0.0000000    0.0000000
h    -3.6200490    0.8536062    0.9912150  0.00   -0.0000000   -0.0000000    0.0000000
h    -2.4242045    0.6800509   -1.1020251  0.00    0.0000000   -0.0000000    0.0000000