    27
 Energy =       0.2992717858
c    -1.4235396    2.6054793   -0.0667700  0.00   -0.0463434    0.0383427    0.0028431
c    -1.3072796    1.2134697   -0.1072300  0.00   -0.0852200   -0.0325842    0.0020856
c    -0.0178900    0.6711998   -0.1697000  0.00   -0.0885579   -0.1880228   -0.0011373
c    -0.2940599    3.4190890   -0.0891300  0.00   -0.0233581    0.0691747    0.0031534
c     0.9872197    2.8590292   -0.1560400  0.00    0.0289565    0.0656797   -0.0124953
c     1.1340797    1.4562096   -0.1970299  0.00    0.0553532    0.0533566    0.0000252
n     0.3879399   -0.6395298   -0.2140799  0.00    0.1425117    0.1093210   -0.0028337
c     2.2666594    0.5727398   -0.2659299  0.00    0.1496517   -0.0822511    0.0089454
c     1.7555995   -0.7123598   -0.2706899  0.00   -0.1008592   -0.0974253    0.0043379
h    -0.2400399   -1.4313496   -0.2047299  0.00    0.0366556    0.0477375   -0.0006468
c     3.7030089    1.0223397   -0.3320099  0.00    0.0100225    0.0169484   -0.0194444
c     4.2197688    1.4064496   -1.7267995  0.00   -0.0389995   -0.1240575   -0.0029681
h     4.3261788    0.2093419    0.0639454  0.00   -0.0070001    0.0137004   -0.0076350
h     3.8370289    1.8640295    0.3610799  0.00   -0.0059748   -0.0131714   -0.0078737
c     5.7571784    1.4848496   -1.6848495  0.00    0.2639092    0.2457471    0.1831548
n     3.7117889    2.7395892   -2.2095194  0.00   -0.0157695    0.0708784   -0.0558415
h     3.9553389    0.6476998   -2.4727493  0.00    0.0038197    0.0311443    0.0013594
h     3.2576891    2.5785993   -3.1144991  0.00    0.0135715   -0.0054166    0.0366248
h     2.9401792    3.0192391   -1.5936595  0.00   -0.0463744   -0.0034308    0.0681623
h    -2.4108593    3.0588691   -0.0157800  0.00   -0.0008215    0.0002313    0.0000089
h    -2.1896094    0.5822398   -0.0890100  0.00   -0.0036219    0.0037406    0.0000385
h    -0.4052699    4.5000487   -0.0535400  0.00    0.0007429    0.0000826    0.0002319
h     1.8590495    3.5066790   -0.1715100  0.00    0.0505145   -0.0206384   -0.0677571
h     2.2327294   -1.6813195   -0.3062999  0.00   -0.0411445   -0.0110531    0.0024733
o     6.4098682    2.2779294   -1.0268797  0.00   -0.1621130   -0.1931644   -0.1547393
o     6.3196482    0.5407488   -2.4866393  0.00   -0.0537978    0.0083106    0.0038770
h     6.8714880    1.0507497   -3.1346991  0.00   -0.0357532   -0.0031806    0.0160505
    27
 Energy =       0.2623160414
c    -1.4220670    2.6047957   -0.1127441  0.00   -0.0352470    0.0293977    0.0022558
c    -1.2969593    1.2208723   -0.1386869  0.00   -0.0652676   -0.0249449    0.0016206
c    -0.0161006    0.6887275   -0.1927217  0.00   -0.0681757   -0.1436304   -0.0012694
c    -0.3012476    3.4204703   -0.1426561  0.00   -0.0178473    0.0529527    0.0026296
c     0.9738469    2.8676246   -0.1994315  0.00    0.0232906    0.0503877   -0.0098880
c     1.1155481    1.4782293   -0.2184643  0.00    0.0415239    0.0416013    0.0001493
n     0.3882953   -0.6363728   -0.2058930  0.00    0.1080679    0.0831909   -0.0020796
c     2.2455477    0.6294297   -0.2521402  0.00    0.1150703   -0.0630017    0.0057006
c     1.7731320   -0.6594953   -0.2429571  0.00   -0.0778865   -0.0730825    0.0030980
h    -0.2267671   -1.4487529   -0.1921501  0.00    0.0280425    0.0361303   -0.0003885
c     3.6770955    1.0991141   -0.2784112  0.00    0.0042198    0.0120228   -0.0155029
c     4.2245893    1.3727428   -1.6923471  0.00   -0.0278556   -0.0972776   -0.0033427
h     4.3002021    0.3322861    0.2226985  0.00   -0.0021229    0.0063393   -0.0022445
h     3.7703535    2.0099910    0.3438791  0.00   -0.0051455   -0.0054108   -0.0027968
c     5.7570254    1.4127381   -1.6466564  0.00    0.2029446    0.1898530    0.1388416
n     3.7361810    2.6771064   -2.2598165  0.00   -0.0085423    0.0580844   -0.0458622
h     3.9507910    0.5542987   -2.3791074  0.00    0.0027408    0.0210133   -0.0004549
h     3.2946439    2.4663730   -3.1683890  0.00    0.0098390   -0.0049121    0.0258842
h     2.9661766    3.0399868   -1.6699373  0.00   -0.0419376    0.0008522    0.0580526
h    -2.4120123    3.0529280   -0.0681504  0.00   -0.0006544    0.0002191    0.0000141
h    -2.1733447    0.5817941   -0.1125576  0.00   -0.0028255    0.0028164    0.0000504
h    -0.4177304    4.5014288   -0.1220588  0.00    0.0005613    0.0001920    0.0001962
h     1.8463646    3.5124720   -0.2269497  0.00    0.0402409   -0.0168906   -0.0539074
h     2.3093803   -1.6001680   -0.2405202  0.00   -0.0300485   -0.0103698    0.0019349
o     6.4291562    2.2280442   -0.9625280  0.00   -0.1241897   -0.1484152   -0.1188763
o     6.3448339    0.4536116   -2.4212006  0.00   -0.0467747   -0.0027855    0.0126712
h     6.8069592    0.9617838   -3.1548507  0.00   -0.0220208    0.0056680    0.0035140
    27
 Energy =       0.2494425700
c    -1.3967954    2.6752681   -0.1285427  0.00   -0.0302361    0.0250605    0.0019555
c    -1.2890801    1.2938882   -0.1496130  0.00   -0.0558823   -0.0214559    0.0014019
c    -0.0210599    0.7463813   -0.1963609  0.00   -0.0579437   -0.1225690   -0.0009651
c    -0.2669957    3.4740530   -0.1602290  0.00   -0.0153601    0.0453405    0.0022975
c     0.9974187    2.9049312   -0.2107518  0.00    0.0198385    0.0432691   -0.0083575
c     1.1146229    1.5179409   -0.2187602  0.00    0.0353809    0.0355185    0.0001408
n     0.3541716   -0.5915522   -0.2134031  0.00    0.0922310    0.0708607   -0.0020351
c     2.2264177    0.6611866   -0.2411073  0.00    0.0983138   -0.0539411    0.0049801
c     1.7461486   -0.6207621   -0.2330386  0.00   -0.0662981   -0.0625609    0.0027774
h    -0.2763636   -1.3972589   -0.2087767  0.00    0.0237342    0.0306919   -0.0003948
c     3.6660155    1.1025286   -0.2602568  0.00    0.0030057    0.0100223   -0.0127428
c     4.2275272    1.3132474   -1.6809621  0.00   -0.0229929   -0.0837144   -0.0029862
h     4.2683018    0.3388609    0.2739045  0.00   -0.0015410    0.0048055   -0.0015250
h     3.7741511    2.0338342    0.3314280  0.00   -0.0045073   -0.0039577   -0.0019744
c     5.7575795    1.3300351   -1.6262019  0.00    0.1723438    0.1644640    0.1188642
n     3.7480884    2.5951562   -2.2983930  0.00   -0.0057056    0.0515353   -0.0395498
h     3.9492044    0.4643371   -2.3320853  0.00    0.0023404    0.0170575   -0.0009489
h     3.2811131    2.3481550   -3.1890163  0.00    0.0076757   -0.0049529    0.0204752
h     2.9949659    3.0032363   -1.7108403  0.00   -0.0375568    0.0012939    0.0514245
h    -2.3810547    3.1364132   -0.0898030  0.00   -0.0006758    0.0002317    0.0000190
h    -2.1730462    0.6650597   -0.1265940  0.00   -0.0024833    0.0023363    0.0000429
h    -0.3691758    4.5567377   -0.1486440  0.00    0.0004500    0.0003153    0.0001719
h     1.8813728    3.5378099   -0.2505036  0.00    0.0350920   -0.0141213   -0.0466196
h     2.2883127   -1.5587362   -0.2243986  0.00   -0.0256401   -0.0088487    0.0016875
o     6.4392464    2.1529936   -0.9263209  0.00   -0.1057564   -0.1271179   -0.1017669
o     6.3559255    0.3352843   -2.3537387  0.00   -0.0428936   -0.0102010    0.0181362
h     6.7468811    0.8030307   -3.1617393  0.00   -0.0149329    0.0106380   -0.0045083
    27
 Energy =       0.2336620038
c    -1.3858078    2.6996776   -0.1600794  0.00   -0.0217618    0.0180955    0.0014893
c    -1.2791333    1.3244253   -0.1699696  0.00   -0.0403895   -0.0155327    0.0010458
c    -0.0208601    0.7770280   -0.2080846  0.00   -0.0418299   -0.0885446   -0.0009309
c    -0.2575816    3.4925686   -0.1937177  0.00   -0.0111873    0.0327495    0.0017821
c     0.9989733    2.9213064   -0.2336827  0.00    0.0147482    0.0313675   -0.0062459
c     1.1054097    1.5432463   -0.2300394  0.00    0.0253221    0.0258908    0.0001075
n     0.3408452   -0.5735613   -0.2066915  0.00    0.0664874    0.0509532   -0.0013462
c     2.2078175    0.7021354   -0.2346442  0.00    0.0712142   -0.0389953    0.0034260
c     1.7441821   -0.5783590   -0.2204902  0.00   -0.0482028   -0.0447881    0.0018881
h    -0.2900284   -1.3869310   -0.1969273  0.00    0.0172087    0.0221670   -0.0002304
c     3.6510774    1.1361380   -0.2341332  0.00    0.0012283    0.0070711   -0.0085866
c     4.2378331    1.2820912   -1.6554608  0.00   -0.0157766   -0.0615136   -0.0023872
h     4.2367447    0.3872178    0.3429351  0.00   -0.0006633    0.0026657   -0.0003941
h     3.7600243    2.0906289    0.3231581  0.00   -0.0034447   -0.0021266   -0.0009288
c     5.7640380    1.2657064   -1.5858077  0.00    0.1255726    0.1207703    0.0845041
n     3.7808784    2.5418067   -2.3218169  0.00   -0.0028368    0.0383890   -0.0303433
h     3.9510789    0.4053060   -2.2710715  0.00    0.0017778    0.0114286   -0.0010848
h     3.3226107    2.2774279   -3.2160003  0.00    0.0055064   -0.0037318    0.0144336
h     3.0345450    3.0014878   -1.7575367  0.00   -0.0306287    0.0027367    0.0405620
h    -2.3693696    3.1626254   -0.1283536  0.00   -0.0005103    0.0001859    0.0000196
h    -2.1624515    0.6949656   -0.1439302  0.00   -0.0017906    0.0016779    0.0000397
h    -0.3569464    4.5756124   -0.1914269  0.00    0.0003083    0.0002749    0.0001320
h     1.8855504    3.5494951   -0.2748963  0.00    0.0266902   -0.0108773   -0.0355658
h     2.3182198   -1.4983796   -0.1972902  0.00   -0.0181612   -0.0067953    0.0012545
o     6.4555739    2.1175797   -0.8742348  0.00   -0.0766745   -0.0917609   -0.0744262
o     6.3825419    0.2524906   -2.2801223  0.00   -0.0398325   -0.0303601    0.0539244
h     6.5881280    0.6583240   -3.2144335  0.00   -0.0023740    0.0286025   -0.0421385
    27
 Energy =       0.2319633425
c    -1.3881012    2.7530719   -0.2160067  0.00   -0.0210981    0.0178390    0.0014339
c    -1.2882413    1.3781508   -0.1720710  0.00   -0.0384390   -0.0160029    0.0010463
c    -0.0346535    0.8228651   -0.2034300  0.00   -0.0396939   -0.0803678   -0.0014966
c    -0.2568193    3.5382677   -0.2935027  0.00   -0.0101073    0.0319639    0.0016968
c     0.9960206    2.9598923   -0.3254932  0.00    0.0139057    0.0311981   -0.0060043
c     1.0951739    1.5811766   -0.2659181  0.00    0.0239573    0.0251108    0.0000992
n     0.3160563   -0.5311407   -0.1097447  0.00    0.0641425    0.0442172   -0.0007510
c     2.1909223    0.7323903   -0.2345550  0.00    0.0684250   -0.0354765    0.0032672
c     1.7200685   -0.5440840   -0.1567216  0.00   -0.0458853   -0.0425413    0.0015848
h    -0.3212480   -1.3398001   -0.0381742  0.00    0.0145798    0.0185201    0.0000684
c     3.6392933    1.1494029   -0.2264292  0.00    0.0001280    0.0064055   -0.0074736
c     4.2529188    1.2247172   -1.6434220  0.00   -0.0140599   -0.0596896   -0.0025871
h     4.2057034    0.4194048    0.3951605  0.00   -0.0001750    0.0015634    0.0004510
h     3.7499852    2.1269126    0.2915453  0.00   -0.0033917   -0.0011342   -0.0003229
c     5.7772090    1.1831019   -1.5491246  0.00    0.1197106    0.1152156    0.0803588
n     3.8262515    2.4650171   -2.3638956  0.00   -0.0022126    0.0383507   -0.0302601
h     3.9595153    0.3271945   -2.2267495  0.00    0.0018154    0.0101055   -0.0013858
h     3.3674283    2.1728010   -3.2501908  0.00    0.0050156   -0.0038040    0.0130854
h     3.0867642    2.9605184   -1.8203353  0.00   -0.0294732    0.0030418    0.0387259
h    -2.3689191    3.2221778   -0.1894283  0.00   -0.0005180    0.0002437    0.0000190
h    -2.1740834    0.7540389   -0.1018591  0.00   -0.0023820    0.0007443    0.0001190
h    -0.3510704    4.6218845   -0.3334744  0.00    0.0003814    0.0012216    0.0000804
h     1.8814045    3.5871297   -0.4043718  0.00    0.0251555   -0.0093321   -0.0332432
h     2.2913755   -1.4648871   -0.0836287  0.00   -0.0171149   -0.0079091    0.0013326
o     6.4722303    2.0364735   -0.8355005  0.00   -0.0729345   -0.0873495   -0.0708363
o     6.3940461    0.1505643   -2.2182875  0.00   -0.0375580   -0.0295560    0.0514791
h     6.6046627    0.5348181   -3.1591400  0.00   -0.0021735    0.0274218   -0.0404869
    27
 Energy =       0.2268443819
c    -1.4005635    2.7064936   -0.2178583  0.00   -0.0190934    0.0159268    0.0012853
c    -1.2894790    1.3327404   -0.2115456  0.00   -0.0341991   -0.0149122    0.0010618
c    -0.0326857    0.7900310   -0.2356691  0.00   -0.0348334   -0.0690356   -0.0009406
c    -0.2753094    3.5023459   -0.2525160  0.00   -0.0084141    0.0288413    0.0014100
c     0.9805051    2.9350502   -0.2758051  0.00    0.0124241    0.0282748   -0.0054286
c     1.0880841    1.5593425   -0.2555296  0.00    0.0214387    0.0226399    0.0000082
n     0.3266794   -0.5689827   -0.2098003  0.00    0.0558874    0.0369356   -0.0011547
c     2.1896453    0.7272331   -0.2333582  0.00    0.0613731   -0.0302749    0.0029075
c     1.7358951   -0.5561307   -0.2056599  0.00   -0.0395438   -0.0373382    0.0017531
h    -0.3027751   -1.3909373   -0.1969273  0.00    0.0111754    0.0139967   -0.0000339
c     3.6343941    1.1608596   -0.2079539  0.00    0.0001846    0.0056365   -0.0064868
c     4.2514526    1.2698944   -1.6223879  0.00   -0.0121839   -0.0530849   -0.0021639
h     4.2052266    0.4227272    0.4001543  0.00   -0.0001351    0.0012690    0.0004874
h     3.7352924    2.1288422    0.3301106  0.00   -0.0029944   -0.0007472   -0.0001403
c     5.7742594    1.2187130   -1.5318108  0.00    0.1060091    0.1021151    0.0712001
n     3.8301603    2.5266563   -2.3144445  0.00   -0.0012336    0.0349639   -0.0259639
h     3.9553494    0.3862287   -2.2274218  0.00    0.0015550    0.0086572   -0.0014234
h     3.3987963    2.2631322   -3.2251837  0.00    0.0037816   -0.0038589    0.0100744
h     3.0787755    3.0102208   -1.7753900  0.00   -0.0261128    0.0029196    0.0343438
h    -2.3858869    3.1664433   -0.1978299  0.00   -0.0005691    0.0001955    0.0000222
h    -2.1710059    0.6981116   -0.1828942  0.00   -0.0028194   -0.0000180    0.0001378
h    -0.3772616    4.5862657   -0.2630483  0.00    0.0004706    0.0015873    0.0000488
h     1.8641056    3.5677668   -0.3142608  0.00    0.0228054   -0.0078375   -0.0293121
h     2.3245532   -1.4678353   -0.1547860  0.00   -0.0152119   -0.0075455    0.0012839
o     6.4774914    2.0742951   -0.8126940  0.00   -0.0645942   -0.0774049   -0.0627364
o     6.3935089    0.1897587   -2.2067549  0.00   -0.0332731   -0.0265314    0.0465479
h     6.6346859    0.5827937   -3.1334833  0.00   -0.0018937    0.0246300   -0.0367876
    27
 Energy =       0.2194870211
c    -1.4360204    2.6509034   -0.2867328  0.00   -0.0149233    0.0118491    0.0010381
c    -1.3042429    1.2824303   -0.3047980  0.00   -0.0261290   -0.0116077    0.0010417
c    -0.0434540    0.7598273   -0.3076156  0.00   -0.0262131   -0.0514482   -0.0000140
c    -0.3232499    3.4610896   -0.2761456  0.00   -0.0058535    0.0221939    0.0009931
c     0.9369517    2.9122099   -0.2751053  0.00    0.0098813    0.0214226   -0.0043623
c     1.0606856    1.5438015   -0.2811300  0.00    0.0163285    0.0174195   -0.0001860
n     0.3310306   -0.6000623   -0.3189161  0.00    0.0399097    0.0272261   -0.0018274
c     2.1704540    0.7389502   -0.2431222  0.00    0.0465971   -0.0221276    0.0018796
c     1.7455219   -0.5506775   -0.2554449  0.00   -0.0283279   -0.0277187    0.0019789
h    -0.2841276   -1.4370190   -0.3556804  0.00    0.0070343    0.0086128   -0.0002821
c     3.6106697    1.1926601   -0.1665049  0.00    0.0009715    0.0041541   -0.0043112
c     4.2674094    1.3181863   -1.5632157  0.00   -0.0092888   -0.0403942   -0.0008482
h     4.1709519    0.4543817    0.4517524  0.00    0.0000162    0.0009292    0.0004714
h     3.6883021    2.1563510    0.3838244  0.00   -0.0021579   -0.0003126    0.0002066
c     5.7845905    1.2238297   -1.4450410  0.00    0.0798431    0.0773052    0.0533683
n     3.8923485    2.5967334   -2.2353063  0.00    0.0023623    0.0284342   -0.0155455
h     3.9624654    0.4532049   -2.1940987  0.00    0.0007337    0.0059232   -0.0012489
h     3.5290483    2.3775648   -3.1924448  0.00    0.0003889   -0.0039394    0.0011078
h     3.1155104    3.0772693   -1.7287037  0.00   -0.0205982    0.0029854    0.0270456
h    -2.4284701    3.0961200   -0.2843203  0.00   -0.0007660    0.0001602    0.0000255
h    -2.1761758    0.6335437   -0.3156995  0.00   -0.0028983   -0.0005833    0.0001179
h    -0.4397991    4.5435212   -0.2669078  0.00    0.0004934    0.0015357    0.0000205
h     1.8113005    3.5560319   -0.2692867  0.00    0.0178252   -0.0056810   -0.0222997
h     2.3641004   -1.4429189   -0.2020117  0.00   -0.0111025   -0.0060932    0.0011324
o     6.5014923    2.0822266   -0.7113735  0.00   -0.0483529   -0.0582752   -0.0469262
o     6.4059744    0.1767940   -2.0956908  0.00   -0.0253578   -0.0228375    0.0406665
h     6.7306257    0.5651070   -2.9950291  0.00   -0.0004160    0.0208672   -0.0332424
    27
 Energy =       0.2184608274
c    -1.4660737    2.6290902   -0.3781934  0.00   -0.0140075    0.0109032    0.0009766
c    -1.3223123    1.2627411   -0.3955048  0.00   -0.0243804   -0.0106956    0.0009891
c    -0.0581998    0.7508419   -0.3759040  0.00   -0.0243974   -0.0475556    0.0000173
c    -0.3607902    3.4477585   -0.3464494  0.00   -0.0054691    0.0206604    0.0009270
c     0.9028685    2.9093528   -0.3212013  0.00    0.0093251    0.0197247   -0.0040437
c     1.0377363    1.5432369   -0.3249779  0.00    0.0149532    0.0161946   -0.0002228
n     0.3265795   -0.6071710   -0.3808213  0.00    0.0360244    0.0252767   -0.0018344
c     2.1521723    0.7495005   -0.2568075  0.00    0.0426967   -0.0206656    0.0015879
c     1.7399257   -0.5430951   -0.2770540  0.00   -0.0255406   -0.0254293    0.0019177
h    -0.2802413   -1.4500996   -0.4355419  0.00    0.0062580    0.0076857   -0.0002909
c     3.5874678    1.2127695   -0.1283500  0.00    0.0013955    0.0036321   -0.0032764
c     4.2930767    1.3420454   -1.5018521  0.00   -0.0092897   -0.0375991   -0.0001905
h     4.1294380    0.4773355    0.5101278  0.00    0.0002641    0.0006947    0.0007170
h     3.6408760    2.1762190    0.4259189  0.00   -0.0019400   -0.0001153    0.0005199
c     5.8040240    1.2107650   -1.3374579  0.00    0.0737316    0.0726307    0.0499829
n     3.9672889    2.6378764   -2.1658094  0.00    0.0060858    0.0274711   -0.0115743
h     3.9876873    0.4929765   -2.1549943  0.00    0.0002386    0.0050925   -0.0012968
h     3.6785991    2.4479170   -3.1578749  0.00   -0.0013861   -0.0043251   -0.0048585
h     3.1546219    3.1057198   -1.7025593  0.00   -0.0208142    0.0035502    0.0262558
h    -2.4622258    3.0660498   -0.3937696  0.00   -0.0009181    0.0001980    0.0000222
h    -2.1883292    0.6064963   -0.4232923  0.00   -0.0028593   -0.0006197    0.0001081
h    -0.4864077    4.5291372   -0.3385960  0.00    0.0004471    0.0014654    0.0000177
h     1.7698553    3.5610027   -0.2969871  0.00    0.0163113   -0.0050666   -0.0203465
h     2.3677035   -1.4274462   -0.1975833  0.00   -0.0098781   -0.0058812    0.0011009
o     6.5226221    2.0730610   -0.6029600  0.00   -0.0446078   -0.0537892   -0.0433003
o     6.4213083    0.1302798   -1.9399776  0.00   -0.0225046   -0.0234134    0.0385293
h     6.7846224    0.4876989   -2.8362760  0.00    0.0002617    0.0199755   -0.0324343
    27
 Energy =       0.2166812749
c    -1.4511881    2.6216219   -0.3032415  0.00   -0.0132897    0.0103666    0.0009149
c    -1.3080306    1.2559007   -0.3313052  0.00   -0.0231372   -0.0101109    0.0009253
c    -0.0446942    0.7435684   -0.3269202  0.00   -0.0232202   -0.0448936    0.0000071
c    -0.3455315    3.4392065   -0.2746212  0.00   -0.0052660    0.0196086    0.0008651
c     0.9175348    2.8999736   -0.2657325  0.00    0.0088251    0.0186905   -0.0038225
c     1.0511192    1.5348201   -0.2841776  0.00    0.0139069    0.0153694   -0.0002305
n     0.3389425   -0.6152155   -0.3489022  0.00    0.0337679    0.0239247   -0.0017269
c     2.1659219    0.7419956   -0.2447244  0.00    0.0400040   -0.0196837    0.0015217
c     1.7551013   -0.5502180   -0.2731573  0.00   -0.0239170   -0.0239114    0.0018051
h    -0.2689798   -1.4580416   -0.3988079  0.00    0.0059007    0.0072596   -0.0002748
c     3.6049290    1.2043605   -0.1566256  0.00    0.0014827    0.0033483   -0.0026350
c     4.2681466    1.3400535   -1.5517035  0.00   -0.0095593   -0.0354422    0.0002034
h     4.1665738    0.4647140    0.4601511  0.00    0.0005074    0.0004310    0.0009632
h     3.6762006    2.1643902    0.4015919  0.00   -0.0018412   -0.0000171    0.0006977
c     5.7850101    1.2282276   -1.4355201  0.00    0.0693377    0.0701849    0.0478999
n     3.9071534    2.6282318   -2.2125133  0.00    0.0121549    0.0256274   -0.0086887
h     3.9558637    0.4836958   -2.1924952  0.00    0.0000141    0.0046397   -0.0012895
h     3.5319394    2.4251760   -3.1767664  0.00   -0.0036314   -0.0051672   -0.0108938
h     3.1439865    3.1243673   -1.6908876  0.00   -0.0235554    0.0054943    0.0278049
h    -2.4472594    3.0591060   -0.3065339  0.00   -0.0009365    0.0002291    0.0000198
h    -2.1743262    0.6001030   -0.3562726  0.00   -0.0027145   -0.0005832    0.0001009
h    -0.4705454    4.5205087   -0.2559970  0.00    0.0003928    0.0014447    0.0000156
h     1.7856735    3.5499798   -0.2410148  0.00    0.0153495   -0.0047702   -0.0191413
h     2.3876931   -1.4339887   -0.2258224  0.00   -0.0089580   -0.0059605    0.0010630
o     6.5102727    2.0730410   -0.6820337  0.00   -0.0422598   -0.0504866   -0.0406092
o     6.4056898    0.1836992   -2.0987308  0.00   -0.0208922   -0.0261599    0.0383181
h     6.7966969    0.5927826   -2.9619846  0.00    0.0015348    0.0205677   -0.0338136
    27
 Energy =       0.2125370111
c    -1.4483639    2.5818782   -0.2534476  0.00   -0.0107808    0.0084615    0.0007217
c    -1.2941004    1.2197528   -0.3011663  0.00   -0.0186844   -0.0082962    0.0007617
c    -0.0292980    0.7178075   -0.3033922  0.00   -0.0188667   -0.0360086    0.0000969
c    -0.3500847    3.4060972   -0.2099219  0.00   -0.0041725    0.0159600    0.0006433
c     0.9149135    2.8763032   -0.2082808  0.00    0.0070956    0.0152248   -0.0031885
c     1.0572935    1.5155840   -0.2519913  0.00    0.0110145    0.0124401   -0.0002613
n     0.3624251   -0.6400483   -0.3508717  0.00    0.0271267    0.0190308   -0.0014054
c     2.1763712    0.7362881   -0.2371323  0.00    0.0320407   -0.0155690    0.0013591
c     1.7811028   -0.5579448   -0.2891101  0.00   -0.0193284   -0.0192248    0.0014759
h    -0.2385934   -1.4886809   -0.4089062  0.00    0.0047178    0.0057297   -0.0002387
c     3.6142901    1.2077242   -0.1742818  0.00    0.0011177    0.0026101   -0.0017819
c     4.2426319    1.3645181   -1.5844468  0.00   -0.0084054   -0.0283241    0.0006202
h     4.1951325    0.4619050    0.4173448  0.00    0.0006686    0.0000251    0.0010668
h     3.6947878    2.1591426    0.3970181  0.00   -0.0015254    0.0001043    0.0007236
c     5.7609288    1.2522164   -1.5185541  0.00    0.0545373    0.0585210    0.0377965
n     3.8612552    2.6560976   -2.2224563  0.00    0.0196110    0.0184421   -0.0055495
h     3.9179120    0.5131844   -2.2271270  0.00   -0.0000093    0.0035522   -0.0011494
h     3.3904683    2.4593933   -3.1493530  0.00   -0.0063819   -0.0057067   -0.0163895
h     3.1726775    3.1960904   -1.6351986  0.00   -0.0252557    0.0090525    0.0278738
h    -2.4476716    3.0116783   -0.2511935  0.00   -0.0007944    0.0002332    0.0000158
h    -2.1544952    0.5572846   -0.3373916  0.00   -0.0022564   -0.0005563    0.0000803
h    -0.4831999    4.4859070   -0.1723918  0.00    0.0003108    0.0013873    0.0000112
h     1.7773923    3.5310703   -0.1651966  0.00    0.0123353   -0.0038274   -0.0153405
h     2.4302528   -1.4316316   -0.2773590  0.00   -0.0067581   -0.0054730    0.0008695
o     6.5066662    2.0548195   -0.7214742  0.00   -0.0333928   -0.0391536   -0.0306698
o     6.3735331    0.2505954   -2.2574839  0.00   -0.0215617   -0.0336266    0.0412479
h     6.8596663    0.7250276   -3.0409828  0.00    0.0075979    0.0249917   -0.0393896
    27
 Energy =       0.2082718569
c    -1.4588061    2.5205377   -0.2481216  0.00   -0.0074857    0.0057364    0.0004929
c    -1.2824078    1.1645015   -0.3134116  0.00   -0.0127086   -0.0057973    0.0005824
c    -0.0133764    0.6828425   -0.3083628  0.00   -0.0127945   -0.0241383    0.0002325
c    -0.3750909    3.3587444   -0.1787067  0.00   -0.0025459    0.0110196    0.0003893
c     0.8950233    2.8481697   -0.1706796  0.00    0.0051175    0.0103099   -0.0025043
c     1.0565203    1.4944313   -0.2358621  0.00    0.0075271    0.0084832   -0.0003494
n     0.3954341   -0.6716219   -0.3746495  0.00    0.0178856    0.0124453   -0.0010579
c     2.1840204    0.7387472   -0.2291721  0.00    0.0215730   -0.0097246    0.0009809
c     1.8155186   -0.5593129   -0.3086257  0.00   -0.0130079   -0.0128966    0.0010834
h    -0.1917303   -1.5308208   -0.4475474  0.00    0.0029635    0.0034479   -0.0002132
c     3.6171792    1.2275582   -0.1719708  0.00    0.0007577    0.0014043   -0.0005084
c     4.2202315    1.4218155   -1.5900126  0.00   -0.0063450   -0.0198712    0.0013749
h     4.2142690    0.4723328    0.3914341  0.00    0.0006697   -0.0004318    0.0009806
h     3.6978463    2.1627688    0.4253635  0.00   -0.0009495    0.0004485    0.0008509
c     5.7328375    1.2406420   -1.5828956  0.00    0.0320891    0.0411050    0.0209363
n     3.8694544    2.7485633   -2.1670504  0.00    0.0260193    0.0093420   -0.0036817
h     3.8477227    0.6075609   -2.2597042  0.00   -0.0005949    0.0006532   -0.0021321
h     3.3006078    2.6042171   -3.0510950  0.00   -0.0098414   -0.0058941   -0.0206486
h     3.2876569    3.3410560   -1.5084230  0.00   -0.0253004    0.0153075    0.0269477
h    -2.4645263    2.9349235   -0.2510173  0.00   -0.0006882    0.0002132    0.0000122
h    -2.1311340    0.4889548   -0.3695904  0.00   -0.0017920   -0.0006036    0.0000475
h    -0.5248890    4.4355376   -0.1244085  0.00    0.0002407    0.0012346    0.0000102
h     1.7444736    3.5143344   -0.1005247  0.00    0.0075468   -0.0025248   -0.0097465
h     2.4893400   -1.4147230   -0.3229220  0.00   -0.0041245   -0.0043144    0.0006015
o     6.5449672    1.9403273   -0.7242577  0.00   -0.0159790   -0.0208541   -0.0120699
o     6.2859590    0.2719174   -2.4162370  0.00   -0.0221456   -0.0435568    0.0365401
h     6.8867926    0.7780548   -3.0962976  0.00    0.0139129    0.0294567   -0.0391511
    27
 Energy =       0.2087973429
c    -1.4517889    2.5507233   -0.2547226  0.00   -0.0070307    0.0053602    0.0004603
c    -1.2849709    1.1939057   -0.3204033  0.00   -0.0118956   -0.0054350    0.0005437
c    -0.0200402    0.7031510   -0.3121949  0.00   -0.0119386   -0.0225237    0.0002191
c    -0.3623458    3.3807744   -0.1819102  0.00   -0.0023855    0.0103268    0.0003650
c     0.9037855    2.8610349   -0.1708974  0.00    0.0048075    0.0096520   -0.0023380
c     1.0550576    1.5065147   -0.2363921  0.00    0.0070402    0.0079195   -0.0003287
n     0.3779710   -0.6547275   -0.3781103  0.00    0.0166704    0.0115775   -0.0009914
c     2.1762121    0.7429646   -0.2274808  0.00    0.0201415   -0.0090705    0.0009184
c     1.7990855   -0.5521009   -0.3091226  0.00   -0.0120989   -0.0120679    0.0010123
h    -0.2157338   -1.5095239   -0.4527736  0.00    0.0027334    0.0031751   -0.0002035
c     3.6130796    1.2196100   -0.1667631  0.00    0.0006746    0.0012713   -0.0004503
c     4.2223316    1.4056826   -1.5838481  0.00   -0.0062259   -0.0190874    0.0014113
h     4.2013319    0.4602125    0.4004747  0.00    0.0006745   -0.0004241    0.0009296
h     3.7010412    2.1544307    0.4300031  0.00   -0.0008686    0.0004451    0.0007995
c     5.7297701    1.1843717   -1.5773645  0.00    0.0249323    0.0357959    0.0146172
n     3.9047042    2.7435969   -2.1540872  0.00    0.0244218    0.0094437   -0.0034454
h     3.8297022    0.6036520   -2.2573215  0.00   -0.0006710    0.0003373   -0.0020680
h     3.3509065    2.6158814   -3.0494884  0.00   -0.0094929   -0.0054813   -0.0196891
h     3.3154974    3.3351766   -1.5027899  0.00   -0.0236655    0.0142777    0.0252613
h    -2.4544732    2.9723618   -0.2600254  0.00   -0.0006758    0.0002107    0.0000113
h    -2.1382746    0.5244812   -0.3792568  0.00   -0.0016991   -0.0005850    0.0000427
h    -0.5045272    4.4585483   -0.1274078  0.00    0.0002198    0.0011829    0.0000111
h     1.7581612    3.5210048   -0.0986435  0.00    0.0070828   -0.0023304   -0.0091100
h     2.4679228   -1.4114485   -0.3231361  0.00   -0.0038333   -0.0040427    0.0005602
o     6.5504949    1.7815741   -0.6408689  0.00   -0.0093374   -0.0146286   -0.0038805
o     6.2635158    0.2520561   -2.4651344  0.00   -0.0208785   -0.0429665    0.0321690
h     6.8554770    0.7781512   -3.1350830  0.00    0.0132985    0.0276674   -0.0368271
    27
 Energy =       0.2070108338
c    -1.4450634    2.6088563   -0.3362912  0.00   -0.0068016    0.0050208    0.0004084
c    -1.3007265    1.2495811   -0.3964205  0.00   -0.0112698   -0.0049707    0.0005019
c    -0.0452186    0.7366967   -0.3657507  0.00   -0.0110526   -0.0205698    0.0002204
c    -0.3426171    3.4195174   -0.2464175  0.00   -0.0023096    0.0098289    0.0003236
c     0.9137847    2.8775470   -0.2117906  0.00    0.0047923    0.0089525   -0.0021475
c     1.0422053    1.5205256   -0.2717037  0.00    0.0064795    0.0073541   -0.0003209
n     0.3281181   -0.6289951   -0.4202280  0.00    0.0147876    0.0105106   -0.0009329
c     2.1487101    0.7367668   -0.2378029  0.00    0.0183163   -0.0084452    0.0008950
c     1.7501833   -0.5514021   -0.3228389  0.00   -0.0106135   -0.0111234    0.0010093
h    -0.2807283   -1.4726726   -0.5045703  0.00    0.0022247    0.0026695   -0.0001771
c     3.5933760    1.1844106   -0.1396874  0.00    0.0009197    0.0014451    0.0000387
c     4.2418810    1.3615658   -1.5401079  0.00   -0.0060662   -0.0171971    0.0013222
h     4.1536470    0.4118494    0.4386103  0.00    0.0008569   -0.0007305    0.0012085
h     3.6844612    2.1154915    0.4624345  0.00   -0.0006769    0.0004028    0.0007930
c     5.7507371    1.1569408   -1.4897328  0.00    0.0213278    0.0315997    0.0124881