    24
 Energy =       0.1935453400
c     1.6703672    2.6182922    0.2614132  0.00    0.0362001    0.0887824    0.0343962
c     0.3248649    2.9356558    0.1418766  0.00   -0.0041543    0.1040291    0.0344216
c    -0.5827484    1.9945952   -0.3219261  0.00   -0.0879221    0.0363398   -0.0019408
c     2.1038063    1.3347474   -0.0833024  0.00    0.0674795   -0.0118940    0.0076479
c     1.2047783    0.3610782   -0.5608861  0.00    0.0163018   -0.0992928   -0.0299157
c    -0.1441045    0.7159142   -0.6796715  0.00   -0.0404534   -0.0671508   -0.0509229
o    -0.1504797    4.1703171    0.4675790  0.00    0.0415818   -0.0053448    0.0030976
h     0.5965194    4.7277081    0.7407382  0.00   -0.0327847   -0.0688454   -0.0261618
h    -0.8895274    0.0262790   -1.0546636  0.00   -0.0166100   -0.2291771   -0.4405401
h     3.1621727    1.0964802    0.0165124  0.00    0.0027497   -0.0001190   -0.0004288
h     2.3926004    3.3457758    0.6178375  0.00    0.0024748   -0.0013915   -0.0005977
h    -1.6336796    2.2563998   -0.4108671  0.00   -0.0035261   -0.0040170   -0.0001017
c     1.7669373   -1.0073413   -0.8964724  0.00   -0.0291780    0.0175815   -0.0047370
c     0.8861134   -2.0194266   -1.6556448  0.00   -0.0130715    0.0107443    0.1457143
h     2.1212937   -1.4658931    0.0371405  0.00   -0.0006753    0.0104643   -0.0103645
h     2.6645729   -0.8285312   -1.5058794  0.00   -0.0116154    0.0013808    0.0100365
c     0.2877588   -1.3395944   -2.9073099  0.00    0.1405045    0.0184305   -0.3803048
o     0.8327661   -1.2278598   -3.9939237  0.00   -0.1249636   -0.0280027    0.2639704
o    -0.9441121   -0.8279107   -2.6380200  0.00    0.0542683    0.2273617    0.4865526
h    -1.5388787   -1.1994019   -3.3379720  0.00    0.0289192   -0.0075155    0.0343305
n     1.5974427   -3.2508470   -2.1301054  0.00    0.0113360   -0.0434235   -0.0953208
h     0.0358579   -2.3311629   -1.0380560  0.00    0.0117870    0.0022665   -0.0172682
h     1.3459883   -3.4027164   -3.1136797  0.00   -0.0072803    0.0485163    0.0350026
h     2.6013787   -3.0583561   -2.1544800  0.00   -0.0413678    0.0002770    0.0034345
    24
 Energy =       0.1711996958
c     1.5902816    2.6349741    0.2816414  0.00    0.0323684    0.0783264    0.0302914
c     0.2394127    2.9101869    0.1563397  0.00   -0.0030835    0.0910184    0.0300675
c    -0.6323924    1.9477224   -0.3206865  0.00   -0.0776872    0.0322088   -0.0017278
c     2.0633398    1.3723163   -0.0684695  0.00    0.0597405   -0.0106235    0.0067513
c     1.1999019    0.3803630   -0.5579980  0.00    0.0131548   -0.0863481   -0.0263608
c    -0.1553415    0.6894815   -0.6854064  0.00   -0.0362224   -0.0593908   -0.0450172
o    -0.2837312    4.1271909    0.4944519  0.00    0.0340285   -0.0047578    0.0025521
h     0.4377662    4.7307934    0.7583048  0.00   -0.0272402   -0.0588615   -0.0223623
h    -0.8704170   -0.0260321   -1.0774834  0.00   -0.0149121   -0.2038754   -0.3900102
h     3.1289129    1.1667556    0.0318782  0.00    0.0030085   -0.0002914   -0.0003347
h     2.2850344    3.3834556    0.6502459  0.00    0.0026120   -0.0007340   -0.0002859
h    -1.6901388    2.1799383   -0.4151287  0.00   -0.0035994   -0.0033603   -0.0001211
c     1.8187467   -0.9522989   -0.9356837  0.00   -0.0277910    0.0147043   -0.0041876
c     0.9439826   -2.0007349   -1.6506626  0.00   -0.0123583    0.0098711    0.1283526
h     2.2583955   -1.4029151   -0.0281129  0.00    0.0011580    0.0070276   -0.0062941
h     2.6677045   -0.7166331   -1.6046159  0.00   -0.0068817    0.0025811    0.0061584
c     0.3222200   -1.3667333   -2.9125779  0.00    0.1227701    0.0162803   -0.3339549
o     0.8959409   -1.2576103   -4.0079670  0.00   -0.1088431   -0.0244633    0.2314829
o    -0.9314376   -0.8787326   -2.6811018  0.00    0.0493078    0.2051234    0.4337371
h    -1.5117445   -1.3269789   -3.3577745  0.00    0.0222738   -0.0095212    0.0262641
n     1.6873924   -3.2248406   -2.0849008  0.00    0.0106480   -0.0390263   -0.0824592
h     0.1076341   -2.3119441   -1.0105337  0.00    0.0101396    0.0016948   -0.0149679
h     1.4489781   -3.4195512   -3.0672094  0.00   -0.0066186    0.0421192    0.0293012
h     2.6912474   -3.0139710   -2.1063117  0.00   -0.0359724    0.0002983    0.0031250
    24
 Energy =       0.1490892775
c     1.5265898    2.6484440    0.2846123  0.00    0.0271467    0.0651626    0.0251743
c     0.1749271    2.8926123    0.1526603  0.00   -0.0021445    0.0753835    0.0249086
c    -0.6673135    1.9140492   -0.3294030  0.00   -0.0646208    0.0269028   -0.0014394
c     2.0292297    1.4039062   -0.0641639  0.00    0.0497617   -0.0090582    0.0055744
c     1.1947939    0.3995890   -0.5589485  0.00    0.0107208   -0.0716692   -0.0218236
c    -0.1623647    0.6726602   -0.6917953  0.00   -0.0305268   -0.0493892   -0.0375771
o    -0.3818076    4.1003163    0.4920199  0.00    0.0268577   -0.0044321    0.0019502
h     0.3178054    4.7410581    0.7520835  0.00   -0.0217165   -0.0476915   -0.0182120
h    -0.8539445   -0.0643722   -1.0918084  0.00   -0.0125422   -0.1727848   -0.3289509
h     3.0988077    1.2231086    0.0409246  0.00    0.0028314   -0.0003407   -0.0002542
h     2.1995476    3.4134388    0.6599913  0.00    0.0024258   -0.0003329   -0.0000979
h    -1.7290356    2.1241379   -0.4304325  0.00   -0.0032775   -0.0026833   -0.0001172
c     1.8487936   -0.9136307   -0.9456780  0.00   -0.0228208    0.0118322   -0.0033608
c     0.9910642   -1.9818405   -1.6528968  0.00   -0.0105251    0.0090384    0.1066376
h     2.3052212   -1.3575531   -0.0410581  0.00    0.0010794    0.0056391   -0.0051402
h     2.6867710   -0.6557110   -1.6234542  0.00   -0.0054023    0.0023297    0.0049318
c     0.3530229   -1.3791009   -2.9179541  0.00    0.1017938    0.0130279   -0.2769053
o     0.9520721   -1.2682286   -4.0278427  0.00   -0.0898491   -0.0203517    0.1917506
o    -0.9223105   -0.9185272   -2.7218388  0.00    0.0483380    0.1835307    0.3749631
h    -1.4986086   -1.4857320   -3.3291652  0.00    0.0098953   -0.0174269    0.0119151
n     1.7676795   -3.1937709   -2.0519389  0.00    0.0093740   -0.0330148   -0.0674487
h     0.1610258   -2.3008478   -1.0040469  0.00    0.0083400    0.0012873   -0.0123725
h     1.5475538   -3.4234374   -3.0347671  0.00   -0.0056351    0.0347021    0.0232050
h     2.7721685   -2.9663666   -2.0648619  0.00   -0.0295037    0.0003390    0.0026894
    24
 Energy =       0.1409786707
c     1.5033093    2.6558603    0.2809531  0.00    0.0240628    0.0577219    0.0222879
c     0.1527462    2.8896158    0.1463200  0.00   -0.0018205    0.0667481    0.0220638
c    -0.6777161    1.9063165   -0.3374547  0.00   -0.0572233    0.0238526   -0.0012722
c     2.0164830    1.4195199   -0.0673565  0.00    0.0440715   -0.0080656    0.0049259
c     1.1935469    0.4122677   -0.5644172  0.00    0.0094513   -0.0634799   -0.0193074
c    -0.1633243    0.6724167   -0.6987828  0.00   -0.0271187   -0.0437773   -0.0333363
o    -0.4149037    4.0954750    0.4857315  0.00    0.0235667   -0.0040823    0.0017016
h     0.2768964    4.7520572    0.7403978  0.00   -0.0190747   -0.0420162   -0.0160976
h    -0.8473774   -0.0703877   -1.1029999  0.00   -0.0111896   -0.1542963   -0.2933852
h     3.0871260    1.2477316    0.0400369  0.00    0.0025521   -0.0003168   -0.0002225
h     2.1679963    3.4264730    0.6592809  0.00    0.0021836   -0.0002586   -0.0000681
h    -1.7403224    2.1091974   -0.4419716  0.00   -0.0029368   -0.0023572   -0.0001032
c     1.8594633   -0.8950593   -0.9534584  0.00   -0.0201765    0.0104263   -0.0029613
c     1.0072690   -1.9681976   -1.6606568  0.00   -0.0093709    0.0084855    0.0945352
h     2.3170564   -1.3379685   -0.0479947  0.00    0.0009597    0.0049802   -0.0045519
h     2.6964008   -0.6316425   -1.6317797  0.00   -0.0047614    0.0020787    0.0043586
c     0.3670601   -1.3760352   -2.9275511  0.00    0.0899582    0.0108760   -0.2457865
o     0.9779628   -1.2730972   -4.0469998  0.00   -0.0799344   -0.0184876    0.1696718
o    -0.9172627   -0.9269094   -2.7501077  0.00    0.0633142    0.1910998    0.3525209
h    -1.5079730   -1.6444852   -3.2069927  0.00   -0.0111720   -0.0419554   -0.0071980
n     1.7935793   -3.1781950   -2.0396198  0.00    0.0083649   -0.0292592   -0.0595000
h     0.1778493   -2.2862826   -1.0083446  0.00    0.0073458    0.0011125   -0.0109607
h     1.5854918   -3.4236746   -3.0232544  0.00   -0.0050239    0.0306890    0.0202837
h     2.8003319   -2.9507944   -2.0427403  0.00   -0.0260280    0.0002818    0.0024014
    24
 Energy =       0.1195971927
c     1.4486863    2.6584963    0.2890696  0.00    0.0190612    0.0453706    0.0175187
c     0.0976512    2.8644416    0.1556305  0.00   -0.0011388    0.0523329    0.0173326
c    -0.7075775    1.8666852   -0.3268300  0.00   -0.0449959    0.0188919   -0.0010629
c     1.9873719    1.4402888   -0.0616548  0.00    0.0346997   -0.0065690    0.0038756
c     1.1892198    0.4224684   -0.5597755  0.00    0.0072892   -0.0498421   -0.0150970
c    -0.1692128    0.6495872   -0.6887207  0.00   -0.0216633   -0.0344092   -0.0263747
o    -0.4962818    4.0629309    0.4965913  0.00    0.0172202   -0.0039557    0.0012308
h     0.1782552    4.7534856    0.7322379  0.00   -0.0140750   -0.0317649   -0.0124509
h    -0.8351074   -0.1108115   -1.0928485  0.00   -0.0089496   -0.1248498   -0.2363646
h     3.0615515    1.2919211    0.0440016  0.00    0.0022912   -0.0003347   -0.0001521
h     2.0950328    3.4433917    0.6697691  0.00    0.0018925   -0.0000168    0.0000465
h    -1.7739645    2.0481907   -0.4305649  0.00   -0.0025522   -0.0017587   -0.0000968
c     1.8835632   -0.8671599   -0.9611703  0.00   -0.0156115    0.0080270   -0.0022176
c     1.0457767   -1.9613439   -1.6569091  0.00   -0.0075255    0.0072374    0.0741500
h     2.3602916   -1.3024307   -0.0600121  0.00    0.0008939    0.0036956   -0.0034469
h     2.7066927   -0.5847459   -1.6513008  0.00   -0.0034474    0.0018343    0.0032403
c     0.3843473   -1.4028493   -2.9235780  0.00    0.0689655    0.0073100   -0.1922681
o     1.0206097   -1.2697877   -4.0533904  0.00   -0.0614536   -0.0138753    0.1326517
o    -0.9141945   -0.9730677   -2.7711049  0.00    0.0603530    0.1675051    0.2936890
h    -1.4840958   -1.6107503   -3.3657458  0.00   -0.0197717   -0.0463431   -0.0166421
n     1.8624612   -3.1580909   -2.0056495  0.00    0.0068806   -0.0233529   -0.0458954
h     0.2238343   -2.2867640   -0.9944705  0.00    0.0056097    0.0007509   -0.0085972
h     1.6767347   -3.4312223   -2.9901467  0.00   -0.0039354    0.0238540    0.0149549
h     2.8700429   -2.9186618   -1.9931901  0.00   -0.0200366    0.0002626    0.0019760
    24
 Energy =       0.0971542062
c     1.4021617    2.6614818    0.2806290  0.00    0.0127361    0.0298593    0.0116908
c     0.0524281    2.8424056    0.1508009  0.00   -0.0004541    0.0344508    0.0117280
c    -0.7301786    1.8283991   -0.3167817  0.00   -0.0297634    0.0125278   -0.0008289
c     1.9626663    1.4598467   -0.0650965  0.00    0.0229661   -0.0045638    0.0026063
c     1.1867044    0.4312303   -0.5541760  0.00    0.0048573   -0.0329649   -0.0099458
c    -0.1717931    0.6266593   -0.6720307  0.00   -0.0147595   -0.0228272   -0.0178526
o    -0.5607052    4.0418909    0.4787583  0.00    0.0082796   -0.0057469    0.0005113
h     0.1010416    4.7751195    0.6553988  0.00   -0.0064816   -0.0173475   -0.0080951
h    -0.8227512   -0.1511308   -1.0685660  0.00   -0.0060493   -0.0895981   -0.1684172
h     3.0395918    1.3335497    0.0372901  0.00    0.0017687   -0.0002836   -0.0000693
h     2.0324833    3.4622018    0.6549012  0.00    0.0014515    0.0001538    0.0001371
h    -1.7995408    1.9901685   -0.4185443  0.00   -0.0018997   -0.0010915   -0.0000927
c     1.9005746   -0.8499957   -0.9542652  0.00   -0.0101548    0.0052585   -0.0013774
c     1.0723121   -1.9571213   -1.6459056  0.00   -0.0049901    0.0056683    0.0488269
h     2.3768107   -1.2793969   -0.0482926  0.00    0.0006081    0.0023883   -0.0022523
h     2.7226387   -0.5631311   -1.6460256  0.00   -0.0022471    0.0012549    0.0021259
c     0.3982774   -1.4263671   -2.9125760  0.00    0.0429628    0.0015175   -0.1256911
o     1.0746328   -1.2401494   -4.0469946  0.00   -0.0376394   -0.0074947    0.0863739
o    -0.9186924   -1.0240760   -2.7956776  0.00    0.0514680    0.1329548    0.2223220
h    -1.4497790   -1.5521841   -3.5244989  0.00   -0.0255636   -0.0449212   -0.0267578
n     1.9096321   -3.1472980   -1.9573780  0.00    0.0039341   -0.0155197   -0.0292608
h     0.2525812   -2.2825686   -0.9756805  0.00    0.0036340    0.0004741   -0.0056331
h     1.7585626   -3.4428625   -2.9461033  0.00   -0.0025875    0.0156593    0.0084953
h     2.9220295   -2.9124700   -1.9089479  0.00   -0.0120763    0.0001917    0.0014566
    24
 Energy =       0.0866974734
c     1.4855111    2.6505066    0.2418267  0.00    0.0096818    0.0225399    0.0088737
c     0.1449992    2.8763697    0.1031644  0.00   -0.0003744    0.0252286    0.0086819
c    -0.6665292    1.8819787   -0.3483286  0.00   -0.0228385    0.0095022   -0.0004355
c     2.0076594    1.4274740   -0.0798162  0.00    0.0177191   -0.0033713    0.0018821
c     1.2004907    0.4194756   -0.5514815  0.00    0.0031338   -0.0234504   -0.0078407
c    -0.1470204    0.6591490   -0.6768087  0.00   -0.0112440   -0.0177429   -0.0135818
o    -0.4262221    4.1079681    0.4054804  0.00    0.0032209   -0.0036486    0.0000239
h     0.2597947    4.8142775    0.6191767  0.00   -0.0030318   -0.0113897   -0.0056367
h    -0.8189250   -0.1031436   -1.0643954  0.00   -0.0038724   -0.0696368   -0.1298092
h     3.0790949    1.2656663    0.0312121  0.00    0.0020389   -0.0003270   -0.0000305
h     2.1408679    3.4373324    0.6030328  0.00    0.0013309    0.0005964    0.0002005
h    -1.7292916    2.0783746   -0.4602102  0.00   -0.0021012   -0.0006309   -0.0001115
c     1.8573917   -0.9085679   -0.9094251  0.00   -0.0079328    0.0033278   -0.0010148
c     0.9827291   -1.9710141   -1.6228660  0.00   -0.0055611    0.0055504    0.0362405
h     2.2679162   -1.3581723    0.0219845  0.00    0.0013779    0.0000913    0.0002357
h     2.7248400   -0.6810894   -1.5725867  0.00    0.0009471    0.0018159    0.0001087
c     0.3554793   -1.4044376   -2.8977073  0.00    0.0285942   -0.0008961   -0.0888299
o     1.1012472   -1.1581557   -3.9977464  0.00   -0.0237832   -0.0031177    0.0594909
o    -0.9643843   -0.9842488   -2.8287902  0.00    0.0406794    0.1065751    0.1744450
h    -1.4646611   -1.4347037   -3.6223187  0.00   -0.0238260   -0.0377424   -0.0253292
n     1.7636675   -3.2057546   -1.9090819  0.00   -0.0003838   -0.0152345   -0.0213081
h     0.1330540   -2.2533529   -0.9657589  0.00    0.0014631   -0.0002283   -0.0035341
h     1.6325023   -3.4923661   -2.9054973  0.00   -0.0021422    0.0116624    0.0056826
h     2.7914774   -3.0393640   -1.8128214  0.00   -0.0030956    0.0005263    0.0015967
    24
 Energy =       0.0836686048
c     1.4034323    2.6557748    0.2693195  0.00    0.0094747    0.0212835    0.0084050
c     0.0549374    2.8374881    0.1431574  0.00   -0.0003928    0.0231287    0.0079019
c    -0.7247436    1.8225784   -0.3183029  0.00   -0.0218569    0.0090738   -0.0004230
c     1.9648361    1.4563578   -0.0729657  0.00    0.0171840   -0.0034814    0.0017480
c     1.1900193    0.4277329   -0.5531429  0.00    0.0030454   -0.0217815   -0.0073330
c    -0.1669882    0.6215647   -0.6652852  0.00   -0.0110438   -0.0169169   -0.0127592
o    -0.5583439    4.0435858    0.4727990  0.00    0.0010659   -0.0029286    0.0000558
h     0.1010416    4.7661388    0.7198137  0.00   -0.0019560   -0.0090466   -0.0047013
h    -0.8186193   -0.1592387   -1.0541135  0.00   -0.0040810   -0.0647169   -0.1202504
h     3.0426280    1.3304425    0.0284087  0.00    0.0026408   -0.0004608    0.0000195
h     2.0339682    3.4596442    0.6381260  0.00    0.0015608    0.0009191    0.0003627
h    -1.7950429    1.9843492   -0.4186313  0.00   -0.0026636   -0.0003805   -0.0001380
c     1.8969715   -0.8684951   -0.9370910  0.00   -0.0070219    0.0026625   -0.0008311
c     1.0605320   -1.9595893   -1.6529245  0.00   -0.0056283    0.0059598    0.0334310
h     2.3371613   -1.3130555   -0.0162414  0.00    0.0014830   -0.0003846    0.0005178
h     2.7472386   -0.5969976   -1.6076727  0.00    0.0017992    0.0020569   -0.0004614
c     0.3950039   -1.4092219   -2.9143929  0.00    0.0269805   -0.0011798   -0.0816658
o     1.1160050   -1.1169109   -4.0243181  0.00   -0.0208870   -0.0025139    0.0535992
o    -0.9420473   -1.0487224   -2.8275410  0.00    0.0353522    0.1001514    0.1627331
h    -1.4263491   -1.4751679   -3.6415589  0.00   -0.0221027   -0.0355538   -0.0242507
n     1.8916537   -3.1583649   -1.9561157  0.00   -0.0005066   -0.0163185   -0.0198647
h     0.2294621   -2.2834410   -0.9891068  0.00    0.0005492   -0.0006748   -0.0027759
h     1.7654976   -3.4430954   -2.9541345  0.00   -0.0017422    0.0105344    0.0052004
h     2.9134345   -2.9491549   -1.8678480  0.00   -0.0012530    0.0005685    0.0014801
    24
 Energy =       0.0792675150
c     1.3173103    2.6469535    0.3114029  0.00    0.0084975    0.0186852    0.0073601
c    -0.0363083    2.7857958    0.1936842  0.00   -0.0003008    0.0195585    0.0065783
c    -0.7823437    1.7544208   -0.2842571  0.00   -0.0193533    0.0080288   -0.0003915
c     1.9170477    1.4745101   -0.0539729  0.00    0.0154166   -0.0033327    0.0014942
c     1.1765425    0.4295481   -0.5495281  0.00    0.0026974   -0.0187272   -0.0062477
c    -0.1873185    0.5784251   -0.6525481  0.00   -0.0100270   -0.0150470   -0.0111117
o    -0.6897837    3.9644205    0.5530359  0.00   -0.0011271   -0.0022663   -0.0000040
h    -0.0577115    4.6991931    0.8398340  0.00   -0.0007178   -0.0059719   -0.0033020
h    -0.8179714   -0.2170121   -1.0491770  0.00   -0.0041148   -0.0558923   -0.1035625
h     2.9992395    1.3838018    0.0414284  0.00    0.0029455   -0.0005315    0.0000537
h     1.9218040    3.4649707    0.6932115  0.00    0.0016473    0.0012068    0.0005073
h    -1.8581819    1.8826412   -0.3766063  0.00   -0.0029094   -0.0001388   -0.0001348
c     1.9321775   -0.8319819   -0.9616407  0.00   -0.0056983    0.0019389   -0.0004784
c     1.1389141   -1.9429908   -1.6959218  0.00   -0.0052577    0.0063133    0.0283602
h     2.3922380   -1.2771912   -0.0507006  0.00    0.0013425   -0.0006373    0.0005829
h     2.7695576   -0.5150462   -1.6298705  0.00    0.0023986    0.0021165   -0.0009933
c     0.4387985   -1.3976464   -2.9384205  0.00    0.0224411   -0.0035220   -0.0669818
o     1.1446259   -1.0034853   -4.0376153  0.00   -0.0133367   -0.0001034    0.0407771
o    -0.9196171   -1.1226514   -2.8398065  0.00    0.0264966    0.0891468    0.1449536
h    -1.3747385   -1.4982453   -3.6918964  0.00   -0.0195872   -0.0324039   -0.0239249
n     2.0205613   -3.0991788   -2.0253363  0.00   -0.0002503   -0.0164682   -0.0171277
h     0.3265793   -2.3151971   -1.0315372  0.00   -0.0004983   -0.0011257   -0.0016631
h     1.9063178   -3.3702055   -3.0295089  0.00   -0.0010877    0.0086171    0.0040776
h     3.0339493   -2.8496469   -1.9340153  0.00    0.0003834    0.0005563    0.0011785
    24
 Energy =       0.0790154639
c     1.2717474    2.6293617    0.3485737  0.00    0.0080820    0.0177843    0.0069972
c    -0.0823004    2.7518408    0.2233160  0.00   -0.0002344    0.0184517    0.0062000
c    -0.8110658    1.7170024   -0.2725981  0.00   -0.0184054    0.0075441   -0.0003985
c     1.8891024    1.4698098   -0.0260644  0.00    0.0146969   -0.0030939    0.0014482
c     1.1665625    0.4213871   -0.5395505  0.00    0.0025038   -0.0177055   -0.0058593
c    -0.1987621    0.5534373   -0.6509134  0.00   -0.0095625   -0.0143643   -0.0105459
o    -0.7539045    3.9172145    0.5942084  0.00   -0.0014738   -0.0021497   -0.0000364
h    -0.1346303    4.6549279    0.9022033  0.00   -0.0004155   -0.0052067   -0.0029340
h    -0.8183365   -0.2435501   -1.0630054  0.00   -0.0040420   -0.0527845   -0.0976927
h     2.9717234    1.3927141    0.0758911  0.00    0.0029018   -0.0004963    0.0000686
h     1.8627308    3.4506403    0.7444652  0.00    0.0016541    0.0013005    0.0005539
h    -1.8877454    1.8327365   -0.3709476  0.00   -0.0028461   -0.0001254   -0.0001375
c     1.9455106   -0.8228788   -0.9634700  0.00   -0.0054802    0.0021361   -0.0001374
c     1.1797308   -1.9326468   -1.7287927  0.00   -0.0053948    0.0065674    0.0267873
h     2.4013883   -1.2775394   -0.0551776  0.00    0.0012511   -0.0006092    0.0006351
h     2.7858683   -0.4811144   -1.6160212  0.00    0.0025620    0.0021418   -0.0012102
c     0.4667791   -1.3707235   -2.9546653  0.00    0.0173669   -0.0077291   -0.0561456
o     1.1704171   -0.8447322   -4.0103233  0.00   -0.0053886    0.0043210    0.0296394
o    -0.9056356   -1.1691981   -2.8546596  0.00    0.0216134    0.0845285    0.1388593
h    -1.3413684   -1.5275857   -3.7224515  0.00   -0.0184482   -0.0309381   -0.0232040
n     2.0886797   -3.0588342   -2.0882076  0.00   -0.0000604   -0.0167972   -0.0162913
h     0.3759081   -2.3407258   -1.0737194  0.00   -0.0009455   -0.0013130   -0.0011245
h     1.9730392   -3.3131673   -3.0969208  0.00   -0.0009127    0.0080643    0.0035413
h     3.0962499   -2.7841745   -2.0009321  0.00    0.0009779    0.0004730    0.0009871
    24
 Energy =       0.0749922299
c     1.2834709    2.6468594    0.3207438  0.00    0.0077476    0.0167472    0.0066177
c    -0.0724131    2.7636590    0.2136159  0.00   -0.0002457    0.0174170    0.0058626
c    -0.8039845    1.7228471   -0.2644457  0.00   -0.0174131    0.0070071   -0.0004343
c     1.8998450    1.4879181   -0.0555734  0.00    0.0139613   -0.0028102    0.0014282
c     1.1737981    0.4340336   -0.5511714  0.00    0.0024359   -0.0166930   -0.0055157
c    -0.1926981    0.5593382   -0.6421809  0.00   -0.0091365   -0.0135040   -0.0099676
o    -0.7427116    3.9296837    0.5854031  0.00   -0.0014940   -0.0021264   -0.0000817
h    -0.1221500    4.6718867    0.8807170  0.00   -0.0002905   -0.0047870   -0.0027166
h    -0.8137212   -0.2458754   -1.0351850  0.00   -0.0038641   -0.0498977   -0.0919522
h     2.9840376    1.4152026    0.0315920  0.00    0.0028576   -0.0004457    0.0000911
h     1.8768130    3.4728616    0.7030690  0.00    0.0016461    0.0012876    0.0005589
h    -1.8824887    1.8333692   -0.3475580  0.00   -0.0028186   -0.0001408   -0.0001577
c     1.9478578   -0.8119633   -0.9756629  0.00   -0.0053866    0.0025566    0.0001519
c     1.1674295   -1.9349539   -1.7067769  0.00   -0.0055119    0.0063814    0.0254314
h     2.4225075   -1.2521657   -0.0694886  0.00    0.0012786   -0.0006462    0.0008527
h     2.7743516   -0.4790299   -1.6504038  0.00    0.0026632    0.0021763   -0.0013788
c     0.4529243   -1.4011566   -2.9457582  0.00    0.0111080   -0.0102719   -0.0432838
o     1.1557010   -1.0034853   -4.0660989  0.00    0.0016265    0.0073159    0.0175439
o    -0.9127636   -1.1523231   -2.8448789  0.00    0.0196454    0.0795316    0.1323109
h    -1.3541875   -1.4695485   -3.7250105  0.00   -0.0181003   -0.0292571   -0.0231635
n     2.0652246   -3.0789451   -2.0379800  0.00   -0.0002009   -0.0164851   -0.0152672
h     0.3634166   -2.3190092   -1.0373668  0.00   -0.0011289   -0.0013582   -0.0007917
h     1.9653749   -3.3429118   -3.0463911  0.00   -0.0008758    0.0076211    0.0030161
h     3.0760548   -2.8220897   -1.9329725  0.00    0.0014967    0.0003816    0.0008452
    24
 Energy =       0.0678354699
c     1.2744685    2.6606429    0.2991501  0.00    0.0064570    0.0128775    0.0051727
c    -0.0842806    2.7556359    0.2250100  0.00   -0.0003963    0.0134721    0.0045053
c    -0.8089545    1.7036511   -0.2339221  0.00   -0.0137709    0.0054387   -0.0004571
c     1.9003667    1.5141794   -0.0922944  0.00    0.0112351   -0.0022454    0.0012059
c     1.1802576    0.4499315   -0.5683813  0.00    0.0023632   -0.0129784   -0.0042701
c    -0.1885319    0.5513151   -0.6230976  0.00   -0.0075778   -0.0103835   -0.0078082
o    -0.7637068    3.9119858    0.6132084  0.00   -0.0015484   -0.0015417   -0.0000657
h    -0.1498813    4.6625532    0.9038151  0.00   -0.0001764   -0.0035757   -0.0020426
h    -0.8054032   -0.2672846   -0.9928382  0.00   -0.0031725   -0.0399484   -0.0727299
h     2.9872918    1.4591621   -0.0310471  0.00    0.0027174   -0.0003783    0.0001216
h     1.8629762    3.4961806    0.6672719  0.00    0.0014729    0.0010460    0.0004806
h    -1.8909288    1.7959785   -0.2895944  0.00   -0.0027436   -0.0000693   -0.0001789
c     1.9603815   -0.7863091   -1.0065635  0.00   -0.0044132    0.0026387    0.0004436
c     1.1731565   -1.9290024   -1.6997944  0.00   -0.0047351    0.0049983    0.0199645
h     2.4657297   -1.2092640   -0.1082509  0.00    0.0012792   -0.0007767    0.0011583
h     2.7627799   -0.4516779   -1.7087779  0.00    0.0025248    0.0019437   -0.0014606
c     0.4422200   -1.4332635   -2.9461497  0.00    0.0033302   -0.0088678   -0.0231376
o     1.1240616   -1.1622384   -4.1262593  0.00    0.0067083    0.0072676    0.0028023
o    -0.9185076   -1.1586829   -2.8453197  0.00    0.0181244    0.0635345    0.1111630
h    -1.3512423   -1.3773549   -3.7585676  0.00   -0.0173234   -0.0241444   -0.0254926
n     2.0700261   -3.0807249   -2.0019167  0.00   -0.0019593   -0.0133904   -0.0106813
h     0.3774925   -2.2964344   -1.0115164  0.00   -0.0010820   -0.0011879   -0.0003674
h     2.0112324   -3.3403542   -3.0163599  0.00   -0.0007865    0.0056934    0.0008580
h     3.0806849   -2.8444231   -1.8475672  0.00    0.0034729    0.0005773    0.0008163
    24
 Energy =       0.0583354914
c     1.2609305    2.6725246    0.2630058  0.00    0.0047102    0.0045378    0.0021009
c    -0.1008923    2.7261756    0.2646982  0.00   -0.0012228    0.0050213    0.0015692
c    -0.8146850    1.6546083   -0.1536461  0.00   -0.0068157    0.0022203   -0.0006216
c     1.8999972    1.5508898   -0.1642524  0.00    0.0062711   -0.0011009    0.0008276
c     1.1889354    0.4677933   -0.5986094  0.00    0.0033799   -0.0051394   -0.0016473
c    -0.1817100    0.5252825   -0.5734035  0.00   -0.0053279   -0.0039788   -0.0033170
o    -0.7925333    3.8634109    0.6933222  0.00   -0.0024911   -0.0000656    0.0000904
h    -0.1889772    4.6291207    0.9711151  0.00    0.0001322   -0.0008875   -0.0005589
h    -0.7941125   -0.3131250   -0.8991365  0.00   -0.0022442   -0.0213444   -0.0372125
h     2.9903995    1.5294836   -0.1608365  0.00    0.0033199   -0.0002208    0.0001694
h     1.8423382    3.5254229    0.6003081  0.00    0.0014389    0.0005890    0.0003330
h    -1.9012800    1.7130258   -0.1480557  0.00   -0.0035645    0.0001137   -0.0001860
c     1.9764361   -0.7529366   -1.0644376  0.00   -0.0018772    0.0019125    0.0006720
c     1.1825748   -1.9182941   -1.7131482  0.00   -0.0019123    0.0019783    0.0074111
h     2.5225122   -1.1554079   -0.1805074  0.00    0.0010169   -0.0008782    0.0012700
h     2.7439897   -0.4138202   -1.8012106  0.00    0.0017994    0.0010881   -0.0012596
c     0.4182929   -1.4658172   -2.9558347  0.00   -0.0020356   -0.0022289   -0.0028459
o     1.0656166   -1.2892390   -4.1774417  0.00    0.0046254    0.0028443   -0.0056206
o    -0.9417118   -1.1922912   -2.8551871  0.00    0.0178512    0.0315722    0.0792968
h    -1.3432850   -1.2186018   -3.8123733  0.00   -0.0171570   -0.0119144   -0.0375175
n     2.0825127   -3.0709268   -1.9886177  0.00   -0.0097638   -0.0063683    0.0005681
h     0.4054527   -2.2731858   -0.9983205  0.00   -0.0007986   -0.0006990    0.0003028
h     2.1061548   -3.2965103   -3.0175803  0.00   -0.0002730    0.0008400   -0.0063154
h     3.0847325   -2.8733802   -1.7296129  0.00    0.0109388    0.0021085    0.0024910
    24
 Energy =       0.0543816045
c     1.1949929    2.7127092    0.1702302  0.00    0.0036459    0.0030272    0.0014375
c    -0.1655408    2.7215723    0.2115516  0.00   -0.0004425    0.0030852    0.0010405
c    -0.8546267    1.6117639   -0.1447366  0.00   -0.0044064   -0.0004393   -0.0008055
c     1.8571671    1.5977748   -0.2336755  0.00    0.0040895    0.0011404    0.0010370
c     1.1709726    0.4757981   -0.6058529  0.00    0.0013838   -0.0027344   -0.0010347
c    -0.1986278    0.4887229   -0.5408803  0.00   -0.0039340   -0.0030407   -0.0019113
o    -0.8801693    3.8528883    0.6188351  0.00   -0.0025687   -0.0013083   -0.0003499
h    -0.2942341    4.6489723    0.8522915  0.00    0.0015396    0.0017479    0.0003727
h    -0.7952605   -0.3795688   -0.8169157  0.00   -0.0028866   -0.0129827   -0.0205978
h     2.9466765    1.6119513   -0.2584030  0.00    0.0025259    0.0003472    0.0002849
h     1.7572681    3.5970514    0.4588608  0.00    0.0018201    0.0016933    0.0006575
h    -1.9411512    1.6353478   -0.1087596  0.00   -0.0026614   -0.0002937   -0.0002514
c     1.9849032   -0.7451968   -1.0273777  0.00   -0.0011552    0.0003300   -0.0000616
c     1.2220643   -1.9276172   -1.6811075  0.00   -0.0009232    0.0012350    0.0031116
h     2.5076840   -1.1244719   -0.1199459  0.00    0.0008329   -0.0005503    0.0012250
h     2.7701809   -0.4146891   -1.7478898  0.00    0.0009997    0.0003429   -0.0009057
c     0.4744904   -1.4957802   -2.9391794  0.00   -0.0010236   -0.0007409   -0.0013570
o     1.1429596   -1.3162162   -4.1467832  0.00    0.0021399    0.0011597   -0.0027591
o    -0.8904267   -1.2420801   -2.8709248  0.00    0.0100010    0.0173579    0.0435844
h    -1.2554258   -1.1861079   -3.8294990  0.00   -0.0096380   -0.0064480   -0.0213404
n     2.1441885   -3.0677900   -1.9280076  0.00   -0.0119108   -0.0038221    0.0049835
h     0.4377189   -2.2893976   -0.9789339  0.00   -0.0004834   -0.0002790    0.0002547
h     2.2554666   -3.2528138   -2.9617998  0.00    0.0004139   -0.0012172   -0.0100047
h     3.1204181   -2.8886209   -1.5708598  0.00    0.0126414    0.0023896    0.0033898
    24
 Energy =       0.0525109321
c     1.1460067    2.7481517    0.0925872  0.00    0.0015403    0.0024576    0.0010629
c    -0.2133273    2.7470650    0.1192862  0.00   -0.0000125    0.0016622    0.0006099