    27
 Energy =       0.2873835567
c    -1.4235396    2.6054793   -0.0667700  0.00   -0.0462404    0.0383305    0.0027588
c    -1.3072796    1.2134697   -0.1072300  0.00   -0.0851733   -0.0325663    0.0020198
c    -0.0178900    0.6711998   -0.1697000  0.00   -0.0885191   -0.1879462   -0.0011801
c    -0.2940599    3.4190890   -0.0891300  0.00   -0.0230109    0.0691101    0.0029406
c     0.9872197    2.8590292   -0.1560400  0.00    0.0105419    0.0643439    0.0010443
c     1.1340797    1.4562096   -0.1970299  0.00    0.0533791    0.0515108    0.0020820
n     0.3879399   -0.6395298   -0.2140799  0.00    0.1419253    0.1098868   -0.0029987
c     2.2666594    0.5727398   -0.2659299  0.00    0.1404540   -0.0572138   -0.0206329
c     1.7555995   -0.7123598   -0.2706899  0.00   -0.0941283   -0.0976659    0.0035035
h    -0.2400399   -1.4313496   -0.2047299  0.00    0.0365206    0.0476059   -0.0005884
c     3.7030089    1.0223397   -0.3320099  0.00    0.0149286    0.0083918    0.0169870
c     4.7465686   -0.0024900    0.1378100  0.00   -0.0586474   -0.0005959    0.0065527
h     3.7978489    1.9290294    0.2803699  0.00    0.0013061   -0.0128078   -0.0110907
h     3.9233889    1.3348996   -1.3618196  0.00   -0.0053407   -0.0012675    0.0145016
c     6.0911583    0.7171698    0.3515799  0.00    0.1252723    0.3017625    0.2197512
n     4.9813086   -1.1161597   -0.8485798  0.00    0.0670570   -0.0603829   -0.0322726
h     4.4627987   -0.4486599    1.0982597  0.00    0.0085333   -0.0112165   -0.0258477
h     4.8172486   -1.9976894   -0.3514999  0.00   -0.0051447    0.0361616   -0.0104346
h     4.2259388   -1.0808397   -1.5421496  0.00    0.0114858    0.0068119    0.0353756
h    -2.4108593    3.0588691   -0.0157800  0.00   -0.0008339    0.0002425    0.0000317
h    -2.1896094    0.5822398   -0.0890100  0.00   -0.0036212    0.0037132    0.0000607
h    -0.4052699    4.5000487   -0.0535400  0.00    0.0008350    0.0001666    0.0002652
h     1.8590495    3.5066790   -0.1715100  0.00   -0.0008393    0.0026465    0.0006613
h     2.2327294   -1.6813195   -0.3062999  0.00   -0.0366936   -0.0107744    0.0010940
o     6.2733082    1.6803095    1.0775897  0.00   -0.0471114   -0.2262828   -0.1846301
o     7.0804880    0.1383800   -0.3810899  0.00   -0.0821123   -0.0428285   -0.0141951
h     7.7404778   -0.1816049    0.2872119  0.00   -0.0348225    0.0008640   -0.0057591
    27
 Energy =       0.2363494205
c    -1.3767691    2.6059790   -0.0115221  0.00   -0.0271809    0.0224865    0.0015772
c    -1.2705022    1.2281763   -0.0586479  0.00   -0.0507792   -0.0197073    0.0011334
c    -0.0064732    0.6806493   -0.1159517  0.00   -0.0511796   -0.1100876    0.0014618
c    -0.2472149    3.4015105   -0.0316758  0.00   -0.0140712    0.0409089    0.0016834
c     1.0137293    2.8316730   -0.1001828  0.00    0.0063879    0.0385744    0.0005005
c     1.1283151    1.4478979   -0.1392654  0.00    0.0306593    0.0314332    0.0011809
n     0.3551136   -0.6587312   -0.2141957  0.00    0.0833192    0.0626280   -0.0047765
c     2.2363478    0.5952500   -0.2222837  0.00    0.0822647   -0.0342753   -0.0111048
c     1.7489836   -0.6846218   -0.2465428  0.00   -0.0568445   -0.0555282    0.0038746
h    -0.2801823   -1.4630224   -0.2378877  0.00    0.0214487    0.0278012   -0.0011627
c     3.6757139    1.0440603   -0.3730786  0.00    0.0100711    0.0036562    0.0112491
c     4.7330663    0.0252100    0.0977028  0.00   -0.0370123    0.0019761    0.0047938
h     3.8096872    1.9828317    0.1968696  0.00    0.0015026   -0.0056681   -0.0057946
h     3.8541559    1.3000629   -1.4350079  0.00   -0.0028841   -0.0005600    0.0058682
c     6.0937188    0.7100953    0.2495703  0.00    0.0755968    0.1804327    0.1330306
n     4.9001635   -1.1157213   -0.8540319  0.00    0.0431770   -0.0346468   -0.0230685
h     4.4700947   -0.3673830    1.0963971  0.00    0.0047928   -0.0072022   -0.0137802
h     4.7766782   -1.9950931   -0.3223472  0.00   -0.0033500    0.0202684   -0.0043598
h     4.1438758   -1.1041064   -1.5591077  0.00    0.0054770    0.0034033    0.0218434
h    -2.3602131    3.0676551    0.0367475  0.00   -0.0005535    0.0001313    0.0000231
h    -2.1550787    0.5998586   -0.0561085  0.00   -0.0022298    0.0020901   -0.0000282
h    -0.3471816    4.4837411    0.0035281  0.00    0.0004553    0.0001627    0.0001583
h     1.8956938    3.4651048   -0.1210813  0.00   -0.0001997    0.0014929    0.0003692
h     2.2830806   -1.6232974   -0.3200517  0.00   -0.0195174   -0.0079475   -0.0000582
o     6.3038627    1.7314377    1.0040702  0.00   -0.0267745   -0.1355649   -0.1112902
o     7.1111009    0.1263200   -0.4593032  0.00   -0.0641774   -0.0156094   -0.0281199
h     7.6885053   -0.3403581    0.2315910  0.00   -0.0083982   -0.0106483    0.0147963
    27
 Energy =       0.2338607442
c    -1.4122265    2.5212212    0.0063979  0.00   -0.0260208    0.0213496    0.0015263
c    -1.2822880    1.1467144   -0.0656780  0.00   -0.0482013   -0.0190578    0.0011331
c    -0.0094798    0.6214394   -0.1118061  0.00   -0.0481686   -0.1026112    0.0018613
c    -0.2963243    3.3356125    0.0183447  0.00   -0.0130228    0.0390914    0.0015911
c     0.9734253    2.7881834   -0.0385620  0.00    0.0064294    0.0367394    0.0004389
c     1.1098110    1.4088129   -0.0991598  0.00    0.0290072    0.0301812    0.0010869
n     0.3790521   -0.7107991   -0.2577191  0.00    0.0767764    0.0580937   -0.0051160
c     2.2341457    0.5838192   -0.1746469  0.00    0.0778717   -0.0326104   -0.0094840
c     1.7774011   -0.7046305   -0.2286872  0.00   -0.0517889   -0.0519752    0.0039940
h    -0.2371889   -1.5301363   -0.3330457  0.00    0.0186605    0.0241153   -0.0013720
c     3.6620071    1.0794408   -0.2944372  0.00    0.0075364    0.0028009    0.0112060
c     4.7626914    0.0620874    0.0834448  0.00   -0.0350173    0.0023005    0.0057555
h     3.7685431    1.9739357    0.3556227  0.00    0.0008360   -0.0014743   -0.0031653
h     3.8265002    1.4314707   -1.3362264  0.00   -0.0016623    0.0010722    0.0012098
c     6.1082571    0.7831009    0.2104959  0.00    0.0686177    0.1702583    0.1268595
n     4.9219692   -1.0267782   -0.9295477  0.00    0.0439690   -0.0318509   -0.0258853
h     4.5500165   -0.3863419    1.0743870  0.00    0.0038818   -0.0077877   -0.0104049
h     4.8540395   -1.9400634   -0.4406419  0.00   -0.0031844    0.0148829   -0.0016126
h     4.1362200   -0.9994226   -1.6042982  0.00    0.0039964    0.0035674    0.0193241
h    -2.4042001    2.9656538    0.0453753  0.00   -0.0007727    0.0001724    0.0000307
h    -2.1562979    0.5035224   -0.0962929  0.00   -0.0026778    0.0014872   -0.0000475
h    -0.4148173    4.4155811    0.0705809  0.00    0.0004774    0.0005013    0.0001635
h     1.8456571    3.4361672   -0.0332227  0.00    0.0002266    0.0017335    0.0003480
h     2.3397589   -1.6275035   -0.2959373  0.00   -0.0182839   -0.0080142    0.0000570
o     6.2952434    1.8207997    0.9592995  0.00   -0.0245172   -0.1275146   -0.1048544
o     7.1266816    0.2623445   -0.5495922  0.00   -0.0583030   -0.0144898   -0.0304148
h     7.7196742   -0.2390530    0.1037558  0.00   -0.0066655   -0.0109612    0.0157711
    27
 Energy =       0.2295277505
c    -1.4007138    2.5318369    0.0234050  0.00   -0.0247194    0.0200655    0.0014464
c    -1.2728558    1.1568369   -0.0190722  0.00   -0.0454342   -0.0184565    0.0009932
c    -0.0030548    0.6302957   -0.0797793  0.00   -0.0444961   -0.0942067    0.0015426
c    -0.2845393    3.3449425   -0.0032738  0.00   -0.0118727    0.0370946    0.0015252
c     0.9824418    2.7955327   -0.0745244  0.00    0.0062571    0.0348372    0.0004624
c     1.1150603    1.4165075   -0.1099466  0.00    0.0275366    0.0288189    0.0010458
n     0.3789975   -0.7116722   -0.1644483  0.00    0.0692533    0.0529894   -0.0043754
c     2.2354689    0.5923963   -0.1941517  0.00    0.0737950   -0.0303103   -0.0088087
c     1.7806914   -0.6967653   -0.2147905  0.00   -0.0453908   -0.0477718    0.0033933
h    -0.2396664   -1.5363857   -0.1742926  0.00    0.0154022    0.0198886   -0.0012175
c     3.6629335    1.0815860   -0.3421442  0.00    0.0072004    0.0026086    0.0105205
c     4.7563522    0.0623325    0.0545697  0.00   -0.0331853    0.0021120    0.0054849
h     3.7796567    1.9905028    0.2868319  0.00    0.0007939   -0.0010608   -0.0027888
h     3.8211361    1.4086067   -1.3932558  0.00   -0.0014499    0.0010650    0.0007932
c     6.1045426    0.7732990    0.1961673  0.00    0.0636349    0.1601394    0.1196130
n     4.9150215   -1.0353440   -0.9477356  0.00    0.0434646   -0.0280223   -0.0244150
h     4.5309369   -0.3756184    1.0480015  0.00    0.0035799   -0.0073398   -0.0096493
h     4.7890301   -1.9451690   -0.4591429  0.00   -0.0034106    0.0116625   -0.0000654
h     4.1577566   -0.9809071   -1.6561223  0.00    0.0018637    0.0038043    0.0167922
h    -2.3915596    2.9776653    0.0743574  0.00   -0.0008459    0.0001059    0.0000302
h    -2.1474431    0.5125668   -0.0086459  0.00   -0.0031809    0.0008116   -0.0000402
h    -0.4010850    4.4260846    0.0288716  0.00    0.0005443    0.0007021    0.0001580
h     1.8554901    3.4425755   -0.1011056  0.00    0.0006211    0.0019739    0.0003209
h     2.3472668   -1.6161578   -0.2930477  0.00   -0.0168879   -0.0075640   -0.0000855
o     6.2859576    1.8092025    0.9585853  0.00   -0.0228625   -0.1197700   -0.0984203
o     7.1399572    0.2356147   -0.5301855  0.00   -0.0562727   -0.0115887   -0.0320848
h     7.6804916   -0.3151868    0.1330785  0.00   -0.0039382   -0.0125885    0.0178291
    27
 Energy =       0.2213998086
c    -1.3881435    2.5207568    0.0576916  0.00   -0.0194554    0.0156851    0.0011275
c    -1.2561810    1.1493732    0.0423315  0.00   -0.0355867   -0.0148434    0.0005797
c     0.0083665    0.6268592   -0.0296736  0.00   -0.0343323   -0.0719842    0.0002879
c    -0.2766237    3.3339384   -0.0027853  0.00   -0.0089604    0.0292405    0.0012913
c     0.9861003    2.7867300   -0.0845206  0.00    0.0050894    0.0274678    0.0005140
c     1.1163019    1.4131815   -0.0960155  0.00    0.0216539    0.0229338    0.0009225
n     0.3883126   -0.7239581   -0.0600794  0.00    0.0524929    0.0400504   -0.0021423
c     2.2327383    0.6028744   -0.1829691  0.00    0.0581799   -0.0230655   -0.0066727
c     1.7939959   -0.6878515   -0.1709781  0.00   -0.0338175   -0.0365945    0.0017634
h    -0.2259457   -1.5565900   -0.0155395  0.00    0.0106264    0.0135693   -0.0005939
c     3.6558091    1.1009475   -0.3493119  0.00    0.0050713    0.0024190    0.0084119
c     4.7608153    0.0719243   -0.0022266  0.00   -0.0254173    0.0021692    0.0046768
h     3.7814512    1.9906558    0.3068941  0.00    0.0005182   -0.0003813   -0.0017936
h     3.7924028    1.4603299   -1.3937721  0.00   -0.0011173    0.0011053   -0.0001083
c     6.1099640    0.7768091    0.1406378  0.00    0.0500268    0.1246347    0.0946867
n     4.8907238   -0.9969621   -1.0347273  0.00    0.0367272   -0.0209044   -0.0189025
h     4.5534055   -0.3886387    0.9870598  0.00    0.0028107   -0.0058127   -0.0069782
h     4.7292666   -1.9230292   -0.5829909  0.00   -0.0032225    0.0069189    0.0007731
h     4.1512682   -0.8922651   -1.7618890  0.00   -0.0005680    0.0031077    0.0111601
h    -2.3792204    2.9647332    0.1178567  0.00   -0.0007382    0.0000428    0.0000214
h    -2.1271336    0.5013668    0.0882170  0.00   -0.0029838    0.0001833   -0.0000147
h    -0.3950152    4.4153616    0.0104132  0.00    0.0005009    0.0007507    0.0001301
h     1.8581999    3.4335898   -0.1387046  0.00    0.0007885    0.0017878    0.0002406
h     2.3805790   -1.5946806   -0.2495302  0.00   -0.0128003   -0.0060927   -0.0003632
o     6.2806926    1.8195283    0.9294266  0.00   -0.0179108   -0.0938907   -0.0763985
o     7.1691673    0.2405990   -0.5574474  0.00   -0.0575264    0.0138000   -0.0497029
h     7.5869736   -0.4704046    0.0708356  0.00    0.0099509   -0.0322970    0.0370838
    27
 Energy =       0.2147475875
c    -1.3705598    2.5250546    0.0729421  0.00   -0.0142409    0.0114350    0.0008221
c    -1.2446720    1.1572075    0.0569147  0.00   -0.0260520   -0.0108914    0.0004208
c     0.0116147    0.6297199   -0.0154967  0.00   -0.0250554   -0.0526768    0.0002907
c    -0.2567162    3.3298731    0.0125094  0.00   -0.0066103    0.0213951    0.0009489
c     0.9989928    2.7760113   -0.0680780  0.00    0.0037345    0.0201319    0.0003717
c     1.1170980    1.4071061   -0.0794999  0.00    0.0158041    0.0168234    0.0006741
n     0.3773436   -0.7285524   -0.0512490  0.00    0.0384197    0.0292759   -0.0016852
c     2.2249898    0.6016506   -0.1633809  0.00    0.0426809   -0.0169663   -0.0048205
c     1.7892440   -0.6861124   -0.1551796  0.00   -0.0245506   -0.0268463    0.0012574
h    -0.2420577   -1.5610896   -0.0130186  0.00    0.0077529    0.0099086   -0.0004592
c     3.6503570    1.1004811   -0.3191233  0.00    0.0029911    0.0017415    0.0064137
c     4.7611367    0.0604350   -0.0145071  0.00   -0.0191008    0.0020941    0.0036616
h     3.7810932    1.9651057    0.3707469  0.00    0.0003553    0.0003977   -0.0007825
h     3.7822951    1.4991894   -1.3506201  0.00   -0.0008083    0.0011797   -0.0008729
c     6.1179814    0.7525396    0.1021205  0.00    0.0369475    0.0908491    0.0696397
n     4.8486125   -0.9984166   -1.0568883  0.00    0.0403234   -0.0091761   -0.0083553
h     4.5777415   -0.4042199    0.9789190  0.00    0.0021137   -0.0039678   -0.0044669
h     4.5705135   -1.9231300   -0.6425384  0.00   -0.0070694   -0.0057515    0.0054904
h     4.1828382   -0.7998095   -1.8475672  0.00   -0.0101740    0.0057800   -0.0024422
h    -2.3592328    2.9741112    0.1329508  0.00   -0.0005578    0.0000329    0.0000166
h    -2.1176010    0.5125791    0.1015551  0.00   -0.0021875    0.0001199   -0.0000116
h    -0.3689144    4.4118576    0.0254021  0.00    0.0003583    0.0005704    0.0000958
h     1.8754517    3.4165351   -0.1218571  0.00    0.0006034    0.0013158    0.0001702
h     2.3845763   -1.5862578   -0.2316422  0.00   -0.0076940   -0.0046491   -0.0008620
o     6.3013422    1.8179576    0.8897992  0.00   -0.0128917   -0.0684455   -0.0561321
o     7.1807225    0.2158090   -0.5960162  0.00   -0.0422976    0.0100435   -0.0366512
h     7.6040809   -0.4904565    0.0210061  0.00    0.0072055   -0.0237235    0.0272678
    27
 Energy =       0.2105657082
c    -1.3631536    2.5145942    0.1033093  0.00   -0.0105806    0.0082253    0.0006218
c    -1.2345201    1.1495947    0.1259078  0.00   -0.0187862   -0.0085486    0.0001375
c     0.0170542    0.6231431    0.0450067  0.00   -0.0180025   -0.0370317   -0.0004293
c    -0.2532023    3.3174478   -0.0017683  0.00   -0.0041569    0.0158697    0.0007667
c     0.9984243    2.7631633   -0.0904766  0.00    0.0029012    0.0151006    0.0004110
c     1.1145636    1.3983016   -0.0639841  0.00    0.0116833    0.0124256    0.0006011
n     0.3811046   -0.7402537    0.0600256  0.00    0.0272551    0.0198071   -0.0005675
c     2.2186981    0.6009777   -0.1429433  0.00    0.0308352   -0.0108694   -0.0033383
c     1.7946459   -0.6871916   -0.0812456  0.00   -0.0177429   -0.0195216    0.0004670
h    -0.2350757   -1.5756195    0.1457345  0.00    0.0045122    0.0055944   -0.0000506
c     3.6393159    1.1037832   -0.3371629  0.00    0.0020846    0.0015592    0.0046321
c     4.7631462    0.0671639   -0.0657387  0.00   -0.0135333    0.0016654    0.0029052
h     3.7847227    1.9666055    0.3523882  0.00    0.0002544    0.0003447   -0.0004400
h     3.7432095    1.5051493   -1.3709570  0.00   -0.0005676    0.0009606   -0.0010033
c     6.1201360    0.7623564    0.0220219  0.00    0.0267550    0.0645393    0.0501432
n     4.8181770   -0.9856695   -1.1127379  0.00    0.0298865   -0.0063175   -0.0063826
h     4.6049545   -0.3978874    0.9329504  0.00    0.0015017   -0.0028921   -0.0028454
h     4.5700089   -1.9163314   -0.6955174  0.00   -0.0051509   -0.0046926    0.0043189
h     4.1314819   -0.7936124   -1.8856462  0.00   -0.0076464    0.0042557   -0.0023484
h    -2.3512419    2.9638062    0.1699295  0.00   -0.0004607   -0.0000223    0.0000127
h    -2.1042274    0.5040227    0.2103106  0.00   -0.0021534   -0.0005181    0.0000370
h    -0.3663643    4.3995769   -0.0182188  0.00    0.0003840    0.0008794    0.0000608
h     1.8736271    3.4020752   -0.1796037  0.00    0.0008985    0.0014071    0.0000837
h     2.4038254   -1.5805561   -0.1322103  0.00   -0.0057706   -0.0038255   -0.0005879
o     6.3041683    1.8501772    0.8042915  0.00   -0.0091545   -0.0486132   -0.0403222
o     7.1887797    0.2344764   -0.6784316  0.00   -0.0304237    0.0072207   -0.0266104
h     7.6160131   -0.4741147   -0.0770303  0.00    0.0051785   -0.0170025    0.0197272
    27
 Energy =       0.2084159372
c    -1.3714271    2.4820724    0.0669958  0.00   -0.0078387    0.0063057    0.0004991
c    -1.2294165    1.1206277    0.1111659  0.00   -0.0138797   -0.0064134    0.0001097
c     0.0249032    0.6054851    0.0446741  0.00   -0.0136046   -0.0268018   -0.0004057
c    -0.2694023    3.2925212   -0.0428650  0.00   -0.0031557    0.0118748    0.0006392
c     0.9857860    2.7486653   -0.1135048  0.00    0.0022565    0.0112288    0.0003370
c     1.1116079    1.3884418   -0.0666523  0.00    0.0081364    0.0094709    0.0004775
n     0.4017373   -0.7566923    0.0932569  0.00    0.0197524    0.0142341   -0.0004360
c     2.2227772    0.6082597   -0.1126101  0.00    0.0221709   -0.0082112   -0.0019480
c     1.8205718   -0.6829635   -0.0201585  0.00   -0.0132309   -0.0140746    0.0001671
h    -0.2059046   -1.5991899    0.1843181  0.00    0.0032832    0.0039804   -0.0000207
c     3.6413937    1.1324828   -0.2649475  0.00    0.0000952    0.0004288    0.0037817
c     4.7715687    0.0780817   -0.0884986  0.00   -0.0087430    0.0031788    0.0048449
h     3.7806300    1.9367686    0.4995731  0.00    0.0002781    0.0035746    0.0026271
h     3.7429624    1.6219386   -1.2646674  0.00   -0.0002078    0.0028239   -0.0045113
c     6.1291071    0.7683236    0.0275511  0.00    0.0193218    0.0463285    0.0370454
n     4.8003915   -0.8989923   -1.2103349  0.00    0.0248721   -0.0066784   -0.0094828
h     4.6308410   -0.4554403    0.8817311  0.00    0.0009234   -0.0034454    0.0005972
h     4.5707902   -1.8606589   -0.8542706  0.00   -0.0039454   -0.0072203    0.0045167
h     4.0940950   -0.6597385   -1.9530585  0.00   -0.0073723    0.0036100   -0.0042472
h    -2.3640397    2.9229813    0.1213730  0.00   -0.0004383    0.0000761    0.0000156
h    -2.0925142    0.4678144    0.2023725  0.00   -0.0016327   -0.0004432    0.0000342
h    -0.3923228    4.3732061   -0.0754165  0.00    0.0002422    0.0008309    0.0000479
h     1.8572703    3.3925639   -0.2020557  0.00    0.0007756    0.0009875    0.0000263
h     2.4543070   -1.5634761   -0.0140882  0.00   -0.0034122   -0.0043482   -0.0001043
o     6.3011271    1.8377683    0.8549276  0.00   -0.0064056   -0.0349941   -0.0284397
o     7.2205480    0.2505745   -0.6489160  0.00   -0.0287871    0.0251879   -0.0356132
h     7.5408837   -0.5762465   -0.1176916  0.00    0.0105462   -0.0314911    0.0294423
    27
 Energy =       0.2071609322
c    -1.3928766    2.4208581    0.0648375  0.00   -0.0067747    0.0054161    0.0004311
c    -1.2314944    1.0629125    0.1254019  0.00   -0.0118043   -0.0056064    0.0000891
c     0.0284152    0.5645395    0.0581325  0.00   -0.0115616   -0.0226219   -0.0003927
c    -0.3032546    3.2444830   -0.0619919  0.00   -0.0025631    0.0102442    0.0005402
c     0.9579240    2.7171194   -0.1331156  0.00    0.0020279    0.0096644    0.0002850
c     1.1019384    1.3604343   -0.0693223  0.00    0.0069084    0.0080200    0.0004057
n     0.4237992   -0.7929901    0.1211889  0.00    0.0165117    0.0117824   -0.0002966
c     2.2228188    0.5979879   -0.1117590  0.00    0.0186899   -0.0069345   -0.0017277
c     1.8420576   -0.6972985   -0.0022702  0.00   -0.0110888   -0.0120198    0.0000936
h    -0.1709881   -1.6438402    0.2262710  0.00    0.0025783    0.0030510    0.0000252
c     3.6315651    1.1436324   -0.2815071  0.00   -0.0002834    0.0006584    0.0029635
c     4.7855227    0.1206022   -0.0743627  0.00   -0.0076219    0.0027333    0.0051703
h     3.7557617    1.9716366    0.4601119  0.00    0.0003810    0.0034936    0.0026128
h     3.7222050    1.6077650   -1.2938959  0.00   -0.0002923    0.0026737   -0.0041746
c     6.1224573    0.8537570    0.0276615  0.00    0.0139077    0.0396942    0.0321277
n     4.8397341   -0.8843489   -1.1696188  0.00    0.0210611   -0.0066765   -0.0083577
h     4.6547651   -0.3897944    0.9097719  0.00    0.0009207   -0.0031392    0.0008502
h     4.6133718   -1.8389402   -0.7948088  0.00   -0.0033745   -0.0064034    0.0038768
h     4.1462083   -0.6688856   -1.9310411  0.00   -0.0067454    0.0032002   -0.0042332
h    -2.3912186    2.8487127    0.1195158  0.00   -0.0004684    0.0001133    0.0000178
h    -2.0846700    0.3992022    0.2299075  0.00   -0.0015241   -0.0005160    0.0000451
h    -0.4412156    4.3229585   -0.1077162  0.00    0.0002082    0.0009146    0.0000316
h     1.8196862    3.3719829   -0.2353927  0.00    0.0008156    0.0009774    0.0000073
h     2.4913784   -1.5659068    0.0096253  0.00   -0.0027684   -0.0038432   -0.0000883
o     6.2730603    1.8993802    0.8969154  0.00   -0.0058554   -0.0284000   -0.0224307
o     7.2184997    0.4093277   -0.6991698  0.00   -0.0218361    0.0250739   -0.0360729
h     7.5428207   -0.4601087   -0.2451659  0.00    0.0105519   -0.0315499    0.0282012
    27
 Energy =       0.2048355171
c    -1.4001940    2.3854261    0.0184114  0.00   -0.0039484    0.0035324    0.0002735
c    -1.2262757    1.0333196    0.1211757  0.00   -0.0065511   -0.0037860    0.0000386
c     0.0348837    0.5445162    0.0676915  0.00   -0.0066627   -0.0124911   -0.0004830
c    -0.3189977    3.2128891   -0.1351997  0.00   -0.0013169    0.0062726    0.0003892
c     0.9444126    2.6942879   -0.1898740  0.00    0.0011231    0.0060392    0.0002282
c     1.0977308    1.3439009   -0.0839927  0.00    0.0037534    0.0045818    0.0003060
n     0.4391025   -0.8101184    0.1745022  0.00    0.0095052    0.0057837    0.0000040
c     2.2227378    0.5961035   -0.0976398  0.00    0.0105784   -0.0031696   -0.0011161
c     1.8594936   -0.6979941    0.0550751  0.00   -0.0064715   -0.0072587   -0.0000453
h    -0.1483728   -1.6644086    0.3034477  0.00    0.0012155    0.0012219    0.0001033
c     3.6273602    1.1523122   -0.2681349  0.00   -0.0001100    0.0003644    0.0016065
c     4.7884027    0.1414214   -0.0541706  0.00   -0.0043027    0.0011802    0.0033745
h     3.7436706    1.9832320    0.4692751  0.00    0.0002722    0.0019765    0.0014786
h     3.7168689    1.6108108   -1.2810542  0.00   -0.0001775    0.0014999   -0.0023278
c     6.1150904    0.8888349    0.0584829  0.00    0.0038183    0.0204134    0.0149004
n     4.8503828   -0.8633826   -1.1445252  0.00    0.0118162   -0.0038694   -0.0045980
h     4.6556477   -0.3649546    0.9310806  0.00    0.0005103   -0.0017327    0.0004852
h     4.6312232   -1.8180857   -0.7710970  0.00   -0.0019011   -0.0035918    0.0021207
h     4.1633617   -0.6564582   -1.9115257  0.00   -0.0038430    0.0018143   -0.0024046
h    -2.4020471    2.8062433    0.0609315  0.00   -0.0003304    0.0002077    0.0000075
h    -2.0725820    0.3651832    0.2477537  0.00   -0.0009951   -0.0005710    0.0000518
h    -0.4661299    4.2884528   -0.2142903  0.00    0.0000753    0.0011381   -0.0000121
h     1.8007647    3.3525626   -0.3114895  0.00    0.0005445    0.0007928   -0.0000164
h     2.5255116   -1.5530917    0.1050136  0.00   -0.0010806   -0.0029740   -0.0000129
o     6.2694895    1.8665709    1.0231698  0.00   -0.0039250   -0.0109916   -0.0051128
o     7.2057760    0.5313867   -0.7308947  0.00   -0.0120941    0.0239447   -0.0322306
h     7.5209600   -0.3937814   -0.4039190  0.00    0.0104977   -0.0303278    0.0229917
    27
 Energy =       0.2046103939
c    -1.3874144    2.4213084   -0.0663408  0.00   -0.0035348    0.0029328    0.0002530
c    -1.2274308    1.0689788    0.0476442  0.00   -0.0056662   -0.0030774    0.0000677
c     0.0297039    0.5688948    0.0221575  0.00   -0.0055253   -0.0102079   -0.0003766
c    -0.2959473    3.2378834   -0.2023871  0.00   -0.0012951    0.0053530    0.0003172
c     0.9636056    2.7078853   -0.2272145  0.00    0.0012212    0.0049155    0.0001658
c     1.1020266    1.3575925   -0.1110631  0.00    0.0030088    0.0037789    0.0002257
n     0.4186713   -0.7891314    0.1456869  0.00    0.0072578    0.0046980   -0.0000035
c     2.2200410    0.6013958   -0.0931431  0.00    0.0085001   -0.0029895   -0.0009756
c     1.8434962   -0.6881555    0.0616769  0.00   -0.0046770   -0.0059141   -0.0000614
h    -0.1794684   -1.6378278    0.2645429  0.00    0.0008560    0.0008473    0.0001070
c     3.6349796    1.1446390   -0.2213929  0.00    0.0002130    0.0001910    0.0012229
c     4.7750517    0.1097782   -0.0127870  0.00   -0.0036980    0.0004124    0.0023505
h     3.7487578    1.9540243    0.5401831  0.00    0.0004511    0.0019895    0.0015566
h     3.7511901    1.6269589   -1.2206920  0.00   -0.0001597    0.0015901   -0.0025183
c     6.1117638    0.8295412    0.1495529  0.00    0.0026761    0.0148136    0.0093036
n     4.8386373   -0.8671273   -1.1277082  0.00    0.0097008   -0.0031882   -0.0043050
h     4.6145048   -0.4197390    0.9567189  0.00    0.0003655   -0.0018499    0.0010402
h     4.6108688   -1.8293251   -0.7795922  0.00   -0.0017094   -0.0035170    0.0019206
h     4.1583548   -0.6388645   -1.8943052  0.00   -0.0033875    0.0015041   -0.0023029
h    -2.3863790    2.8511708   -0.0466507  0.00   -0.0005728    0.0002778    0.0000155
h    -2.0819724    0.4090418    0.1609805  0.00   -0.0009747   -0.0005267    0.0000617
h    -0.4319058    4.3141403   -0.2903911  0.00    0.0000048    0.0010357   -0.0000160
h     1.8287855    3.3573946   -0.3331913  0.00    0.0006566    0.0007277   -0.0000374
h     2.5037383   -1.5463581    0.1386735  0.00   -0.0004733   -0.0026787    0.0000316
o     6.2788794    1.7402560    1.1819229  0.00   -0.0022876   -0.0052152    0.0002102
o     7.2010678    0.5061331   -0.6554258  0.00   -0.0095212    0.0194028   -0.0272738
h     7.5346656   -0.4153099   -0.3492521  0.00    0.0085707   -0.0253058    0.0190205
    27
 Energy =       0.2045580849
c    -1.3709318    2.4563579   -0.1526649  0.00   -0.0031728    0.0026758    0.0002023
c    -1.2259269    1.1050571   -0.0131944  0.00   -0.0048747   -0.0025079    0.0000838
c     0.0262745    0.5929139   -0.0050648  0.00   -0.0045869   -0.0079428   -0.0003409
c    -0.2691597    3.2600827   -0.2788975  0.00   -0.0014624    0.0046486    0.0002508
c     0.9854766    2.7179294   -0.2679404  0.00    0.0013129    0.0039902    0.0001174
c     1.1080178    1.3689633   -0.1280059  0.00    0.0022075    0.0030752    0.0001490
n     0.3992498   -0.7665849    0.1536019  0.00    0.0055094    0.0034097    0.0000218
c     2.2179815    0.6044270   -0.0691318  0.00    0.0066604   -0.0028357   -0.0008683
c     1.8275459   -0.6781092    0.1058226  0.00   -0.0031423   -0.0048392   -0.0001112
h    -0.2094309   -1.6079773    0.2727607  0.00    0.0006091    0.0005593    0.0001005
c     3.6414797    1.1349291   -0.1548128  0.00    0.0001796   -0.0002061    0.0009650
c     4.7638242    0.0737205    0.0138024  0.00   -0.0026161    0.0000697    0.0021780
h     3.7578459    1.9063128    0.6461219  0.00    0.0006709    0.0026417    0.0022584
h     3.7760093    1.6614834   -1.1300989  0.00   -0.0001864    0.0020633   -0.0032060
c     6.1131307    0.7609994    0.2034436  0.00    0.0013148    0.0102579    0.0050368
n     4.8064257   -0.8648792   -1.1345010  0.00    0.0105205   -0.0015012   -0.0030571
h     4.5962691   -0.4870323    0.9646574  0.00    0.0003355   -0.0018463    0.0014960
h     4.5278930   -1.8292907   -0.8276519  0.00   -0.0021018   -0.0060785    0.0023067
h     4.1542317   -0.5778599   -1.9078219  0.00   -0.0048741    0.0018897   -0.0044938
h    -2.3661674    2.8958808   -0.1604031  0.00   -0.0008547    0.0004437    0.0000085
h    -2.0887047    0.4550749    0.0942883  0.00   -0.0008896   -0.0004629    0.0000604
h    -0.3930850    4.3360736   -0.3865355  0.00   -0.0001229    0.0010992   -0.0000317
h     1.8595047    3.3571355   -0.3636821  0.00    0.0007317    0.0006131   -0.0000437
h     2.4803614   -1.5379579    0.2268612  0.00    0.0003081   -0.0028804    0.0001534
o     6.3079138    1.6031861    1.2923701  0.00   -0.0011631   -0.0008735    0.0044587
o     7.1892234    0.4687002   -0.6300756  0.00   -0.0072273    0.0163662   -0.0234043
h     7.5630196   -0.4343577   -0.3250445  0.00    0.0069148   -0.0218286    0.0157096
    27
 Energy =       0.2043791759
c    -1.3483157    2.5129859   -0.2027606  0.00   -0.0028140    0.0021800    0.0001658
c    -1.2244494    1.1588486   -0.0748786  0.00   -0.0041169   -0.0022270    0.0001059
c     0.0196220    0.6289076   -0.0556907  0.00   -0.0036916   -0.0062411   -0.0002671
c    -0.2336724    3.3017029   -0.3078962  0.00   -0.0011008    0.0040141    0.0001632
c     1.0125873    2.7415593   -0.2862728  0.00    0.0012899    0.0034001    0.0000554
c     1.1135836    1.3902373   -0.1568211  0.00    0.0019700    0.0025969    0.0000856
n     0.3695138   -0.7389964    0.0846919  0.00    0.0043219    0.0024001    0.0000427
c     2.2108118    0.6092635   -0.0954891  0.00    0.0054431   -0.0017739   -0.0005400
c     1.7996738   -0.6704026    0.0510875  0.00   -0.0025474   -0.0041386   -0.0001192
h    -0.2532562   -1.5730377    0.1845802  0.00    0.0001937    0.0000383    0.0001274
c     3.6439304    1.1160456   -0.1708600  0.00   -0.0013142    0.0003296    0.0012143
c     4.7432599    0.0430284    0.0718571  0.00   -0.0013602    0.0000181    0.0016222
h     3.7536973    1.9177406    0.6010306  0.00    0.0000983    0.0028571    0.0024502
h     3.8100306    1.5990401   -1.1645038  0.00    0.0000003    0.0024493   -0.0039338
c     6.0935142    0.7150437    0.3033647  0.00    0.0014376    0.0080165    0.0038725