23
UFF-Energy = 0.100322
C    -5.9155365    1.9540412    0.1346830 
C    -5.8121581    0.6015409    0.1520433 
C    -4.6112060    0.0073467    0.0142869 
C    -4.8018654    2.7534530   -0.0228644 
C    -3.5886462    2.1115635   -0.1646745 
C    -3.5045593    0.7576968   -0.1482567 
H    -2.6661324    2.6485172   -0.3539124 
H    -2.5480363    0.2632903   -0.2804830 
H    -6.6940031   -0.0164135    0.2843756 
H    -6.9049645    2.3625529    0.3052914 
O    -4.5145387   -1.3808280    0.0336648 
H    -4.3654653   -1.7132214    0.9796023 
C    -4.8975380    4.1388421   -0.0400212 
C    -3.8213020    4.9407463    0.2776240 
C    -3.9218824    6.2918847    0.2609517 
C    -5.0868279    6.8837976   -0.0731756 
C    -6.1589122    6.1297267   -0.3911648 
C    -6.0730618    4.7775518   -0.3752240 
H    -6.9560505    4.2364591   -0.6941477 
H    -7.0923106    6.6106518   -0.6720550 
H    -2.8726297    4.5337103    0.6070511 
H    -3.0636238    6.9030167    0.5279757 
H    -5.1615393    7.9679173   -0.0865145 
