    13
 Energy =       0.4293593987
c    -3.7133889    1.6950595    0.3173519  0.00   -0.1095760    0.1255539   -0.0275156
c    -2.4962693    2.6345192    0.2419999  0.00    0.3503764   -0.0202307    0.1241482
c    -4.9565486    2.3924193   -0.2155699  0.00    0.7196991    0.7537702   -0.2518403
h    -5.8072983    1.7014095   -0.2223689  0.00    0.0147434    0.0093714   -0.0026012
h    -4.8071186    2.7393792   -1.2437896  0.00    0.7351123    0.6628396    0.4172679
h    -5.2375685    3.2516891    0.4029209  0.00    0.0563178    0.0020860   -0.0528401
n    -3.4097890    0.4519539   -0.4549189  0.00    0.0263407   -0.0731493   -0.0101067
h    -3.8575589    1.4177196    1.3669296  0.00    0.0043370   -0.0124947   -0.0278171
h    -3.2072391   -0.2948399    0.2179739  0.00   -0.0178842    0.0308433   -0.0190718
h    -4.2689788    0.1396900   -0.9176007  0.00    0.0232277    0.0227207    0.0255928
o    -1.4040496    2.4172293    0.7380088  0.00   -0.2628015    0.0522218   -0.1221473
o    -2.7835192    3.7545589   -0.4737969  0.00   -0.1094561   -0.0779393   -0.0003449
h    -3.7512389    3.6942389   -0.6738148  0.00   -1.4304365   -1.4755928   -0.0527238
    13
 Energy =       0.4164459882
c    -3.7123584    1.7143584    0.3324746  0.00   -0.1043397    0.1234632   -0.0248043
c    -2.5071574    2.6697793    0.2386474  0.00    0.3357915   -0.0191242    0.1195198
c    -4.9642210    2.3582734   -0.2759942  0.00    0.6899893    0.7252638   -0.2437004
h    -5.7929437    1.6391675   -0.2893326  0.00    0.0134943    0.0087072   -0.0024399
h    -4.8322135    2.7275979   -1.3021342  0.00    0.7054129    0.6359778    0.4002926
h    -5.2912342    3.2254563    0.3086228  0.00    0.0533200    0.0033670   -0.0503162
n    -3.3664183    0.4300730   -0.3562063  0.00    0.0274806   -0.0717749   -0.0153022
h    -3.8842526    1.5033256    1.3955320  0.00    0.0040531   -0.0120312   -0.0239939
h    -3.1890778   -0.2712662    0.3767271  0.00   -0.0159526    0.0261617   -0.0145870
h    -4.1994236    0.0777791   -0.8410647  0.00    0.0206815    0.0208564    0.0232403
o    -1.3949634    2.4750790    0.7170423  0.00   -0.2515763    0.0501661   -0.1172446
o    -2.8072764    3.7764180   -0.4909821  0.00   -0.1020501   -0.0744524   -0.0000048
h    -3.7590256    3.6689853   -0.7300067  0.00   -1.3763045   -1.4165803   -0.0506595
    13
 Energy =       0.2631070179
c    -3.7122588    1.7141718    0.3146663  0.00   -0.0487162    0.0628566   -0.0162621
c    -2.5012532    2.6216184    0.1776882  0.00    0.1384240   -0.0019598    0.0471175
c    -4.9494757    2.3798644   -0.2971446  0.00    0.4041982    0.4156189   -0.1524047
h    -5.7886931    1.6594502   -0.3324136  0.00    0.0059271    0.0024452   -0.0022776
h    -4.8501010    2.7971999   -1.2898814  0.00    0.3931579    0.3574539    0.2347750
h    -5.2782144    3.2136232    0.3459927  0.00    0.0295388    0.0025639   -0.0264027
n    -3.4320651    0.3921842   -0.3059231  0.00    0.0189201   -0.0324329   -0.0085140
h    -3.8770192    1.5885019    1.4067000  0.00    0.0003446   -0.0028533   -0.0067827
h    -3.3112752   -0.3053275    0.4609889  0.00   -0.0072721    0.0087676   -0.0006620
h    -4.2493152    0.0575697   -0.8538479  0.00    0.0067359    0.0080908    0.0095536
o    -1.3381935    2.3163259    0.7319883  0.00   -0.1048597    0.0126116   -0.0437583
o    -2.7067444    3.7795494   -0.5368310  0.00   -0.0296155   -0.0311630   -0.0028347
h    -3.7059570    3.7802951   -0.7386576  0.00   -0.8067830   -0.8019995   -0.0315474
    13
 Energy =       0.2336821003
c    -3.7137771    1.6908481    0.3046762  0.00   -0.0403574    0.0559969   -0.0129867
c    -2.5065649    2.6095555    0.2127982  0.00    0.1150494   -0.0020442    0.0397510
c    -4.9553323    2.3967583   -0.2504676  0.00    0.3411701    0.3542696   -0.1297492
h    -5.8095424    1.6919338   -0.2790801  0.00    0.0045420    0.0020416   -0.0017833
h    -4.8422878    2.8035756   -1.2474049  0.00    0.3339388    0.3016914    0.1987699
h    -5.2534334    3.2264102    0.4177542  0.00    0.0245635    0.0027707   -0.0216259
n    -3.4457254    0.4131471   -0.4099785  0.00    0.0171162   -0.0281611   -0.0124136
h    -3.8660073    1.4920227    1.3912512  0.00    0.0000270   -0.0027351   -0.0028789
h    -3.3116561   -0.3427849    0.3022357  0.00   -0.0053180    0.0032753    0.0028300
h    -4.2667829    0.1192113   -0.9800691  0.00    0.0046231    0.0055820    0.0066336
o    -1.3406298    2.2801804    0.7742146  0.00   -0.0871331    0.0101603   -0.0362568
o    -2.6983646    3.8020013   -0.4554424  0.00   -0.0231338   -0.0236565   -0.0029059
h    -3.6904619    3.8121672   -0.6971623  0.00   -0.6850879   -0.6791908   -0.0273840
    13
 Energy =       0.1814619634
c    -3.7157554    1.6652042    0.2971956  0.00   -0.0234479    0.0370292   -0.0074245
c    -2.5113662    2.5927469    0.2502919  0.00    0.0670563   -0.0021643    0.0240511
c    -4.9662964    2.4044232   -0.2014266  0.00    0.2246382    0.2387964   -0.0865809
h    -5.8322293    1.7106166   -0.2260033  0.00    0.0023462    0.0012681   -0.0008881
h    -4.8363499    2.8082821   -1.2048801  0.00    0.2241416    0.1990353    0.1314520
h    -5.2379738    3.2270416    0.4927194  0.00    0.0155215    0.0024265   -0.0131126
n    -3.4640872    0.4401059   -0.5059822  0.00    0.0144346   -0.0145408   -0.0105627
h    -3.8538696    1.3977394    1.3740894  0.00   -0.0001901   -0.0020179    0.0008724
h    -3.3545445   -0.3794176    0.1434826  0.00   -0.0025824   -0.0036590    0.0056775
h    -4.2681862    0.2076960   -1.1368193  0.00   -0.0013359    0.0006783   -0.0005111
o    -1.3312219    2.2293703    0.8159185  0.00   -0.0507661    0.0049782   -0.0209868
o    -2.6752526    3.8268440   -0.3611693  0.00   -0.0109778   -0.0106215   -0.0020914
h    -3.6534328    3.8643739   -0.6540913  0.00   -0.4588382   -0.4512083   -0.0198949
    13
 Energy =       0.1416476318
c    -3.7204759    1.6617864    0.3102115  0.00   -0.0128339    0.0191857   -0.0044476
c    -2.4987405    2.5703836    0.2482451  0.00    0.0287329    0.0003695    0.0125456
c    -4.9735338    2.4064439   -0.1846614  0.00    0.1327794    0.1441402   -0.0510798
h    -5.8444718    1.7167980   -0.2108834  0.00    0.0010650    0.0006557   -0.0003929
h    -4.8107143    2.7981197   -1.1982279  0.00    0.1381225    0.1197539    0.0776667
h    -5.2409974    3.2374524    0.5039509  0.00    0.0086685    0.0016388   -0.0073832
n    -3.4971743    0.4334005   -0.4876354  0.00    0.0194434    0.0040293   -0.0030328
h    -3.8487641    1.4041919    1.3899233  0.00   -0.0001793   -0.0007064    0.0006945
h    -3.5132976   -0.4106335    0.1491838  0.00   -0.0007718   -0.0123931    0.0110291
h    -4.2445674    0.2815218   -1.2202680  0.00   -0.0125686   -0.0009033   -0.0109936
o    -1.2883939    2.1493764    0.7526863  0.00   -0.0202232   -0.0001467   -0.0098177
o    -2.6264216    3.8290612   -0.3295417  0.00   -0.0039390   -0.0042261   -0.0014287
h    -3.5930131    3.9171242   -0.6396578  0.00   -0.2782958   -0.2713975   -0.0133596
    13
 Energy =       0.1298403765
c    -3.7197998    1.6477231    0.2922492  0.00   -0.0131078    0.0179291   -0.0033605
c    -2.5232670    2.5948919    0.3034076  0.00    0.0177598    0.0027161    0.0064394
c    -4.9896992    2.3791798   -0.1802804  0.00    0.1085761    0.1176732   -0.0411819
h    -5.8481813    1.6737003   -0.2122088  0.00    0.0006667    0.0003844   -0.0002117
h    -4.8517022    2.8032541   -1.1867260  0.00    0.1124402    0.0982869    0.0627364
h    -5.2627851    3.1922678    0.5276586  0.00    0.0071128    0.0016688   -0.0059339
n    -3.4488636    0.4687435   -0.5660488  0.00    0.0170048    0.0024349   -0.0072066
h    -3.8600809    1.3297129    1.3562457  0.00   -0.0008143   -0.0008257    0.0025416
h    -3.4048015   -0.4015373    0.0342967  0.00   -0.0005089   -0.0138550    0.0111330
h    -4.2074802    0.3066142   -1.2822494  0.00   -0.0104241   -0.0005466   -0.0090502
o    -1.3372715    2.2204601    0.9114394  0.00   -0.0085593   -0.0011450   -0.0041074
o    -2.6475584    3.8517752   -0.2798796  0.00   -0.0012521   -0.0034113   -0.0004408
h    -3.5990752    3.9282410   -0.6345789  0.00   -0.2288937   -0.2213099   -0.0113572
    13
 Energy =       0.1096459788
c    -3.7219364    1.6355863    0.2702827  0.00   -0.0096797    0.0120786   -0.0016887
c    -2.5521273    2.6166946    0.3550897  0.00    0.0073658    0.0026810    0.0012263
c    -5.0164160    2.3454964   -0.1706361  0.00    0.0651304    0.0701422   -0.0241542
h    -5.8588838    1.6205202   -0.2120082  0.00    0.0000727   -0.0000747    0.0000134
h    -4.8993566    2.8065466   -1.1685438  0.00    0.0681738    0.0606912    0.0370187
h    -5.2972213    3.1362068    0.5601876  0.00    0.0042863    0.0015075   -0.0033874
n    -3.4072288    0.5180849   -0.6521055  0.00    0.0132004    0.0055963   -0.0101616
h    -3.8654021    1.2512398    1.3129334  0.00   -0.0012902   -0.0007578    0.0037023
h    -3.2460484   -0.3670394   -0.0911037  0.00    0.0010487   -0.0173606    0.0119903
h    -4.1990548    0.3130786   -1.3173595  0.00   -0.0090098    0.0004766   -0.0072254
o    -1.3918655    2.2609710    1.0308578  0.00   -0.0010223   -0.0005345   -0.0002759
o    -2.6597415    3.8843657   -0.2120734  0.00    0.0023451   -0.0013379    0.0008450
h    -3.5852834    3.9732751   -0.6221957  0.00   -0.1406210   -0.1331081   -0.0079029
    13
 Energy =       0.1010352756
c    -3.7091796    1.6207150    0.2409703  0.00   -0.0061022    0.0100380   -0.0000510
c    -2.5548361    2.6177528    0.3580753  0.00    0.0049032    0.0008200    0.0009213
c    -5.0368905    2.3232759   -0.1141979  0.00    0.0453293    0.0494497   -0.0164258
h    -5.8648211    1.5818405   -0.1620885  0.00   -0.0001745   -0.0002642    0.0002553
h    -4.9730462    2.8470511   -1.0912428  0.00    0.0489848    0.0458778    0.0237697
h    -5.3052018    3.0682117    0.6706658  0.00    0.0022198    0.0027011   -0.0008205
n    -3.3985733    0.5676800   -0.7567454  0.00    0.0118152    0.0045635   -0.0127237
h    -3.8143878    1.1688009    1.2628772  0.00   -0.0012993   -0.0015726    0.0054794
h    -3.1626198   -0.3332673   -0.2498568  0.00    0.0021299   -0.0175181    0.0118492
h    -4.2202081    0.3549124   -1.3806836  0.00   -0.0079132    0.0005080   -0.0063241
o    -1.3829238    2.2433881    1.0044984  0.00   -0.0001821   -0.0010589    0.0002947
o    -2.6774441    3.9125950   -0.1469434  0.00    0.0013890    0.0017776   -0.0004058
h    -3.6004337    4.0220705   -0.5520033  0.00   -0.1010999   -0.0953219   -0.0058188
    13
 Energy =       0.0965154808
c    -3.7288087    1.6337456    0.2583349  0.00   -0.0050876    0.0091746    0.0012286
c    -2.5989795    2.6552399    0.4141278  0.00    0.0013995    0.0000442   -0.0005754
c    -5.0481877    2.3029798   -0.1852898  0.00    0.0346862    0.0390562   -0.0128646
h    -5.8679722    1.5524080   -0.2295369  0.00   -0.0003086   -0.0002289    0.0001161
h    -4.9354667    2.7641618   -1.1918877  0.00    0.0401851    0.0382181    0.0163779
h    -5.3561117    3.0912113    0.5445503  0.00    0.0007791    0.0043065    0.0013843
n    -3.3493467    0.5720839   -0.7063085  0.00    0.0173722    0.0146622   -0.0112379
h    -3.8808093    1.1972811    1.2811006  0.00   -0.0013656   -0.0009800    0.0059929
h    -3.0039321   -0.2816663   -0.1715819  0.00    0.0055757   -0.0242791    0.0146181
h    -4.1784159    0.2437431   -1.2788410  0.00   -0.0162158   -0.0037401   -0.0121621
o    -1.4694311    2.3255624    1.1632516  0.00    0.0068264   -0.0035734    0.0051308
o    -2.6968016    3.9249992   -0.1639033  0.00    0.0043035    0.0031666    0.0004414
h    -3.5863025    4.0132768   -0.6506909  0.00   -0.0881503   -0.0758267   -0.0084502
    13
 Energy =       0.0882834650
c    -3.7307667    1.6374250    0.2515946  0.00   -0.0041024    0.0050061    0.0009507
c    -2.6420466    2.6991138    0.4496401  0.00    0.0007268    0.0012265   -0.0009403
c    -5.0737606    2.2483608   -0.1973690  0.00    0.0188024    0.0219619   -0.0070772
h    -5.8647783    1.4665562   -0.2392045  0.00   -0.0008048   -0.0006757   -0.0000221
h    -4.9685479    2.7005184   -1.2075223  0.00    0.0238372    0.0215726    0.0098352
h    -5.4112358    3.0320765    0.5209292  0.00    0.0004751    0.0024333    0.0007097
n    -3.2969334    0.6157675   -0.7277509  0.00    0.0129677    0.0145366   -0.0073261
h    -3.8795875    1.1709107    1.2588201  0.00   -0.0012334   -0.0004190    0.0033651
h    -2.8451789   -0.1949789   -0.2117404  0.00    0.0057591   -0.0199620    0.0112882
h    -4.1195640    0.2033820   -1.2489941  0.00   -0.0139086   -0.0032725   -0.0093165
o    -1.5351085    2.3999974    1.2410378  0.00    0.0049234   -0.0018005    0.0032112
o    -2.7379446    3.9658264   -0.1344699  0.00    0.0042699    0.0012362    0.0013451
h    -3.5951130    4.0500708   -0.6716454  0.00   -0.0517123   -0.0418435   -0.0060230
    13
 Energy =       0.0845548334
c    -3.7216035    1.6413184    0.2455434  0.00   -0.0040968    0.0030397    0.0013135
c    -2.6886843    2.7550767    0.4716626  0.00    0.0004413    0.0018827   -0.0012867
c    -5.0960629    2.1812900   -0.1994367  0.00    0.0114427    0.0152357   -0.0044379
h    -5.8484519    1.3604116   -0.2301578  0.00   -0.0015581   -0.0014798   -0.0000492
h    -5.0178749    2.6261253   -1.2152956  0.00    0.0159237    0.0143229    0.0062767
h    -5.4669793    2.9554422    0.5119542  0.00    0.0000826    0.0020102    0.0006284
n    -3.2310479    0.6619535   -0.7487029  0.00    0.0114900    0.0153278   -0.0066869
h    -3.8505063    1.1473623    1.2417384  0.00   -0.0013217   -0.0006132    0.0025842
h    -2.6864258   -0.1007472   -0.2501815  0.00    0.0073889   -0.0190859    0.0103288
h    -4.0342584    0.1711307   -1.2302487  0.00   -0.0137148   -0.0042216   -0.0083545
o    -1.5933602    2.5043383    1.2951573  0.00    0.0048792   -0.0011219    0.0030645
o    -2.8146745    4.0166826   -0.1189455  0.00    0.0043362    0.0013951    0.0015332
h    -3.6506360    4.0746421   -0.6897620  0.00   -0.0352933   -0.0266918   -0.0049142
    13
 Energy =       0.0825655465
c    -3.6984192    1.6482689    0.2410115  0.00   -0.0034872    0.0005613    0.0019573
c    -2.7425553    2.8315053    0.4738505  0.00    0.0004768    0.0016580   -0.0013374
c    -5.1152938    2.0883961   -0.1878377  0.00    0.0058889    0.0124486   -0.0027778
h    -5.8115324    1.2162020   -0.1968684  0.00   -0.0030139   -0.0032324    0.0000106
h    -5.0829097    2.5226562   -1.2114666  0.00    0.0109205    0.0103133    0.0034421
h    -5.5275221    2.8461622    0.5186849  0.00   -0.0005156    0.0021573    0.0007379
n    -3.1471614    0.7144388   -0.7652812  0.00    0.0108536    0.0144493   -0.0062097
h    -3.7840659    1.1348787    1.2322971  0.00   -0.0013224   -0.0014712    0.0024636
h    -2.5276727    0.0024991   -0.2811944  0.00    0.0082204   -0.0176414    0.0090978
h    -3.9167791    0.1544492   -1.2247670  0.00   -0.0128372   -0.0052503   -0.0075986
o    -1.6407453    2.6513099    1.3082754  0.00    0.0058813   -0.0008254    0.0038141
o    -2.9390207    4.0851007   -0.1194483  0.00    0.0045283    0.0041648    0.0008811
h    -3.7668881    4.0991594   -0.7039306  0.00   -0.0255934   -0.0173319   -0.0044807
    13
 Energy =       0.0829975997
c    -3.6637954    1.6612611    0.2451389  0.00   -0.0023461   -0.0021354    0.0018067
c    -2.7757493    2.9089179    0.4273865  0.00    0.0000610    0.0000987   -0.0014161
c    -5.1191292    2.0032040   -0.1531091  0.00    0.0030476    0.0133645   -0.0025862
h    -5.7618686    1.0881436   -0.1250580  0.00   -0.0046664   -0.0053818    0.0001487
h    -5.1389892    2.4162910   -1.1867743  0.00    0.0097782    0.0102537    0.0017621
h    -5.5589630    2.7506226    0.5482641  0.00   -0.0008840    0.0024799    0.0008151
n    -3.0805556    0.7390643   -0.7551167  0.00    0.0110441    0.0135401   -0.0059331
h    -3.6910523    1.1651941    1.2502702  0.00   -0.0010556   -0.0028930    0.0037343
h    -2.4500175    0.0415840   -0.2656238  0.00    0.0079860   -0.0169326    0.0087275
h    -3.8295870    0.1615774   -1.2266369  0.00   -0.0124744   -0.0056617   -0.0076147
o    -1.6355015    2.8100630    1.2283363  0.00    0.0102793   -0.0013009    0.0069444
o    -3.0723620    4.1434995   -0.1746503  0.00    0.0058278    0.0098172   -0.0000991
h    -3.9229952    4.1056039   -0.7291015  0.00   -0.0265976   -0.0152486   -0.0062896
    13
 Energy =       0.0811387610
c    -3.7058464    1.6436403    0.2313848  0.00   -0.0021676   -0.0044405    0.0000423
c    -2.7693530    2.8403634    0.5177350  0.00   -0.0008592   -0.0014121   -0.0017047
c    -5.1272044    2.0629574   -0.2230336  0.00   -0.0002043    0.0108286   -0.0022455
h    -5.8095791    1.1761661   -0.2487423  0.00   -0.0052896   -0.0059352    0.0002189
h    -5.0875107    2.5058911   -1.2466793  0.00    0.0070766    0.0087294   -0.0009488
h    -5.5655968    2.8076144    0.4810868  0.00   -0.0008181    0.0018783    0.0006951
n    -3.1200212    0.7469297   -0.7863778  0.00    0.0086157    0.0157431   -0.0062755
h    -3.8010432    1.0983615    1.2093247  0.00   -0.0011003   -0.0042428    0.0060335
h    -2.4245693    0.0974579   -0.3182936  0.00    0.0097493   -0.0160102    0.0091228
h    -3.8623076    0.1175516   -1.1998697  0.00   -0.0132083   -0.0069224   -0.0073900
o    -1.6770246    2.6513099    1.3727151  0.00    0.0144698   -0.0016940    0.0102515
o    -2.9682620    4.1127120   -0.0487142  0.00    0.0083946    0.0143131    0.0004381
h    -3.7822473    4.1340713   -0.6572105  0.00   -0.0246586   -0.0108353   -0.0082377
    13
 Energy =       0.0805604994
c    -3.7206549    1.6370495    0.2166386  0.00   -0.0025596   -0.0039361    0.0014671
c    -2.8134375    2.8336849    0.5938293  0.00    0.0009325   -0.0031877    0.0001303
c    -5.1189906    2.0445358   -0.3136313  0.00   -0.0014361    0.0068906   -0.0020047
h    -5.7844534    1.1487000   -0.4029396  0.00   -0.0058716   -0.0059765   -0.0000585
h    -5.0214912    2.5121770   -1.3246669  0.00    0.0057338    0.0068217   -0.0031507
h    -5.6138811    2.7621188    0.3831536  0.00   -0.0015029    0.0024164    0.0021216
n    -3.0665353    0.7748344   -0.7900023  0.00    0.0088295    0.0141176   -0.0072436
h    -3.8655094    1.0647272    1.1729130  0.00   -0.0015435   -0.0036294    0.0066060
h    -2.3401725    0.1702863   -0.3114881  0.00    0.0093837   -0.0142603    0.0077392
h    -3.7663389    0.1007435   -1.2060174  0.00   -0.0123273   -0.0073898   -0.0069722
o    -1.7345041    2.6092815    1.4544340  0.00    0.0120780   -0.0012325    0.0085291
o    -3.0226702    4.1393394    0.1100389  0.00    0.0076210    0.0162980   -0.0003856
h    -3.8319265    4.1975483   -0.4989365  0.00   -0.0193376   -0.0069320   -0.0067780
    13
 Energy =       0.0794861779
c    -3.7196309    1.6379374    0.2229003  0.00   -0.0015218   -0.0032366    0.0032438
c    -2.7842238    2.8221388    0.5621772  0.00    0.0017992   -0.0063905    0.0021391
c    -5.1402886    2.0650155   -0.2310281  0.00   -0.0025622    0.0051394   -0.0016348
h    -5.8279262    1.1809655   -0.2627059  0.00   -0.0067604   -0.0065013   -0.0003222
h    -5.0999821    2.5074940   -1.2575495  0.00    0.0047826    0.0056905   -0.0049909
h    -5.5762019    2.8099571    0.4790078  0.00   -0.0020307    0.0034084    0.0035137
n    -3.1244255    0.7771984   -0.8216953  0.00    0.0091010    0.0125534   -0.0088459
h    -3.8230539    1.0608737    1.1818511  0.00   -0.0014554   -0.0032492    0.0068557
h    -2.3779977    0.1677084   -0.3825865  0.00    0.0095317   -0.0133458    0.0076665
h    -3.8486974    0.1096596   -1.2046903  0.00   -0.0119241   -0.0073579   -0.0068310
o    -1.7317262    2.6067987    1.4566668  0.00    0.0113711   -0.0021294    0.0082735
o    -2.9362443    4.1053263   -0.0013327  0.00    0.0079348    0.0192929   -0.0010120
h    -3.7101674    4.1439532   -0.6576896  0.00   -0.0182658   -0.0038740   -0.0080555
    13
 Energy =       0.0776034644
c    -3.7267961    1.6357088    0.2218220  0.00   -0.0002525   -0.0012858    0.0045525
c    -2.7658005    2.7959810    0.5510298  0.00    0.0009335   -0.0080954    0.0034776
c    -5.1604824    2.0942786   -0.1491510  0.00   -0.0034450    0.0028455   -0.0010978
h    -5.8637153    1.2251564   -0.1430159  0.00   -0.0051032   -0.0045823   -0.0005103
h    -5.1789664    2.5347358   -1.1754077  0.00    0.0022105    0.0031430   -0.0047818
h    -5.5393193    2.8480097    0.5838429  0.00   -0.0018841    0.0033510    0.0034911
n    -3.1938025    0.8009381   -0.8747796  0.00    0.0063908    0.0097141   -0.0102523
h    -3.7918676    1.0318452    1.1659333  0.00   -0.0008039   -0.0022582    0.0055840
h    -2.3982338    0.2129139   -0.4988016  0.00    0.0100277   -0.0110377    0.0073811
h    -3.9285638    0.1171152   -1.2003220  0.00   -0.0100904   -0.0059291   -0.0052070
o    -1.7646644    2.5840824    1.5019739  0.00    0.0094412   -0.0033476    0.0074536
o    -2.8369394    4.0489641   -0.0885598  0.00    0.0076769    0.0177036   -0.0002369
h    -3.5514143    4.0652974   -0.8112390  0.00   -0.0151015   -0.0002213   -0.0098538
    13
 Energy =       0.0757675064
c    -3.7361959    1.6302985    0.2158880  0.00    0.0000713    0.0007271    0.0048689
c    -2.7573764    2.7674453    0.5513985  0.00   -0.0013528   -0.0070273    0.0028145
c    -5.1759102    2.1201217   -0.0701865  0.00   -0.0033324    0.0009095   -0.0006920
h    -5.8864962    1.2615607   -0.0565728  0.00   -0.0024394   -0.0021135   -0.0003998
h    -5.2438872    2.5935675   -1.0778481  0.00    0.0000154    0.0015157   -0.0037987
h    -5.5083898    2.8552562    0.7018348  0.00   -0.0015254    0.0028589    0.0027620
n    -3.2636391    0.8428663   -0.9401394  0.00    0.0019793    0.0075791   -0.0112455
h    -3.7648119    0.9846591    1.1323977  0.00   -0.0002142   -0.0017366    0.0043083
h    -2.4114919    0.2886655   -0.6461602  0.00    0.0113581   -0.0094081    0.0065280
h    -3.9929773    0.1313737   -1.2066725  0.00   -0.0078008   -0.0041338   -0.0028964
o    -1.8250880    2.5694241    1.5720621  0.00    0.0080795   -0.0041629    0.0074689
o    -2.7416408    3.9815167   -0.1566655  0.00    0.0055487    0.0135612   -0.0003887
h    -3.3926611    3.9682712   -0.9360109  0.00   -0.0103873    0.0014306   -0.0093296
    13
 Energy =       0.0742478919
c    -3.7444102    1.6234321    0.2088477  0.00    0.0000664    0.0015871    0.0050004
c    -2.7522554    2.7424435    0.5511004  0.00   -0.0038427   -0.0052936    0.0008194
c    -5.1869979    2.1389420    0.0129081  0.00   -0.0021400   -0.0011491   -0.0001173
h    -5.9002555    1.2848010   -0.0043888  0.00   -0.0007733   -0.0013313   -0.0001574
h    -5.2912342    2.6853837   -0.9548973  0.00   -0.0012735    0.0019654   -0.0044577
h    -5.4840993    2.8217976    0.8460056  0.00   -0.0015862    0.0034188    0.0033216
n    -3.3346403    0.8951337   -1.0073748  0.00   -0.0015170    0.0051039   -0.0110273
h    -3.7345749    0.9317503    1.0907682  0.00    0.0000704   -0.0017040    0.0034666
h    -2.4366922    0.3753274   -0.8049133  0.00    0.0111187   -0.0076945    0.0045957
h    -4.0494468    0.1572968   -1.2292327  0.00   -0.0048555   -0.0023047   -0.0009653
o    -1.9053627    2.5793617    1.6502044  0.00    0.0077990   -0.0047444    0.0092093
o    -2.6455016    3.9059863   -0.2259127  0.00    0.0032517    0.0105627   -0.0019042
h    -3.2350948    3.8533706   -1.0497894  0.00   -0.0063178    0.0015838   -0.0077838
    13
 Energy =       0.0730237190
c    -3.7518611    1.6175077    0.2015547  0.00    0.0000200    0.0007845    0.0044951
c    -2.7461387    2.7223932    0.5409762  0.00   -0.0048224   -0.0033517   -0.0019575
c    -5.1933456    2.1518856    0.0997006  0.00   -0.0000223   -0.0027554    0.0002406
h    -5.9113087    1.3047591    0.0213976  0.00   -0.0004642   -0.0020879   -0.0001685
h    -5.3183235    2.7947589   -0.8064047  0.00   -0.0014118    0.0034722   -0.0052885
h    -5.4604196    2.7535704    1.0039804  0.00   -0.0016137    0.0038809    0.0045175
n    -3.4126520    0.9482773   -1.0674630  0.00   -0.0033637    0.0039580   -0.0081361
h    -3.7009439    0.8848683    1.0467094  0.00    0.0001251   -0.0013167    0.0021817
h    -2.4767185    0.4720897   -0.9636664  0.00    0.0093005   -0.0053962    0.0022683
h    -4.1051435    0.1804826   -1.2482154  0.00   -0.0027281   -0.0013121    0.0001427
o    -1.9990334    2.6200229    1.7169592  0.00    0.0065136   -0.0043002    0.0103110
o    -2.5443327    3.8210905   -0.3043444  0.00    0.0010622    0.0076942   -0.0040493
h    -3.0803447    3.7233207   -1.1578589  0.00   -0.0025952    0.0007305   -0.0045570
    13
 Energy =       0.0723036541
c    -3.7570489    1.6143819    0.1932487  0.00    0.0001895   -0.0003919    0.0021667
c    -2.7337633    2.7076442    0.5165599  0.00   -0.0021215   -0.0012500   -0.0024400
c    -5.1932363    2.1613852    0.1834740  0.00   -0.0002350   -0.0008760   -0.0001481
h    -5.9238102    1.3333005    0.0538890  0.00   -0.0001009   -0.0006205   -0.0001037
h    -5.3323868    2.8818097   -0.6549014  0.00   -0.0001865    0.0011276   -0.0015053
h    -5.4241331    2.6818100    1.1417558  0.00   -0.0004949    0.0012191    0.0015417
n    -3.4953180    0.9883639   -1.1128502  0.00   -0.0019876    0.0019904   -0.0024023
h    -3.6653943    0.8537626    1.0070755  0.00    0.0000761   -0.0002096    0.0004328
h    -2.5352163    0.5603352   -1.1050609  0.00    0.0037768   -0.0016269    0.0003468
h    -4.1627454    0.1918100   -1.2539158  0.00   -0.0010195   -0.0006535    0.0001853
o    -2.0870467    2.6865438    1.7502738  0.00    0.0022916   -0.0017797    0.0054706
o    -2.4412496    3.7324041   -0.3868064  0.00   -0.0005202    0.0033144   -0.0042007
h    -2.9492169    3.6014756   -1.2494170  0.00    0.0003320   -0.0002434    0.0006562
    13
 Energy =       0.0722312792
c    -3.7559103    1.6134533    0.1869177  0.00    0.0000674    0.0002008   -0.0001673
c    -2.7287086    2.7042313    0.5071967  0.00    0.0002409    0.0001231    0.0003593
c    -5.1914964    2.1578334    0.2159824  0.00   -0.0000340   -0.0001592    0.0000016
h    -5.9244728    1.3354737    0.0691005  0.00    0.0000070   -0.0000100    0.0000090
h    -5.3422304    2.9063591   -0.5933822  0.00   -0.0000645    0.0001897   -0.0002001
h    -5.4076599    2.6430582    1.1940925  0.00   -0.0000743    0.0001028    0.0002378
n    -3.5219114    1.0060833   -1.1322495  0.00    0.0001870   -0.0004365   -0.0000958
h    -3.6462204    0.8411144    0.9869917  0.00    0.0000219   -0.0001193    0.0001433
h    -2.5600938    0.5891362   -1.1561523  0.00   -0.0003348    0.0000731   -0.0000114
h    -4.1836521    0.2048746   -1.2676306  0.00    0.0002166    0.0001594   -0.0000372
o    -2.1122708    2.7104843    1.7521626  0.00   -0.0001726    0.0001868   -0.0006963
o    -2.4091170    3.7062384   -0.4080094  0.00    0.0000770   -0.0003247    0.0006594
h    -2.9168216    3.5766864   -1.2716948  0.00   -0.0001376    0.0000140   -0.0002023
    13
 Energy =       0.0722305641
c    -3.7560993    1.6135239    0.1868541  0.00   -0.0000006    0.0000004    0.0000007
c    -2.7292145    2.7045664    0.5072577  0.00   -0.0000031   -0.0000034   -0.0000054
c    -5.1916922    2.1573189    0.2170661  0.00   -0.0000001   -0.0000001    0.0000004
h    -5.9245852    1.3349777    0.0696714  0.00    0.0000000   -0.0000002    0.0000002
h    -5.3427533    2.9064396   -0.5913410  0.00    0.0000002    0.0000004   -0.0000003
h    -5.4074322    2.6415626    1.1954730  0.00   -0.0000001    0.0000002    0.0000006
n    -3.5228717    1.0073314   -1.1328806  0.00   -0.0000020    0.0000022   -0.0000011
h    -3.6456009    0.8407321    0.9861360  0.00    0.0000000   -0.0000007    0.0000003
h    -2.5602650    0.5917787   -1.1582245  0.00    0.0000034   -0.0000007   -0.0000010
h    -4.1838925    0.2052275   -1.2676964  0.00   -0.0000009   -0.0000010    0.0000002
o    -2.1162122    2.7130645    1.7543639  0.00    0.0000029   -0.0000004    0.0000132
o    -2.4069914    3.7047467   -0.4095128  0.00    0.0000031    0.0000030   -0.0000037
h    -2.9129554    3.5737568   -1.2738417  0.00   -0.0000028    0.0000003   -0.0000039
    13
 Energy =       0.0722305636
c    -3.7560945    1.6135224    0.1868593  0.00   -0.0000000    0.0000000    0.0000000
c    -2.7291987    2.7045567    0.5072547  0.00   -0.0000000   -0.0000000   -0.0000000
c    -5.1916831    2.1573344    0.2170210  0.00   -0.0000000   -0.0000000    0.0000000
h    -5.9245819    1.3349941    0.0696507  0.00   -0.0000000   -0.0000000    0.0000000
h    -5.3427265    2.9064186   -0.5914220  0.00    0.0000000    0.0000000   -0.0000000
h    -5.4074360    2.6416242    1.1954013  0.00   -0.0000000    0.0000000    0.0000000
n    -3.5228384    1.0072912   -1.1328510  0.00   -0.0000000    0.0000000   -0.0000000
h    -3.6456279    0.8407517    0.9861653  0.00    0.0000000   -0.0000000    0.0000000
h    -2.5602555    0.5916846   -1.1581354  0.00    0.0000000   -0.0000000   -0.0000000
h    -4.1838937    0.2052197   -1.2676835  0.00   -0.0000000   -0.0000000    0.0000000
o    -2.1160275    2.7129259    1.7542705  0.00    0.0000000   -0.0000000    0.0000000
o    -2.4071023    3.7048336   -0.4094480  0.00    0.0000000    0.0000000   -0.0000000
h    -2.9131000    3.5738696   -1.2737577  0.00   -0.0000000   -0.0000000   -0.0000000
