    27
 Energy =     139.2440986017
c    -1.4235396    2.6054793   -0.0667700  0.00   -0.0462777    0.0383757    0.0027381
c    -1.3072796    1.2134697   -0.1072300  0.00   -0.0853198   -0.0325917    0.0019954
c    -0.0178900    0.6711998   -0.1697000  0.00   -0.0886376   -0.1877780   -0.0010481
c    -0.2940599    3.4190890   -0.0891300  0.00   -0.0231118    0.0691867    0.0029247
c     0.9872197    2.8590292   -0.1560400  0.00    0.0105698    0.0644311    0.0010095
c     1.1340797    1.4562096   -0.1970299  0.00    0.0530374    0.0517792    0.0021676
n     0.3879399   -0.6395298   -0.2140799  0.00    0.1442929    0.1088471   -0.0039116
c     2.2666594    0.5727398   -0.2659299  0.00    0.1387113   -0.0561337   -0.0195501
c     1.7555995   -0.7123598   -0.2706899  0.00   -0.0963975   -0.0971293    0.0048062
h    -0.2400399   -1.4313496   -0.2047299  0.00    0.0366552    0.0478990   -0.0003492
c     3.7030089    1.0223397   -0.3320099  0.00    0.0096164    0.0201976    0.0234111
c     4.7465686   -0.0024900    0.1378100  0.00    0.0038399   -0.0174919   -0.0348860
h     3.7978489    1.9290294    0.2803699  0.00    0.0024052   -0.0126534   -0.0107235
h     3.9233889    1.3348996   -1.3618196  0.00   -0.0045439    0.0023576    0.0155301
c     6.0911583    0.7171698    0.3515799  0.00    0.1043329    0.2474170    0.1536592
n     4.9813086   -1.1161597   -0.8485798  0.00    1.3011440    0.3125138   -0.0429501
h     4.4627987   -0.4486599    1.0982597  0.00    0.0089810   -0.0110887   -0.0260209
h     5.9519483   -1.0348997   -1.1684897  0.00 1529.4915852  988.4722041  645.3840285
h     4.9673786   -2.0001494   -0.3277699  0.00    0.0019991    0.0360933   -0.0105168
h    -2.4108593    3.0588691   -0.0157800  0.00   -0.0007117    0.0001915    0.0000388
h    -2.1896094    0.5822398   -0.0890100  0.00   -0.0036141    0.0038183    0.0000904
h    -0.4052699    4.5000487   -0.0535400  0.00    0.0008530    0.0000077    0.0002714
h     1.8590495    3.5066790   -0.1715100  0.00   -0.0008752    0.0024253    0.0006597
h     2.2327294   -1.6813195   -0.3062999  0.00   -0.0419567   -0.0114861    0.0036554
o     6.2733082    1.6803095    1.0775897  0.00   -0.0401471   -0.2360468   -0.1827412
o     7.0804880    0.1383800   -0.3810899  0.00   -0.3858443   -0.3571170   -0.2219589
h     6.6344681   -0.5938798   -0.8805597  0.00-1530.4905860 -988.4582284 -645.0423297
    27
 Energy =       9.0557895467
c    -1.4235369    2.6054770   -0.0667701  0.00   -0.0462753    0.0383791    0.0027421
c    -1.3072747    1.2134715   -0.1072301  0.00   -0.0853195   -0.0325877    0.0019995
c    -0.0178848    0.6712107   -0.1696999  0.00   -0.0885907   -0.1877424   -0.0010624
c    -0.2940586    3.4190850   -0.0891301  0.00   -0.0231100    0.0691867    0.0029290
c     0.9872191    2.8590254   -0.1560400  0.00    0.0105676    0.0644461    0.0010182
c     1.1340766    1.4562066   -0.1970301  0.00    0.0530334    0.0517358    0.0021573
n     0.3879315   -0.6395361   -0.2140797  0.00    0.1441155    0.1088706   -0.0038403
c     2.2666513    0.5727431   -0.2659288  0.00    0.1386894   -0.0561393   -0.0195532
c     1.7556051   -0.7123542   -0.2706902  0.00   -0.0963566   -0.0971090    0.0048031
h    -0.2400421   -1.4313524   -0.2047299  0.00    0.0367194    0.0478943   -0.0003744
c     3.7030084    1.0223385   -0.3320113  0.00    0.0096943    0.0203904    0.0235240
c     4.7465684   -0.0024890    0.1378120  0.00   -0.0219762   -0.0145432   -0.0231168
h     3.7978488    1.9290302    0.2803705  0.00    0.0023347   -0.0126938   -0.0107496
h     3.9233891    1.3348995   -1.3618205  0.00   -0.0046152    0.0021606    0.0154729
c     6.0911522    0.7171554    0.3515710  0.00    0.1099769    0.2665847    0.1687365
n     4.9812330   -1.1161778   -0.8485773  0.00    0.8094388    0.1511946   -0.0580097
h     4.4627982   -0.4486592    1.0982612  0.00    0.0088499   -0.0112363   -0.0261595
h     5.8630991   -1.0923207   -1.2059804  0.00   75.2574915   48.7736467   31.9250152
h     4.9673785   -2.0001515   -0.3277693  0.00    0.0024160    0.0339787   -0.0112174
h    -2.4108593    3.0588691   -0.0157800  0.00   -0.0007121    0.0001868    0.0000359
h    -2.1896092    0.5822396   -0.0890100  0.00   -0.0036111    0.0038096    0.0000861
h    -0.4052699    4.5000487   -0.0535400  0.00    0.0008500    0.0000037    0.0002678
h     1.8590495    3.5066789   -0.1715100  0.00   -0.0008839    0.0024122    0.0006518
h     2.2327318   -1.6813189   -0.3063001  0.00   -0.0418130   -0.0115005    0.0035734
o     6.2733105    1.6803232    1.0776003  0.00   -0.0396961   -0.2366013   -0.1830529
o     7.0805104    0.1384007   -0.3810770  0.00   -0.3100505   -0.3183147   -0.1941424
h     6.7233753   -0.5364596   -0.8430888  0.00  -75.8211671  -48.6564124  -31.6217344
    27
 Energy =       5.5217352710
c    -1.3491275    2.5892121   -0.0731660  0.00   -0.0193139    0.0163084    0.0011869
c    -1.2471224    1.2154681   -0.1060087  0.00   -0.0372868   -0.0141934    0.0008338
c     0.0072089    0.6642696   -0.1584118  0.00   -0.0365280   -0.0826542   -0.0003432
c    -0.2193769    3.3774013   -0.0961694  0.00   -0.0106133    0.0300335    0.0014195
c     1.0328745    2.8024034   -0.1537705  0.00    0.0053926    0.0286220    0.0004692
c     1.1335705    1.4257343   -0.1828606  0.00    0.0214872    0.0239986    0.0008366
n     0.3583771   -0.6884289   -0.2094294  0.00    0.0603872    0.0456503   -0.0019759
c     2.2329736    0.5867845   -0.2434614  0.00    0.0626982   -0.0237505   -0.0088864
c     1.7633864   -0.6918576   -0.2641857  0.00   -0.0454901   -0.0383293    0.0029402
h    -0.2763475   -1.4997650   -0.2049709  0.00    0.0163127    0.0213657   -0.0002540
c     3.6705083    1.0420603   -0.3326442  0.00    0.0037032    0.0084007    0.0111992
c     4.7130347    0.0227015    0.1657051  0.00   -0.0009680   -0.0072719   -0.0126086
h     3.7667761    1.9701642    0.2633890  0.00    0.0003573   -0.0053834   -0.0037466
h     3.8915958    1.3133364   -1.3826638  0.00   -0.0017602    0.0012349    0.0068068
c     6.0350802    0.7113109    0.3762517  0.00    0.0481992    0.1112663    0.0742295
n     4.9034783   -1.0686125   -0.8247316  0.00    0.4116952    0.1150703   -0.0037938
h     4.4169324   -0.4003187    1.1445555  0.00    0.0044248   -0.0060401   -0.0115935
h     5.8470052   -1.1236501   -1.2863739  0.00   43.7175674   28.2879901   18.4905719
h     4.8086253   -1.9834280   -0.3385666  0.00   -0.0004721    0.0093055   -0.0035608
h    -2.3304250    3.0562227   -0.0316442  0.00   -0.0002400    0.0005495   -0.0001537
h    -2.1328564    0.5894613   -0.0926247  0.00   -0.0015941    0.0020084   -0.0000543
h    -0.3133841    4.4608812   -0.0716964  0.00    0.0006634    0.0004306   -0.0000541
h     1.9199127    3.4293671   -0.1753629  0.00    0.0006387    0.0006767    0.0002956
h     2.3364342   -1.6118911   -0.3269050  0.00   -0.0142250   -0.0079105    0.0018759
o     6.1744647    1.7622115    1.1588096  0.00   -0.0226710   -0.1024541   -0.0813458
o     7.0611284    0.1991572   -0.3776244  0.00   -0.1670164   -0.1580700   -0.0956577
h     6.7436740   -0.5438117   -0.9076174  0.00  -43.9953482  -28.2568539  -18.3686369
    27
 Energy =       2.3057846905
c    -1.3068789    2.5774912   -0.0849412  0.00    0.0014918   -0.0013479    0.0000160
c    -1.2121074    1.2195051   -0.1110244  0.00    0.0026043    0.0011237    0.0000232
c     0.0152866    0.6637577   -0.1447493  0.00    0.0033942    0.0054621    0.0000518
c    -0.1772163    3.3460602   -0.0974153  0.00   -0.0001067   -0.0017796    0.0001902
c     1.0541311    2.7604615   -0.1395016  0.00   -0.0003818   -0.0008829    0.0002776
c     1.1236412    1.4029318   -0.1614860  0.00   -0.0019707    0.0001952    0.0000049
n     0.3233554   -0.7211844   -0.1990637  0.00   -0.0037216   -0.0028203   -0.0000810
c     2.1956187    0.5931640   -0.2182559  0.00   -0.0029982    0.0032300    0.0013171
c     1.7560824   -0.6775211   -0.2531908  0.00    0.0021554    0.0049818    0.0007952
h    -0.3181011   -1.5476510   -0.1960148  0.00   -0.0000184   -0.0006254   -0.0004560
c     3.6390389    1.0406962   -0.3424999  0.00    0.0001455    0.0007874    0.0008976
c     4.6925256    0.0212213    0.1545179  0.00    0.0017272    0.0042326    0.0002770
h     3.7483702    1.9693249    0.2660850  0.00    0.0005672    0.0007609    0.0039361
h     3.8508207    1.3123547   -1.3996360  0.00    0.0006438    0.0029362    0.0019413
c     6.0347248    0.7362215    0.3341503  0.00    0.0023349   -0.0232103   -0.0016080
n     4.8092608   -1.1354337   -0.8091097  0.00    0.0853352    0.0232913   -0.0081306
h     4.4100438   -0.3278612    1.1783820  0.00    0.0011505    0.0017562    0.0043575
h     5.7965810   -1.1547858   -1.3105275  0.00   15.9247380   10.2695470    6.6861898
h     4.7949916   -2.0253470   -0.2464165  0.00   -0.0023092   -0.0080986    0.0089303
h    -2.2857363    3.0509056   -0.0592763  0.00   -0.0004553   -0.0000661   -0.0003664
h    -2.0981061    0.5939193   -0.1108201  0.00    0.0003966   -0.0001780   -0.0004748
h    -0.2623127    4.4307219   -0.0782881  0.00   -0.0007618    0.0004965    0.0000743
h     1.9471143    3.3784900   -0.1559345  0.00   -0.0000272    0.0006814    0.0006448
h     2.3873373   -1.5574759   -0.3420086  0.00    0.0047675    0.0004383    0.0008071
o     6.1435907    1.9209646    1.0755720  0.00    0.0038320    0.0174915   -0.0025215
o     7.1214400    0.2628105   -0.3806272  0.00   -0.0195562   -0.0226093   -0.0227519
h     6.7649052   -0.5273582   -0.9000983  0.00  -16.0029771  -10.2757939   -6.6743417
    27
 Energy =       1.9416211384
c    -1.3101671    2.5647647   -0.0633672  0.00    0.0005879   -0.0013854    0.0000512
c    -1.2125618    1.2065400   -0.0767508  0.00    0.0015294    0.0008274    0.0001124
c     0.0156904    0.6536601   -0.1407063  0.00    0.0026375    0.0040702    0.0001245
c    -0.1829276    3.3362808   -0.1182967  0.00    0.0002570   -0.0010319    0.0000843
c     1.0488745    2.7537229   -0.1878969  0.00    0.0001286   -0.0006121    0.0001347
c     1.1221905    1.3959445   -0.1955352  0.00   -0.0012129    0.0002364   -0.0000895
n     0.3260666   -0.7307591   -0.1906854  0.00   -0.0037876   -0.0020946    0.0000543
c     2.1949687    0.5877065   -0.2707457  0.00   -0.0019275    0.0022341    0.0016391
c     1.7568244   -0.6845578   -0.2861678  0.00    0.0023538    0.0039722    0.0006311
h    -0.3137670   -1.5583324   -0.1637446  0.00   -0.0003325   -0.0008331   -0.0002083
c     3.6379826    1.0307943   -0.4261525  0.00   -0.0019776   -0.0009265    0.0007561
c     4.6780440    0.0398971    0.1546701  0.00    0.0012937    0.0027848    0.0016822
h     3.7498889    2.0068242    0.1073319  0.00    0.0000292    0.0040625    0.0047282
h     3.8545812    1.2158851   -1.5043874  0.00    0.0010195    0.0029688   -0.0021264
c     6.0065277    0.7657135    0.3910508  0.00    0.0008339   -0.0191440   -0.0006903
n     4.8456329   -1.1329684   -0.7747911  0.00    0.0686647    0.0180856   -0.0082395
h     4.3455086   -0.2894647    1.1710443  0.00    0.0004879    0.0014784    0.0048873
h     5.8431010   -1.1343042   -1.2355182  0.00   12.9344194    8.3415593    5.4313795
h     4.8370948   -2.0107803   -0.1953081  0.00   -0.0016487   -0.0068913    0.0070545
h    -2.2893620    3.0360341   -0.0141786  0.00   -0.0006853   -0.0000430   -0.0002740
h    -2.0970330    0.5787643   -0.0427519  0.00   -0.0002128   -0.0004208   -0.0002635
h    -0.2700847    4.4208950   -0.1105524  0.00   -0.0005122    0.0004882   -0.0000296
h     1.9385304    3.3751339   -0.2382855  0.00    0.0005577    0.0008259    0.0003860
h     2.3881754   -1.5636489   -0.3872247  0.00    0.0038778    0.0002958    0.0006654
o     6.0721895    1.9364902    1.1572401  0.00    0.0036890    0.0152106   -0.0010944
o     7.1352769    0.3029683   -0.2717537  0.00   -0.0123253   -0.0164052   -0.0176657
h     6.8271557   -0.4968201   -0.8187153  0.00  -12.9977446   -8.3493123   -5.4236894
    27
 Energy =       1.4371282874
c    -1.3057253    2.5568213   -0.0376689  0.00   -0.0003705   -0.0012425    0.0001336
c    -1.2094549    1.1980140   -0.0394353  0.00    0.0002437    0.0005261    0.0002688
c     0.0166383    0.6435576   -0.1403781  0.00    0.0017589    0.0022763    0.0002203
c    -0.1800643    3.3270615   -0.1401708  0.00    0.0005636   -0.0001549   -0.0000571
c     1.0490330    2.7431779   -0.2428252  0.00    0.0006605   -0.0003254   -0.0000639
c     1.1221707    1.3852020   -0.2373294  0.00   -0.0002020    0.0002788   -0.0001879
n     0.3256665   -0.7412697   -0.1844361  0.00   -0.0033818   -0.0011747    0.0002491
c     2.1925626    0.5752325   -0.3326352  0.00   -0.0004630    0.0012865    0.0016265
c     1.7529939   -0.6974744   -0.3249828  0.00    0.0023556    0.0024769    0.0004531
h    -0.3143954   -1.5675738   -0.1309781  0.00   -0.0005973   -0.0009128    0.0001667
c     3.6366998    1.0095688   -0.5096506  0.00   -0.0034281   -0.0021402    0.0001436
c     4.6562309    0.0478616    0.1527196  0.00    0.0001840    0.0007653    0.0016815
h     3.7527169    2.0231850   -0.0514212  0.00   -0.0006232    0.0057696    0.0039529
h     3.8623214    1.1114599   -1.5991740  0.00    0.0011870    0.0021171   -0.0046375
c     5.9617440    0.7880761    0.4740424  0.00   -0.0005047   -0.0153289   -0.0013551
n     4.8866766   -1.1250075   -0.7527651  0.00    0.0444525    0.0114942   -0.0072078
h     4.2628547   -0.2792599    1.1486968  0.00   -0.0005505    0.0012539    0.0049372
h     5.8839000   -1.0700667   -1.1883310  0.00    8.8631043    5.7171313    3.7228369
h     4.9166326   -1.9955129   -0.1653566  0.00   -0.0010986   -0.0056799    0.0046305
h    -2.2824931    3.0296074    0.0408387  0.00   -0.0009002    0.0000379   -0.0000944
h    -2.0931247    0.5715316    0.0338979  0.00   -0.0008471   -0.0005908    0.0000909
h    -0.2658619    4.4117107   -0.1427504  0.00   -0.0002110    0.0004017   -0.0001673
h     1.9361472    3.3643245   -0.3303192  0.00    0.0010137    0.0008436    0.0000132
h     2.3824928   -1.5779554   -0.4316429  0.00    0.0026484    0.0001276    0.0004670
o     5.9663303    1.9148329    1.3064661  0.00    0.0033458    0.0145633    0.0025921
o     7.1386375    0.3732343   -0.1473347  0.00   -0.0025132   -0.0055756   -0.0078702
h     6.8970714   -0.4139553   -0.7592544  0.00   -8.9058268   -5.7282247   -3.7228229
    27
 Energy =       0.8850828070
c    -1.2952264    2.5550034   -0.0165955  0.00   -0.0005698   -0.0005880    0.0001361
c    -1.2047391    1.1953540   -0.0105027  0.00   -0.0003801    0.0002421    0.0003242
c     0.0161567    0.6346266   -0.1420876  0.00    0.0007079    0.0006118    0.0002582
c    -0.1698373    3.3194967   -0.1566901  0.00    0.0004245    0.0002909   -0.0001441
c     1.0535793    2.7296298   -0.2867993  0.00    0.0006236   -0.0000884   -0.0001853
c     1.1220760    1.3714372   -0.2723271  0.00    0.0003085    0.0001866   -0.0001393
n     0.3200120   -0.7513602   -0.1807977  0.00   -0.0017877   -0.0003043    0.0003739
c     2.1872833    0.5565277   -0.3842362  0.00    0.0003739    0.0003523    0.0009177
c     1.7430659   -0.7150652   -0.3575403  0.00    0.0014045    0.0008056    0.0003131
h    -0.3223161   -1.5739814   -0.1057886  0.00   -0.0004691   -0.0005387    0.0004831
c     3.6335453    0.9808476   -0.5740011  0.00   -0.0023911   -0.0018355   -0.0003098
c     4.6359097    0.0465706    0.1477223  0.00   -0.0006128   -0.0006192    0.0003195
h     3.7559708    2.0165470   -0.1777935  0.00   -0.0005761    0.0038185    0.0018682
h     3.8648332    1.0185906   -1.6651565  0.00    0.0007343    0.0007863   -0.0034053
c     5.9107536    0.8064101    0.5485155  0.00   -0.0017802   -0.0101110   -0.0029841
n     4.9238001   -1.1161718   -0.7408499  0.00    0.0169057    0.0061827   -0.0046903
h     4.1939286   -0.2922463    1.1179980  0.00   -0.0009515    0.0007277    0.0029809
h     5.9079930   -0.9902276   -1.1716239  0.00    4.5552705    2.9402630    1.9137568
h     5.0183696   -1.9770309   -0.1473504  0.00   -0.0002455   -0.0050541    0.0028019
h    -2.2668808    3.0331065    0.0867400  0.00   -0.0006167    0.0001310    0.0000563
h    -2.0884504    0.5738043    0.0947318  0.00   -0.0007467   -0.0003497    0.0003694
h    -0.2506547    4.4043224   -0.1660777  0.00    0.0000159    0.0002146   -0.0002707
h     1.9395934    3.3466377   -0.4034194  0.00    0.0007513    0.0004647   -0.0002736
h     2.3679275   -1.5991209   -0.4647639  0.00    0.0011412   -0.0000281    0.0003521
o     5.8464644    1.8637935    1.4652192  0.00    0.0012340    0.0126242    0.0067295
o     7.1310013    0.4686755   -0.0491965  0.00    0.0044730    0.0027567    0.0004218
h     6.9742425   -0.2997931   -0.7195075  0.00   -4.5732414   -2.9509413   -1.9200602
    27
 Energy =       0.4147919995
c    -1.2834953    2.5569968   -0.0058998  0.00    0.0001555    0.0003219    0.0000132
c    -1.2010240    1.1966613    0.0034158  0.00    0.0000373   -0.0000165    0.0002018
c     0.0137222    0.6277690   -0.1452016  0.00   -0.0002893   -0.0002877    0.0002153
c    -0.1567939    3.3138137   -0.1656742  0.00   -0.0001378    0.0000242   -0.0001384
c     1.0603494    2.7159448   -0.3112105  0.00   -0.0001503    0.0000511   -0.0001425
c     1.1215997    1.3575572   -0.2931878  0.00   -0.0000470   -0.0000479    0.0000939
n     0.3098390   -0.7596690   -0.1808206  0.00    0.0005839    0.0001759    0.0003960
c     2.1805182    0.5360159   -0.4152258  0.00   -0.0000052   -0.0002722   -0.0001495
c     1.7291393   -0.7332832   -0.3779186  0.00   -0.0004422   -0.0003968    0.0002741
h    -0.3360365   -1.5776345   -0.0937401  0.00    0.0001055    0.0002117    0.0005907
c     3.6300449    0.9493702   -0.6113204  0.00    0.0006370    0.0001449   -0.0001604
c     4.6204216    0.0342846    0.1452878  0.00    0.0005429   -0.0009458   -0.0007606
h     3.7615419    1.9946213   -0.2596938  0.00    0.0001210   -0.0009499   -0.0005855
h     3.8619020    0.9445910   -1.6989416  0.00   -0.0002511   -0.0003659    0.0007354
c     5.8639001    0.8095979    0.6075271  0.00   -0.0026659   -0.0014305   -0.0021499
n     4.9449600   -1.1186350   -0.7270007  0.00   -0.0097935    0.0079878   -0.0030349
h     4.1462814   -0.3200478    1.0914733  0.00    0.0000031   -0.0000654   -0.0006418
h     5.8753170   -0.9102019   -1.2210330  0.00    1.1213562    0.7244106    0.4662111
h     5.1660461   -1.9487807   -0.1173820  0.00    0.0018854   -0.0088526    0.0059922
h    -2.2495006    3.0417650    0.1115441  0.00    0.0002076    0.0000967    0.0000578
h    -2.0857169    0.5813919    0.1258701  0.00    0.0002210    0.0002218    0.0003980
h    -0.2310726    4.3988933   -0.1774949  0.00    0.0000416   -0.0000242   -0.0002991
h     1.9470560    3.3269627   -0.4427340  0.00   -0.0002393   -0.0001914   -0.0003184
h     2.3473932   -1.6221423   -0.4830387  0.00   -0.0003454   -0.0000897    0.0003717
o     5.7367940    1.7654779    1.6180422  0.00   -0.0020316    0.0044743    0.0051875
o     7.1132272    0.5861037    0.0067963  0.00    0.0045273    0.0015288    0.0001463
h     7.0619880   -0.1410400   -0.7146176  0.00   -1.1140267   -0.7257133   -0.4725040
    27
 Energy =       0.3948488101
c    -1.3020829    2.5175073   -0.0174000  0.00   -0.0007565    0.0004570    0.0001164
c    -1.2076122    1.1576246   -0.0623513  0.00   -0.0004102   -0.0014563    0.0001898
c     0.0158055    0.6058119   -0.2050323  0.00   -0.0006628   -0.0006489    0.0002413
c    -0.1782989    3.2910194   -0.1185977  0.00    0.0008731    0.0012444   -0.0001945
c     1.0477170    2.7101234   -0.2601103  0.00    0.0002534    0.0014243   -0.0001262
c     1.1208052    1.3514760   -0.2970010  0.00    0.0005951    0.0001027    0.0000303
n     0.3247480   -0.7774678   -0.2908587  0.00    0.0002415   -0.0008284    0.0003466
c     2.1897976    0.5440559   -0.4288319  0.00    0.0003524    0.0009508   -0.0000335
c     1.7484604   -0.7306336   -0.4529064  0.00   -0.0005500   -0.0014023    0.0001829
h    -0.3158308   -1.6047940   -0.2524932  0.00   -0.0011010   -0.0014396    0.0005912
c     3.6400766    0.9770411   -0.5792749  0.00    0.0010395    0.0002315    0.0001313
c     4.6206085    0.0529035    0.1783799  0.00    0.0005775   -0.0008406   -0.0006221
h     3.7537331    2.0142267   -0.1969253  0.00    0.0002967   -0.0002653   -0.0002340
h     3.8992361    1.0018962   -1.6612506  0.00   -0.0000094   -0.0002731   -0.0001256
c     5.8650190    0.8202618    0.6511772  0.00   -0.0023173   -0.0012797   -0.0019021
n     4.9453671   -1.0972060   -0.6969238  0.00   -0.0087143    0.0070291   -0.0027199
h     4.1363598   -0.3037984    1.1187249  0.00   -0.0000334   -0.0000810   -0.0004894
h     5.8673941   -0.8821537   -1.1999207  0.00    0.9866010    0.6373790    0.4101716
h     5.1783541   -1.9246509   -0.0892817  0.00    0.0016709   -0.0078028    0.0052929
h    -2.2753402    2.9886592    0.0967370  0.00    0.0000077    0.0000872    0.0000704
h    -2.0897639    0.5292843    0.0129849  0.00   -0.0006993   -0.0007357    0.0004209
h    -0.2620916    4.3759105   -0.0869094  0.00    0.0002425    0.0010390   -0.0002632
h     1.9318712    3.3348572   -0.3448206  0.00    0.0006529    0.0007659   -0.0003590
h     2.3760765   -1.6101376   -0.5802982  0.00   -0.0002710   -0.0005282    0.0003039
o     5.7385879    1.7613387    1.6750576  0.00   -0.0017981    0.0040864    0.0046875
o     7.1134703    0.6090358    0.0444540  0.00    0.0039994    0.0014247    0.0001739
h     7.0659340   -0.1058075   -0.6885062  0.00   -0.9800800   -0.6386402   -0.4158814
    27
 Energy =       0.3673662168
c    -1.2782058    2.5518191   -0.0150657  0.00   -0.0011333    0.0009711    0.0001944
c    -1.2006542    1.1929820   -0.1163960  0.00   -0.0004761   -0.0025747    0.0000871
c     0.0173050    0.6313086   -0.2670512  0.00   -0.0008445   -0.0007760    0.0002329
c    -0.1432614    3.3147392   -0.0690184  0.00    0.0013540    0.0020787   -0.0001436
c     1.0770691    2.7240287   -0.2196307  0.00    0.0003213    0.0025501   -0.0000232
c     1.1332893    1.3661198   -0.3136932  0.00    0.0008191    0.0000791   -0.0000307
n     0.3088795   -0.7522782   -0.4065618  0.00    0.0005380   -0.0018925    0.0001566
c     2.1930491    0.5494349   -0.4662364  0.00    0.0004064    0.0017699    0.0001664
c     1.7351807   -0.7179223   -0.5475068  0.00   -0.0010403   -0.0022752    0.0000377
h    -0.3429767   -1.5725650   -0.4112463  0.00   -0.0018196   -0.0024817    0.0004620
c     3.6523085    0.9641871   -0.5795621  0.00    0.0007479    0.0010962    0.0000517
c     4.5972809    0.0307561    0.2127998  0.00    0.0008557   -0.0006597   -0.0003211
h     3.7714583    2.0025973   -0.2029748  0.00    0.0002077   -0.0001716   -0.0001911
h     3.9422210    0.9773869   -1.6543943  0.00    0.0001308   -0.0001207   -0.0006458
c     5.8447136    0.7804827    0.7050459  0.00   -0.0015233   -0.0011215   -0.0015154
n     4.9215076   -1.1365822   -0.6392282  0.00   -0.0065449    0.0054247   -0.0025762
h     4.0826886   -0.3058786    1.1452957  0.00   -0.0003547   -0.0002771    0.0001889
h     5.8376683   -0.9292523   -1.1512971  0.00    0.8013155    0.5178364    0.3332000
h     5.1598557   -1.9493294   -0.0155409  0.00    0.0014059   -0.0065047    0.0044189
h    -2.2468145    3.0307123    0.1067539  0.00   -0.0000387    0.0001952    0.0000795
h    -2.0917882    0.5730669   -0.0788105  0.00   -0.0010760   -0.0012873    0.0003460
h    -0.2135515    4.3991611    0.0080992  0.00    0.0003174    0.0020070   -0.0001419
h     1.9696854    3.3414694   -0.2655807  0.00    0.0009975    0.0013815   -0.0003108
h     2.3531267   -1.6004988   -0.7008926  0.00   -0.0002929   -0.0009313    0.0001765
o     5.7164712    1.7146016    1.7340252  0.00   -0.0013963    0.0032837    0.0037319
o     7.0966284    0.5666633    0.1075335  0.00    0.0032091    0.0011646    0.0001172
h     7.0552667   -0.1408264   -0.6310442  0.00   -0.7960856   -0.5187644   -0.3377480
    27
 Energy =       0.3357681428
c    -1.2582639    2.5707353   -0.0034864  0.00   -0.0012363    0.0014034    0.0002650
c    -1.1921450    1.2164098   -0.1634890  0.00   -0.0004242   -0.0031900   -0.0000418
c     0.0218980    0.6499974   -0.3272271  0.00   -0.0008666   -0.0007736    0.0001971
c    -0.1159390    3.3247215   -0.0126873  0.00    0.0014951    0.0025058   -0.0000405
c     1.1004088    2.7293575   -0.1772152  0.00    0.0002714    0.0032018    0.0001122
c     1.1452251    1.3756678   -0.3310903  0.00    0.0008359   -0.0000048   -0.0000808
n     0.3015231   -0.7298101   -0.5231647  0.00    0.0008834   -0.0026178   -0.0000632
c     2.1983576    0.5549326   -0.5093334  0.00    0.0003839    0.0021128    0.0003474
c     1.7293598   -0.7036996   -0.6475620  0.00   -0.0013822   -0.0027474   -0.0001175
h    -0.3579057   -1.5431125   -0.5699994  0.00   -0.0021324   -0.0029722    0.0002735
c     3.6640903    0.9543337   -0.5879387  0.00    0.0002996    0.0016769    0.0000033
c     4.5738847    0.0196114    0.2444227  0.00    0.0010421   -0.0001851    0.0001473
h     3.7867788    1.9968896   -0.2247915  0.00    0.0000997   -0.0000363   -0.0001196
h     3.9842892    0.9486576   -1.6546144  0.00    0.0002672   -0.0000143   -0.0010924
c     5.8221329    0.7567638    0.7524564  0.00   -0.0008480   -0.0009156   -0.0010638
n     4.8974965   -1.1702557   -0.5758080  0.00   -0.0042406    0.0035354   -0.0026197
h     4.0301593   -0.2908663    1.1702201  0.00   -0.0006236   -0.0003831    0.0007968
h     5.8032321   -0.9724275   -1.1041136  0.00    0.5911205    0.3822753    0.2457667
h     5.1474561   -1.9616237    0.0690224  0.00    0.0011155   -0.0051684    0.0035781
h    -2.2236016    3.0532299    0.1300007  0.00   -0.0000589    0.0003017    0.0000962
h    -2.0891977    0.6036244   -0.1614937  0.00   -0.0011716   -0.0015372    0.0002343
h    -0.1771148    4.4058318    0.1118360  0.00    0.0003182    0.0026159    0.0000191
h     1.9984786    3.3406669   -0.1858583  0.00    0.0010697    0.0017107   -0.0002115
h     2.3409000   -1.5856816   -0.8291112  0.00   -0.0002900   -0.0011774    0.0000283
o     5.6884848    1.6904676    1.7799186  0.00   -0.0009780    0.0022962    0.0025911
o     7.0793190    0.5382541    0.1691556  0.00    0.0022973    0.0007547   -0.0000430
h     7.0490943   -0.1662918   -0.5702269  0.00   -0.5872471   -0.3826673   -0.2489626
    27
 Energy =       0.3099910447
c    -1.2393598    2.5795691    0.0073732  0.00   -0.0012242    0.0016804    0.0003244
c    -1.1817214    1.2327562   -0.2108052  0.00   -0.0003630   -0.0034459   -0.0001711
c     0.0293257    0.6645762   -0.3898012  0.00   -0.0008200   -0.0007534    0.0001492
c    -0.0916158    3.3245199    0.0406804  0.00    0.0014748    0.0026763    0.0000711
c     1.1217144    2.7274692   -0.1397010  0.00    0.0001905    0.0035137    0.0002480
c     1.1580281    1.3811870   -0.3534360  0.00    0.0007670   -0.0000992   -0.0001239
n     0.3000977   -0.7082662   -0.6415860  0.00    0.0011339   -0.0029934   -0.0002487
c     2.2059569    0.5598308   -0.5595959  0.00    0.0002823    0.0021225    0.0004952
c     1.7289835   -0.6884548   -0.7522137  0.00   -0.0015560   -0.0029301   -0.0002655
h    -0.3649098   -1.5137764   -0.7287525  0.00   -0.0022070   -0.0031123    0.0000954
c     3.6766809    0.9444013   -0.6049168  0.00   -0.0003488    0.0021209   -0.0000352
c     4.5482814    0.0191899    0.2787737  0.00    0.0012667    0.0006011    0.0008813
h     3.8023630    1.9954827   -0.2683093  0.00   -0.0000247    0.0003076   -0.0000186
h     4.0286893    0.9070095   -1.6614909  0.00    0.0004722    0.0000386   -0.0017300
c     5.7952658    0.7496904    0.7985188  0.00   -0.0005406   -0.0008341   -0.0007354
n     4.8713477   -1.2015017   -0.4954643  0.00   -0.0024054    0.0016788   -0.0032499
h     3.9741260   -0.2547331    1.1986221  0.00   -0.0009425   -0.0004617    0.0015288
h     5.7679230   -1.0211189   -1.0403369  0.00    0.4232001    0.2739556    0.1757089
h     5.1305686   -1.9644647    0.1787283  0.00    0.0010053   -0.0045029    0.0032852
h    -2.2022104    3.0632847    0.1540980  0.00   -0.0000734    0.0003828    0.0001109
h    -2.0830976    0.6271606   -0.2422950  0.00   -0.0011428   -0.0016048    0.0001268
h    -0.1460046    4.3998105    0.2123847  0.00    0.0002942    0.0029320    0.0001696
h     2.0237357    3.3322701   -0.1123544  0.00    0.0010115    0.0018731   -0.0001054
h     2.3362915   -1.5675545   -0.9608779  0.00   -0.0003176   -0.0012620   -0.0001037
o     5.6516781    1.6973339    1.8111115  0.00   -0.0007967    0.0017116    0.0019573
o     7.0608379    0.5163277    0.2400106  0.00    0.0018693    0.0004040   -0.0002414
h     7.0454257   -0.1956156   -0.4905431  0.00   -0.4202053   -0.2739994   -0.1781234
    27
 Energy =       0.2917470321
c    -1.2215406    2.5998711   -0.0561059  0.00   -0.0015652    0.0009800    0.0002194
c    -1.1709151    1.2599481   -0.3120024  0.00   -0.0006790   -0.0031382   -0.0002127
c     0.0392786    0.6855461   -0.4762639  0.00   -0.0009102   -0.0009422    0.0000546
c    -0.0677078    3.3318566    0.0292799  0.00    0.0018306    0.0025327    0.0001076
c     1.1446333    2.7286083   -0.1368549  0.00    0.0005181    0.0031710    0.0002638
c     1.1737697    1.3894402   -0.3900693  0.00    0.0010941    0.0000821   -0.0001028
n     0.3034514   -0.6818747   -0.7597329  0.00    0.0002195   -0.0022623   -0.0001629
c     2.2188436    0.5641612   -0.5941001  0.00   -0.0000362    0.0022742    0.0004660
c     1.7352673   -0.6732877   -0.8321470  0.00   -0.0011122   -0.0025255   -0.0003178
h    -0.3668222   -1.4776880   -0.8875056  0.00   -0.0024072   -0.0031930   -0.0000607
c     3.6947770    0.9318658   -0.5887608  0.00   -0.0005035    0.0028442    0.0000723
c     4.5182518    0.0129953    0.3473035  0.00    0.0015360    0.0010730    0.0013871
h     3.8213799    1.9883378   -0.2701628  0.00   -0.0002156    0.0004288   -0.0000069
h     4.0881236    0.8690119   -1.6300723  0.00    0.0007439    0.0000813   -0.0023735
c     5.7648765    0.7309870    0.8846177  0.00   -0.0002990   -0.0007824   -0.0004656