    27
 Energy =       0.3640797345
c    -1.4235396    2.6054793   -0.0667700  0.00   -0.0462172    0.0384122    0.0028592
c    -1.3072796    1.2134697   -0.1072300  0.00   -0.0852267   -0.0325918    0.0020800
c    -0.0178900    0.6711998   -0.1697000  0.00   -0.0888251   -0.1883183   -0.0014409
c    -0.2940599    3.4190890   -0.0891300  0.00   -0.0232461    0.0690456    0.0030744
c     0.9872197    2.8590292   -0.1560400  0.00    0.0393139    0.0662508    0.0076164
c     1.1340797    1.4562096   -0.1970299  0.00    0.0577630    0.0538392    0.0030297
n     0.3879399   -0.6395298   -0.2140799  0.00    0.1424350    0.1097118   -0.0027508
c     2.2666594    0.5727398   -0.2659299  0.00    0.1515019   -0.0945627   -0.0292346
c     1.7555995   -0.7123598   -0.2706899  0.00   -0.1010786   -0.0975714    0.0040555
h    -0.2400399   -1.4313496   -0.2047299  0.00    0.0367464    0.0478017   -0.0006885
c     3.7030089    1.0223397   -0.3320099  0.00    0.0456026    0.0566237   -0.0029769
c     4.0547688    2.2615794    0.5049969  0.00   -0.0824835   -0.0597320   -0.1170114
h     3.9407589    1.2278196   -1.3843196  0.00    0.0235473    0.0090120    0.0218850
h     4.3455988    0.1801669   -0.0411573  0.00   -0.0122812    0.0092151   -0.0047219
c     5.4270085    2.7951492    0.0535521  0.00    0.2190111    0.2956286    0.1215736
n     4.1412688    1.9836494    1.9826994  0.00    0.0549738    0.0015719    0.0869901
h     3.3277791    3.0673291    0.3491609  0.00   -0.4888478    0.1256911   -0.1628213
h     3.8646489    1.0062597    2.1215594  0.00    0.0145056    0.0292853   -0.0253807
h     5.1335385    1.9976794    2.2436094  0.00   -0.0304664    0.0053058   -0.0416834
h    -2.4108593    3.0588691   -0.0157800  0.00   -0.0007532    0.0001860   -0.0000462
h    -2.1896094    0.5822398   -0.0890100  0.00   -0.0035813    0.0037855    0.0000044
h    -0.4052699    4.5000487   -0.0535400  0.00    0.0004843    0.0002074    0.0001086
h     1.8590495    3.5066790   -0.1715100  0.00    0.4769826   -0.1415456    0.1692676
h     2.2327294   -1.6813195   -0.3062999  0.00   -0.0407056   -0.0110817    0.0023826
o     5.9651583    3.8090989    0.4660999  0.00   -0.1254428   -0.2482844   -0.0891529
o     5.9866783    1.9824394   -0.8828527  0.00   -0.1036124   -0.0360278    0.0259044
h     6.1278383    2.5633493   -1.6748295  0.00   -0.0300998   -0.0118580    0.0270781
    27
 Energy =       0.3458318350
c    -1.4065262    2.6061228   -0.1291216  0.00   -0.0422987    0.0351910    0.0026576
c    -1.2914620    1.2174430   -0.1527558  0.00   -0.0779891   -0.0299235    0.0019408
c    -0.0075685    0.6728972   -0.2055511  0.00   -0.0814932   -0.1713508   -0.0014794
c    -0.2779769    3.4156401   -0.1606511  0.00   -0.0212766    0.0632074    0.0028931
c     0.9998661    2.8543996   -0.2162865  0.00    0.0358143    0.0607365    0.0070467
c     1.1436885    1.4519643   -0.2315632  0.00    0.0521688    0.0495270    0.0026680
n     0.3840095   -0.6463920   -0.2118418  0.00    0.1301280    0.0997970   -0.0025328
c     2.2699484    0.5636440   -0.2585967  0.00    0.1372609   -0.0860282   -0.0266777
c     1.7571276   -0.7174409   -0.2402517  0.00   -0.0925001   -0.0887380    0.0037462
h    -0.2502258   -1.4370310   -0.1972132  0.00    0.0335735    0.0436884   -0.0006163
c     3.7220114    0.9776105   -0.2712981  0.00    0.0404120    0.0525435   -0.0017970
c     4.0543648    2.2611977    0.5080418  0.00   -0.0751113   -0.0532838   -0.1105582
h     4.0175128    1.0923602   -1.3286898  0.00    0.0221802    0.0084225    0.0145557
h     4.3330578    0.1441472    0.1175958  0.00   -0.0080202    0.0047525   -0.0028032
c     5.4396182    2.7725062    0.0766871  0.00    0.2011086    0.2705759    0.1096271
n     4.0749898    2.0647019    2.0015696  0.00    0.0485094    0.0049084    0.0832259
h     3.3395808    3.0564827    0.2785317  0.00   -0.4504435    0.1172340   -0.1495616
h     3.7599528    1.1058848    2.2021054  0.00    0.0124936    0.0227517   -0.0208909
h     5.0534227    2.0967518    2.3182365  0.00   -0.0255059    0.0041393   -0.0360408
h    -2.3933397    3.0614156   -0.0857239  0.00   -0.0007104    0.0002041   -0.0000386
h    -2.1740290    0.5868278   -0.1252242  0.00   -0.0032937    0.0034083    0.0000149
h    -0.3880954    4.4973609   -0.1431106  0.00    0.0004246    0.0003582    0.0000975
h     1.8668522    3.5112176   -0.2482039  0.00    0.4378528   -0.1294213    0.1551322
h     2.2453208   -1.6833546   -0.2201807  0.00   -0.0363340   -0.0115365    0.0023001
o     5.9742139    3.8006411    0.5013055  0.00   -0.1149293   -0.2269207   -0.0815393
o     6.0072624    1.9818895   -0.8746705  0.00   -0.0946237   -0.0348537    0.0255104
h     6.0992064    2.5684663   -1.6740996  0.00   -0.0273973   -0.0093891    0.0231196
    27
 Energy =       0.3416423086
c    -1.4131802    2.6217088   -0.0701821  0.00   -0.0416863    0.0347404    0.0026166
c    -1.3012602    1.2329811   -0.1096370  0.00   -0.0768429   -0.0295911    0.0019200
c    -0.0190244    0.6871728   -0.1691880  0.00   -0.0805790   -0.1676495   -0.0013924
c    -0.2826759    3.4293025   -0.0930558  0.00   -0.0209706    0.0623307    0.0028343
c     0.9931695    2.8652921   -0.1579222  0.00    0.0352794    0.0599318    0.0069277
c     1.1307892    1.4653600   -0.1941290  0.00    0.0508827    0.0489899    0.0024844
n     0.3722354   -0.6331290   -0.2188293  0.00    0.1284406    0.0974387   -0.0025506
c     2.2550267    0.5823359   -0.2567886  0.00    0.1336778   -0.0840442   -0.0257976
c     1.7466170   -0.7000687   -0.2624327  0.00   -0.0914481   -0.0867403    0.0037656
h    -0.2609521   -1.4254394   -0.2172249  0.00    0.0330070    0.0429044   -0.0006224
c     3.6996321    1.0116557   -0.3319647  0.00    0.0378836    0.0520531   -0.0008136
c     4.0655747    2.2480402    0.5099796  0.00   -0.0737050   -0.0512086   -0.1113487
h     3.9316301    1.2164954   -1.3978934  0.00    0.0221169    0.0090405    0.0084653
h     4.3448942    0.1568566   -0.0411573  0.00   -0.0043534    0.0007609   -0.0016428
c     5.4411114    2.7663908    0.0567635  0.00    0.1986572    0.2668617    0.1070929
n     4.1356470    1.9685243    1.9917524  0.00    0.0472672    0.0072541    0.0860084
h     3.3450810    3.0646791    0.3484215  0.00   -0.4454758    0.1175397   -0.1474995
h     3.8477263    0.9893173    2.1415190  0.00    0.0119716    0.0195141   -0.0190126
h     5.1270681    1.9825111    2.2727716  0.00   -0.0238932    0.0033901   -0.0343051
h    -2.3989640    3.0786740   -0.0211666  0.00   -0.0007117    0.0002239   -0.0000374
h    -2.1850741    0.6036156   -0.0936221  0.00   -0.0032858    0.0032896    0.0000145
h    -0.3898878    4.5110449   -0.0602411  0.00    0.0004062    0.0004786    0.0000934
h     1.8666978    3.5126092   -0.1760435  0.00    0.4314014   -0.1274433    0.1528088
h     2.2387895   -1.6649115   -0.2970483  0.00   -0.0350603   -0.0127544    0.0022465
o     5.9856179    3.7938491    0.4760596  0.00   -0.1132339   -0.2234908   -0.0803100
o     6.0018023    1.9680551   -0.8950443  0.00   -0.0927989   -0.0348565    0.0256977
h     6.0746920    2.5444315   -1.7046568  0.00   -0.0269467   -0.0089639    0.0223567
    27
 Energy =       0.2939683332
c    -1.3829691    2.6792127   -0.0417231  0.00   -0.0295481    0.0244173    0.0018264
c    -1.2886376    1.2989627   -0.0904313  0.00   -0.0545566   -0.0213069    0.0013666
c    -0.0273877    0.7397166   -0.1461018  0.00   -0.0561062   -0.1173257    0.0002542
c    -0.2456817    3.4662272   -0.0580228  0.00   -0.0151428    0.0441872    0.0019319
c     1.0128692    2.8860701   -0.1231464  0.00    0.0257001    0.0429571    0.0049716
c     1.1173587    1.4973812   -0.1629967  0.00    0.0356990    0.0351106    0.0016227
n     0.3231518   -0.6017755   -0.2416470  0.00    0.0909720    0.0671538   -0.0032642
c     2.2157492    0.6229414   -0.2386068  0.00    0.0939840   -0.0586994   -0.0179242
c     1.7140903   -0.6509633   -0.2706989  0.00   -0.0653077   -0.0602602    0.0035078
h    -0.3235272   -1.3951218   -0.2675908  0.00    0.0229829    0.0299668   -0.0008666
c     3.6653875    1.0202457   -0.3632327  0.00    0.0259077    0.0364228   -0.0016113
c     4.1018333    2.2008082    0.5272052  0.00   -0.0513985   -0.0355469   -0.0788226
h     3.8549384    1.2825451   -1.4277597  0.00    0.0174228    0.0077949    0.0035660
h     4.3081790    0.1363139   -0.1458955  0.00   -0.0011524   -0.0017912   -0.0007141
c     5.4837618    2.6805975    0.0675294  0.00    0.1417898    0.1911672    0.0767204
n     4.1507554    1.8561063    1.9873927  0.00    0.0338568    0.0063207    0.0632315
h     3.4095533    3.0536701    0.3981654  0.00   -0.3357679    0.0895435   -0.1115157
h     3.8446614    0.8731392    2.1097653  0.00    0.0080922    0.0129095   -0.0132562
h     5.1386896    1.8625931    2.2998255  0.00   -0.0161983    0.0024499   -0.0245663
h    -2.3626625    3.1493008    0.0051860  0.00   -0.0006221    0.0001729   -0.0000210
h    -2.1791358    0.6786675   -0.0899881  0.00   -0.0024596    0.0021644   -0.0000258
h    -0.3368036    4.5494173   -0.0211542  0.00    0.0002454    0.0004837    0.0000661
h     1.9002755    3.5167265   -0.1394310  0.00    0.3242764   -0.0953025    0.1146415
h     2.2404676   -1.5967040   -0.3483232  0.00   -0.0242174   -0.0101638    0.0015487
o     6.0496330    3.7440112    0.4966808  0.00   -0.0805918   -0.1588324   -0.0580787
o     6.0522945    1.9013837   -0.9062861  0.00   -0.0608661   -0.0509964    0.0544159
h     5.9159389    2.4258811   -1.7796748  0.00   -0.0269938    0.0170030   -0.0190046
    27
 Energy =       0.2892764022
c    -1.3841692    2.6646684   -0.0166270  0.00   -0.0288484    0.0238479    0.0017738
c    -1.2817818    1.2848330   -0.0456222  0.00   -0.0534086   -0.0211772    0.0013049
c    -0.0189560    0.7330186   -0.1223125  0.00   -0.0534219   -0.1114888   -0.0000038
c    -0.2526025    3.4583829   -0.0612597  0.00   -0.0145801    0.0433507    0.0018798
c     1.0077391    2.8860466   -0.1442595  0.00    0.0254269    0.0419573    0.0048355
c     1.1196029    1.4976837   -0.1800931  0.00    0.0351894    0.0349077    0.0015858
n     0.3388941   -0.6123161   -0.1533006  0.00    0.0845671    0.0637078   -0.0025715
c     2.2213279    0.6304807   -0.2757824  0.00    0.0927022   -0.0567130   -0.0172689
c     1.7292670   -0.6470441   -0.2726881  0.00   -0.0592197   -0.0573753    0.0029013
h    -0.3009712   -1.4141270   -0.1088377  0.00    0.0197971    0.0260231   -0.0006103
c     3.6676367    1.0378419   -0.4218470  0.00    0.0251116    0.0354262   -0.0017397
c     4.0945260    2.1996923    0.4936203  0.00   -0.0505289   -0.0344027   -0.0769361
h     3.8515700    1.3285149   -1.4808051  0.00    0.0172484    0.0077899    0.0030655
h     4.3190844    0.1547765   -0.2261542  0.00   -0.0009484   -0.0019738   -0.0006794
c     5.4791615    2.6935424    0.0650133  0.00    0.1380033    0.1860564    0.0747889
n     4.1190277    1.8325143    1.9485445  0.00    0.0327479    0.0063037    0.0621437
h     3.4039106    3.0520679    0.3611017  0.00   -0.3271250    0.0872027   -0.1087295
h     3.8144004    0.8461387    2.0505284  0.00    0.0077095    0.0122416   -0.0129085
h     5.1009007    1.8373084    2.2805699  0.00   -0.0154716    0.0023889   -0.0237720
h    -2.3658380    3.1289002    0.0474604  0.00   -0.0008138    0.0001485   -0.0000103
h    -2.1677920    0.6581888   -0.0051817  0.00   -0.0031034    0.0016055    0.0000069
h    -0.3498601    4.5411982   -0.0285513  0.00    0.0002583    0.0005061    0.0000653
h     1.8903984    3.5250357   -0.1667678  0.00    0.3160197   -0.0927687    0.1117634
h     2.2624324   -1.5885104   -0.3546630  0.00   -0.0236838   -0.0100246    0.0014787
o     6.0178084    3.7649072    0.5187262  0.00   -0.0782491   -0.1539946   -0.0562836
o     6.0782151    1.9270160   -0.8998480  0.00   -0.0590809   -0.0501739    0.0527008
h     5.9588510    2.4565948   -1.7719242  0.00   -0.0262979    0.0166285   -0.0187805
    27
 Energy =       0.2605486301
c    -1.3786004    2.6988034    0.0280506  0.00   -0.0216145    0.0177432    0.0012591
c    -1.2868932    1.3238280   -0.0046878  0.00   -0.0400041   -0.0158836    0.0008732
c    -0.0371642    0.7639317   -0.0913804  0.00   -0.0399112   -0.0832138   -0.0000039
c    -0.2432523    3.4798190   -0.0231574  0.00   -0.0110623    0.0324416    0.0013561
c     1.0054506    2.8972493   -0.1175882  0.00    0.0194270    0.0315318    0.0036798
c     1.0975656    1.5163192   -0.1583954  0.00    0.0260644    0.0262382    0.0011886
n     0.2985312   -0.5933807   -0.1392375  0.00    0.0631490    0.0473901   -0.0017485
c     2.1835239    0.6559973   -0.2754780  0.00    0.0688579   -0.0422232   -0.0124426
c     1.6963198   -0.6168741   -0.2786072  0.00   -0.0444453   -0.0425755    0.0020865
h    -0.3471098   -1.3966240   -0.0930930  0.00    0.0147907    0.0194892   -0.0004522
c     3.6295103    1.0490189   -0.4664303  0.00    0.0183007    0.0262892   -0.0022264
c     4.1107241    2.1624300    0.4840819  0.00   -0.0370837   -0.0251896   -0.0576679
h     3.7793037    1.3876318   -1.5191373  0.00    0.0139603    0.0068817    0.0004440
h     4.2786810    0.1500765   -0.3346519  0.00    0.0006420   -0.0030944   -0.0003056
c     5.4914459    2.6394312    0.0389815  0.00    0.1026525    0.1397768    0.0554592
n     4.1387139    1.7393038    1.9191854  0.00    0.0248628    0.0054578    0.0483166
h     3.4391592    3.0385299    0.3899072  0.00   -0.2557380    0.0690415   -0.0853427
h     3.8236934    0.7509908    1.9967969  0.00    0.0056071    0.0085217   -0.0094168
h     5.1218404    1.7308889    2.2574839  0.00   -0.0113961    0.0016386   -0.0178308
h    -2.3557640    3.1710823    0.1004829  0.00   -0.0006870    0.0001340   -0.0000084
h    -2.1762958    0.7026927    0.0391050  0.00   -0.0023402    0.0011717   -0.0000060
h    -0.3299258    4.5633922    0.0135472  0.00    0.0001655    0.0004449    0.0000481
h     1.8959214    3.5248123   -0.1431429  0.00    0.2464183   -0.0722551    0.0873333
h     2.2472239   -1.5457937   -0.3920634  0.00   -0.0172925   -0.0079431    0.0009756
o     6.0570498    3.7197966    0.5144047  0.00   -0.0580916   -0.1153693   -0.0415643
o     6.0955267    1.8826584   -0.9367570  0.00   -0.0437557   -0.0503922    0.0567257
h     6.1176041    2.4813428   -1.7791800  0.00   -0.0214760    0.0239475   -0.0307296
    27
 Energy =       0.2421557694
c    -1.3734376    2.7312390    0.0577895  0.00   -0.0167601    0.0136730    0.0009269
c    -1.2917690    1.3594266    0.0197875  0.00   -0.0309647   -0.0122993    0.0006184
c    -0.0521888    0.7917509   -0.0773739  0.00   -0.0307954   -0.0641759    0.0000446
c    -0.2341230    3.5013448    0.0008796  0.00   -0.0086567    0.0251046    0.0010128
c     1.0051131    2.9094101   -0.1045966  0.00    0.0152919    0.0244482    0.0028844
c     1.0813693    1.5336420   -0.1506625  0.00    0.0200584    0.0203152    0.0009333
n     0.2656697   -0.5738652   -0.1400139  0.00    0.0488306    0.0364199   -0.0013342
c     2.1549843    0.6763567   -0.2831604  0.00    0.0531238   -0.0325464   -0.0093899
c     1.6684942   -0.5925185   -0.2907443  0.00   -0.0343846   -0.0328233    0.0016118
h    -0.3856316   -1.3768010   -0.0952056  0.00    0.0114041    0.0150632   -0.0003598
c     3.6014346    1.0576224   -0.4994158  0.00    0.0136674    0.0201291   -0.0022103
c     4.1214862    2.1334071    0.4754715  0.00   -0.0282568   -0.0191982   -0.0446124
h     3.7313787    1.4272947   -1.5446077  0.00    0.0112217    0.0057198   -0.0003812
h     4.2435821    0.1479454   -0.4100383  0.00    0.0010513   -0.0031761   -0.0001471
c     5.5078151    2.5897904    0.0318521  0.00    0.0786475    0.1083569    0.0422626
n     4.1350960    1.6724078    1.8957696  0.00    0.0192579    0.0047255    0.0380535
h     3.4726653    3.0302995    0.4026588  0.00   -0.2044536    0.0557885   -0.0685372
h     3.8004644    0.6873416    1.9555621  0.00    0.0040903    0.0060113   -0.0072050
h     5.1154110    1.6450729    2.2479950  0.00   -0.0084265    0.0011561   -0.0136308
h    -2.3463181    3.2108256    0.1386955  0.00   -0.0006010    0.0001307   -0.0000052
h    -2.1846243    0.7437889    0.0664773  0.00   -0.0018296    0.0008833   -0.0000106
h    -0.3112072    4.5854780    0.0418881  0.00    0.0001066    0.0004014    0.0000374
h     1.9014111    3.5272969   -0.1340964  0.00    0.1967122   -0.0576983    0.0698469
h     2.2289380   -1.5138524   -0.4223873  0.00   -0.0132214   -0.0062714    0.0007052
o     6.0961442    3.6686163    0.5333613  0.00   -0.0442804   -0.0890857   -0.0315636
o     6.1242685    1.8340701   -0.9412932  0.00   -0.0352303   -0.0490841    0.0565384
h     6.2763572    2.4699637   -1.7455523  0.00   -0.0156027    0.0280319   -0.0360890
    27
 Energy =       0.2287652923
c    -1.3672365    2.7655354    0.0776905  0.00   -0.0130265    0.0105821    0.0006785
c    -1.2958240    1.3961228    0.0311053  0.00   -0.0240027   -0.0095419    0.0004455
c    -0.0652070    0.8207031   -0.0776806  0.00   -0.0237623   -0.0495305    0.0001145
c    -0.2235860    3.5253139    0.0172684  0.00   -0.0067990    0.0194717    0.0007470
c     1.0069181    2.9241357   -0.0998223  0.00    0.0120987    0.0189753    0.0022583
c     1.0684950    1.5528686   -0.1541198  0.00    0.0154997    0.0157216    0.0007327
n     0.2368252   -0.5513193   -0.1563376  0.00    0.0378457    0.0279704   -0.0010750
c     2.1313427    0.6973670   -0.3002489  0.00    0.0411629   -0.0251325   -0.0070933
c     1.6437183   -0.5678436   -0.3141414  0.00   -0.0265991   -0.0253889    0.0012843
h    -0.4200173   -1.3532201   -0.1157471  0.00    0.0087884    0.0116340   -0.0002955
c     3.5792144    1.0691690   -0.5290834  0.00    0.0097972    0.0153210   -0.0020117
c     4.1293633    2.1089059    0.4704926  0.00   -0.0218134   -0.0146161   -0.0348088
h     3.6982336    1.4667638   -1.5650649  0.00    0.0089196    0.0046980   -0.0007852
h     4.2120929    0.1501912   -0.4740741  0.00    0.0011268   -0.0030685   -0.0000377
c     5.5316133    2.5338642    0.0462975  0.00    0.0599371    0.0840506    0.0320796
n     4.1085890    1.6181913    1.8784536  0.00    0.0144251    0.0043454    0.0299040
h     3.5103293    3.0293415    0.4075075  0.00   -0.1635670    0.0453917   -0.0551839
h     3.7419859    0.6418503    1.9212259  0.00    0.0026807    0.0035875   -0.0054828
h     5.0816598    1.5602537    2.2528282  0.00   -0.0054988    0.0006992   -0.0100140
h    -2.3357256    3.2522344    0.1678904  0.00   -0.0005375    0.0001388   -0.0000009
h    -2.1923352    0.7861784    0.0791916  0.00   -0.0014356    0.0006626   -0.0000122
h    -0.2910936    4.6098149    0.0649214  0.00    0.0000594    0.0003815    0.0000299
h     1.9087260    3.5318616   -0.1320216  0.00    0.1570577   -0.0462336    0.0558829
h     2.2103249   -1.4838928   -0.4586439  0.00   -0.0101605   -0.0049146    0.0005247
o     6.1439259    3.6017962    0.5798836  0.00   -0.0331861   -0.0685736   -0.0237809
o     6.1653406    1.7706465   -0.9135526  0.00   -0.0291627   -0.0460740    0.0533680
h     6.4351103    2.4205210   -1.6751789  0.00   -0.0098477    0.0294425   -0.0374677
    27
 Energy =       0.2233493932
c    -1.3509161    2.8205171    0.0583681  0.00   -0.0115900    0.0092868    0.0006120
c    -1.2980905    1.4506794    0.0254556  0.00   -0.0211162   -0.0085250    0.0003788
c    -0.0773965    0.8583717   -0.0835150  0.00   -0.0207357   -0.0432652    0.0000432
c    -0.1975451    3.5634214   -0.0166819  0.00   -0.0059509    0.0172297    0.0006841
c     1.0225765    2.9435884   -0.1337444  0.00    0.0107323    0.0167147    0.0020341
c     1.0630421    1.5741263   -0.1715253  0.00    0.0136484    0.0136757    0.0006615
n     0.2051061   -0.5201953   -0.1454507  0.00    0.0331068    0.0242149   -0.0009096
c     2.1130704    0.7087116   -0.3086767  0.00    0.0360767   -0.0218078   -0.0061217
c     1.6137761   -0.5510878   -0.3068304  0.00   -0.0231849   -0.0223295    0.0010778
h    -0.4620287   -1.3144957   -0.0935049  0.00    0.0075188    0.0099937   -0.0002306
c     3.5661890    1.0615119   -0.5339437  0.00    0.0080191    0.0132250   -0.0017454
c     4.1343008    2.0959318    0.4639663  0.00   -0.0200322   -0.0129093   -0.0313537
h     3.6948373    1.4530225   -1.5706523  0.00    0.0078585    0.0042130   -0.0007542
h     4.1832928    0.1321895   -0.4726246  0.00    0.0010974   -0.0028844    0.0000055
c     5.5682961    2.4488752    0.0695391  0.00    0.0514391    0.0742944    0.0278690
n     4.0522092    1.6281575    1.8778006  0.00    0.0107438    0.0051442    0.0269835
h     3.5563308    3.0447919    0.3701532  0.00   -0.1451049    0.0416996   -0.0489466
h     3.6326964    0.6719172    1.9313967  0.00    0.0013667    0.0006485   -0.0041740
h     5.0114827    1.5292496    2.2830917  0.00   -0.0027803    0.0001824   -0.0076681
h    -2.3122298    3.3213669    0.1485680  0.00   -0.0005911    0.0001800    0.0000104
h    -2.2021293    0.8528300    0.0851738  0.00   -0.0013949    0.0004626   -0.0000023
h    -0.2494185    4.6493931    0.0182989  0.00    0.0000554    0.0005498    0.0000363
h     1.9351282    3.5325470   -0.1826387  0.00    0.1386970   -0.0408278    0.0491597
h     2.1754297   -1.4726209   -0.4377819  0.00   -0.0088330   -0.0044232    0.0004389
o     6.2231984    3.4957496    0.6112745  0.00   -0.0273085   -0.0592087   -0.0204910
o     6.2053036    1.6370366   -0.8521391  0.00   -0.0243134   -0.0440860    0.0485861
h     6.5462714    2.2617679   -1.6043375  0.00   -0.0074243    0.0285521   -0.0361836
    27
 Energy =       0.2192011978
c    -1.3684957    2.7769490    0.0672223  0.00   -0.0108896    0.0088923    0.0005981
c    -1.2975002    1.4101340   -0.0163099  0.00   -0.0191272   -0.0086859    0.0003404
c    -0.0693138    0.8374986   -0.1347782  0.00   -0.0187469   -0.0380961    0.0003269
c    -0.2245764    3.5366547    0.0333567  0.00   -0.0048893    0.0163053    0.0005851
c     1.0037922    2.9374073   -0.0922146  0.00    0.0096294    0.0160231    0.0018340
c     1.0624102    1.5702699   -0.1838363  0.00    0.0123697    0.0121862    0.0005157
n     0.2280632   -0.5366164   -0.2584168  0.00    0.0298639    0.0200228   -0.0011240
c     2.1238421    0.7239351   -0.3440955  0.00    0.0328549   -0.0187790   -0.0053428
c     1.6411093   -0.5411829   -0.3960372  0.00   -0.0208693   -0.0206672    0.0010773
h    -0.4297547   -1.3427053   -0.2522580  0.00    0.0056335    0.0074283   -0.0002600
c     3.5771305    1.0985469   -0.5467153  0.00    0.0069543    0.0112772   -0.0020071
c     4.1266659    2.0967474    0.4981583  0.00   -0.0181927   -0.0106613   -0.0285056
h     3.7090314    1.5323450   -1.5668430  0.00    0.0072777    0.0041486   -0.0016134
h     4.2039679    0.1740345   -0.5177239  0.00    0.0011169   -0.0032159   -0.0001016
c     5.5586936    2.4909778    0.1378537  0.00    0.0450129    0.0663197    0.0242407
n     4.0297012    1.5732970    1.8914893  0.00    0.0095831    0.0052042    0.0261495
h     3.5429531    3.0420795    0.4316988  0.00   -0.1304114    0.0379293   -0.0441416
h     3.6193664    0.6105477    1.9041215  0.00    0.0006414   -0.0007950   -0.0035112
h     4.9839222    1.4696124    2.3082907  0.00   -0.0023933    0.0000485   -0.0066182
h    -2.3372004    3.2621086    0.1652570  0.00   -0.0006798    0.0003266    0.0000300
h    -2.1945556    0.7984039    0.0086063  0.00   -0.0017642   -0.0001955   -0.0000020
h    -0.2906703    4.6205810    0.1104111  0.00    0.0001403    0.0015363    0.0000963
h     1.9056150    3.5447240   -0.1005259  0.00    0.1253781   -0.0358516    0.0444096
h     2.2192440   -1.4484890   -0.5557235  0.00   -0.0077634   -0.0046594    0.0003234
o     6.1787039    3.5363802    0.7351366  0.00   -0.0234423   -0.0509908   -0.0168683
o     6.2347328    1.7244430   -0.7959391  0.00   -0.0220131   -0.0427397    0.0448821
h     6.6159056    2.3786708   -1.5011456  0.00   -0.0052736    0.0276891   -0.0353132
    27
 Energy =       0.2184108612
c    -1.3723034    2.7659991    0.0255533  0.00   -0.0108184    0.0085942    0.0005996
c    -1.2941725    1.4022670   -0.0944462  0.00   -0.0184528   -0.0089374    0.0002997
c    -0.0621363    0.8380654   -0.2091483  0.00   -0.0180897   -0.0364118    0.0004077
c    -0.2311880    3.5309120    0.0322366  0.00   -0.0042196    0.0160759    0.0005628
c     1.0013954    2.9401774   -0.0876590  0.00    0.0093343    0.0159535    0.0017802
c     1.0673109    1.5764207   -0.2179724  0.00    0.0120592    0.0116764    0.0004521
n     0.2416521   -0.5315456   -0.3719087  0.00    0.0282334    0.0185982   -0.0011709
c     2.1349448    0.7390741   -0.3805040  0.00    0.0313376   -0.0175532   -0.0050943
c     1.6584832   -0.5262408   -0.4747566  0.00   -0.0198913   -0.0201549    0.0010471
h    -0.4133585   -1.3405497   -0.4060128  0.00    0.0045677    0.0060658   -0.0003065
c     3.5936923    1.1213357   -0.5381024  0.00    0.0065447    0.0106069   -0.0023504
c     4.1151098    2.0992234    0.5412280  0.00   -0.0183210   -0.0093884   -0.0282812
h     3.7533845    1.5741317   -1.5464317  0.00    0.0070795    0.0041830   -0.0021356
h     4.2200910    0.1966085   -0.5083551  0.00    0.0010680   -0.0031419   -0.0001073
c     5.5665852    2.4820389    0.2464310  0.00    0.0425859    0.0639598    0.0236349
n     3.9549182    1.5611793    1.9241388  0.00    0.0077424    0.0049831    0.0265548
h     3.5476022    3.0532451    0.4604163  0.00   -0.1249774    0.0364685   -0.0424349
h     3.5263215    0.6059099    1.9110289  0.00    0.0002343   -0.0015637   -0.0030811
h     4.8905806    1.4348668    2.3778784  0.00   -0.0007697   -0.0002426   -0.0053265
h    -2.3446193    3.2445026    0.1205741  0.00   -0.0007030    0.0003115    0.0000320
h    -2.1891127    0.7861968   -0.1024488  0.00   -0.0021016   -0.0006124   -0.0000157
h    -0.3028829    4.6123282    0.1391400  0.00    0.0002558    0.0019674    0.0001301
h     1.8992553    3.5521123   -0.0583034  0.00    0.1204822   -0.0338001    0.0425343
h     2.2453243   -1.4268108   -0.6408781  0.00   -0.0074367   -0.0045750    0.0003029
o     6.1660051    3.5217166    0.8785829  0.00   -0.0216202   -0.0480159   -0.0158275
o     6.2862206    1.7074990   -0.6488486  0.00   -0.0193937   -0.0418144    0.0421722
h     6.6936800    2.3566907   -1.3423925  0.00   -0.0047299    0.0267674   -0.0343782
    27
 Energy =       0.2167900412
c    -1.3731712    2.7698599    0.0781052  0.00   -0.0109154    0.0083482    0.0006058
c    -1.2999859    1.4036123   -0.0151153  0.00   -0.0182027   -0.0091144    0.0002701
c    -0.0713556    0.8344842   -0.1388328  0.00   -0.0178155   -0.0356565    0.0003932
c    -0.2303986    3.5325212    0.0484624  0.00   -0.0037884    0.0160240    0.0005536
c     0.9985785    2.9368325   -0.0825126  0.00    0.0092551    0.0159522    0.0017582
c     1.0588665    1.5703730   -0.1839561  0.00    0.0119632    0.0114516    0.0004264
n     0.2269495   -0.5397094   -0.2743554  0.00    0.0271388    0.0179796   -0.0010971
c     2.1213597    0.7286747   -0.3517967  0.00    0.0304031   -0.0169008   -0.0049631
c     1.6415749   -0.5376489   -0.4125831  0.00   -0.0192665   -0.0199020    0.0009773
h    -0.4298719   -1.3488018   -0.2741627  0.00    0.0038543    0.0051944   -0.0002940
c     3.5751933    1.1080436   -0.5555530  0.00    0.0063677    0.0103077   -0.0026137
c     4.1287456    2.0952615    0.4996029  0.00   -0.0187597   -0.0085000   -0.0282722
h     3.7030617    1.5529433   -1.5723271  0.00    0.0069631    0.0042393   -0.0026286
h     4.2038646    0.1846305   -0.5387682  0.00    0.0011895   -0.0031216   -0.0000989
c     5.5634172    2.4941406    0.1431897  0.00    0.0411143    0.0638902    0.0242433
n     4.0290060    1.5583313    1.8897869  0.00    0.0062671    0.0046501    0.0274278
h     3.5466010    3.0421405    0.4406928  0.00   -0.1224821    0.0358526   -0.0415888
h     3.6113520    0.5978846    1.8956810  0.00    0.0000680   -0.0019293   -0.0027776
h     4.9841594    1.4457884    2.3074074  0.00    0.0005833   -0.0004596   -0.0044264
h    -2.3428054    3.2523282    0.1804447  0.00   -0.0007524    0.0002807    0.0000343
h    -2.1962438    0.7891457    0.0059459  0.00   -0.0023894   -0.0008976   -0.0000132
h    -0.2979796    4.6163499    0.1333111  0.00    0.0003504    0.0022003    0.0001415
h     1.8991755    3.5472320   -0.0870158  0.00    0.1182405   -0.0326536    0.0415519
h     2.2236980   -1.4410399   -0.5802831  0.00   -0.0072588   -0.0044969    0.0002861
o     6.1875749    3.5257356    0.7668900  0.00   -0.0209173   -0.0465266   -0.0152829
o     6.2429526    1.7459679   -0.8076018  0.00   -0.0166963   -0.0427902    0.0392112
h     6.6484642    2.4122733   -1.4856170  0.00   -0.0045139    0.0265782   -0.0338242
    27
 Energy =       0.2137317267
c    -1.3725557    2.7764415    0.1343691  0.00   -0.0104684    0.0076703    0.0005821
c    -1.3040875    1.4090089    0.0633930  0.00   -0.0171037   -0.0087516    0.0002244
c    -0.0796864    0.8350249   -0.0715213  0.00   -0.0166886   -0.0332437    0.0003156
c    -0.2288462    3.5355648    0.0706753  0.00   -0.0032540    0.0151531    0.0005190
c     0.9956923    2.9348496   -0.0735086  0.00    0.0087541    0.0150882    0.0016551
c     1.0502911    1.5671908   -0.1506149  0.00    0.0112727    0.0106938    0.0003963
n     0.2125914   -0.5430751   -0.1852294  0.00    0.0247609    0.0166384   -0.0009036
c     2.1067830    0.7219917   -0.3265521  0.00    0.0280119   -0.0155153   -0.0045735
c     1.6246576   -0.5440903   -0.3580573  0.00   -0.0177098   -0.0186437    0.0008233
h    -0.4454787   -1.3514771   -0.1539908  0.00    0.0030759    0.0042364   -0.0002379
c     3.5549005    1.0967394   -0.5758103  0.00    0.0059046    0.0095339   -0.0027132
c     4.1430730    2.0868370    0.4583404  0.00   -0.0181592   -0.0073153   -0.0265771
h     3.6494235    1.5382167   -1.5979121  0.00    0.0064849    0.0040688   -0.0029901
h     4.1841639    0.1737885   -0.5775581  0.00    0.0013417   -0.0029789   -0.0000979
c     5.5594540    2.4994119    0.0445547  0.00    0.0375032    0.0610729    0.0238333