    13
 Energy =       0.1091839339
c    -3.7133889    1.6950595    0.3173519  0.00   -0.0824382    0.0298560    0.1037480
c    -2.4962693    2.6345192    0.2419999  0.00    0.2040949    0.1436533   -0.3231861
c    -4.9565486    2.3924193   -0.2155699  0.00    0.0171823   -0.0049163   -0.0000030
h    -5.2099685    3.2528291    0.4143399  0.00    0.0029893   -0.0129815   -0.0105955
h    -5.8205883    1.7190695   -0.2147749  0.00    0.0124963    0.0118647   -0.0020313
h    -4.8083986    2.7651692   -1.2348596  0.00   -0.0066417   -0.0023787    0.0189484
n    -3.4097890    0.4519539   -0.4549189  0.00    0.0465830   -0.0377829   -0.0521820
h    -3.8575589    1.4177196    1.3669296  0.00    0.0019649    0.0018828   -0.0247226
h    -4.2340588    0.2238779   -1.0206697  0.00    0.0214877    0.0302095    0.0214935
h    -2.6878492    0.6694128   -1.1486897  0.00   -0.0290067    0.0112469    0.0368946
o    -1.9513094    3.0041591   -0.7839488  0.00   -0.1294714   -0.1034565    0.2469499
o    -2.1005994    3.0267291    1.4825496  0.00   -0.0437035   -0.0298065   -0.0064777
h    -2.2705794    4.0015489    1.5135996  0.00   -0.0155367   -0.0373907   -0.0088360
    13
 Energy =       0.0874342435
c    -3.7195650    1.6964566    0.3154687  0.00   -0.0502794    0.0183192    0.0636941
c    -2.4847289    2.6033543    0.2774591  0.00    0.1227499    0.0902550   -0.1965636
c    -4.9417144    2.4305773   -0.2434753  0.00    0.0145004   -0.0044130    0.0033001
h    -5.2520369    3.2318834    0.4545804  0.00    0.0010580   -0.0046989   -0.0020218
h    -5.8055355    1.7463697   -0.3735281  0.00    0.0017399    0.0015088   -0.0029334
h    -4.7125393    2.8999886   -1.2238848  0.00   -0.0014599    0.0022780    0.0045544
n    -3.4548438    0.4435942   -0.4438643  0.00    0.0255644   -0.0238873   -0.0294206
h    -3.8888027    1.4319733    1.3733330  0.00    0.0012755    0.0013604   -0.0147461
h    -4.2777963    0.2039042   -1.0214967  0.00    0.0127877    0.0188847    0.0129144
h    -2.6892421    0.6034765   -1.1245618  0.00   -0.0143221    0.0075444    0.0203586
o    -1.9226842    2.9725958   -0.8178891  0.00   -0.0797602   -0.0640952    0.1497943
o    -2.0283724    3.0165151    1.5004665  0.00   -0.0160540   -0.0389261   -0.0021995
h    -2.3390450    3.9737782    1.5907313  0.00   -0.0178003   -0.0041299   -0.0067308
    13
 Energy =       0.0822436587
c    -3.7056896    1.6968762    0.3066793  0.00   -0.0343051    0.0125992    0.0437377
c    -2.4664859    2.5942138    0.2809130  0.00    0.0837104    0.0631752   -0.1349362
c    -4.9264728    2.4431734   -0.2442692  0.00    0.0135143   -0.0057364    0.0039927
h    -5.1652651    3.3204236    0.4004306  0.00   -0.0000591    0.0018124    0.0026511
h    -5.8222959    1.7784389   -0.2688295  0.00   -0.0031810   -0.0029953   -0.0017117
h    -4.7240294    2.8133985   -1.2790861  0.00    0.0009654    0.0030083   -0.0027379
n    -3.4689250    0.4435264   -0.4557610  0.00    0.0164987   -0.0168692   -0.0189017
h    -3.8746075    1.4324375    1.3687900  0.00    0.0008565    0.0009859   -0.0100655
h    -4.2878252    0.2206770   -1.0546345  0.00    0.0080391    0.0131829    0.0083576
h    -2.6732009    0.5708785   -1.1167606  0.00   -0.0081487    0.0055620    0.0130646
o    -1.9056705    2.9784307   -0.8477972  0.00   -0.0553832   -0.0433169    0.1024608
o    -1.9986405    3.0367521    1.4954790  0.00    0.0101951   -0.0636712   -0.0054279
h    -2.4977982    3.9252406    1.6781850  0.00   -0.0327025    0.0322631   -0.0004836
    13
 Energy =       0.0804349993
c    -3.6778569    1.6641341    0.2921809  0.00   -0.0289055    0.0135489    0.0400139
c    -2.4566197    2.5852534    0.2677930  0.00    0.0747041    0.0557757   -0.1228265
c    -4.9407483    2.4247704   -0.1470544  0.00    0.0088784   -0.0039613    0.0042276
h    -5.1566584    3.2627708    0.5591837  0.00   -0.0011485    0.0036747    0.0041036
h    -5.8271833    1.7474741   -0.1569908  0.00   -0.0033625   -0.0025470   -0.0012479
h    -4.8013505    2.8526903   -1.1730836  0.00    0.0011930    0.0040400   -0.0057847
n    -3.4634519    0.4594022   -0.5572016  0.00    0.0168298   -0.0196824   -0.0175798
h    -3.7860084    1.3309161    1.3480103  0.00    0.0003522   -0.0005061   -0.0050976
h    -4.2981332    0.2757126   -1.1510391  0.00    0.0066080    0.0106227    0.0058192
h    -2.6870636    0.6278888   -1.2347382  0.00   -0.0061445    0.0049737    0.0098988
o    -1.8746801    2.9488573   -0.8662310  0.00   -0.0498029   -0.0391958    0.0911215
o    -2.0283476    3.0865058    1.4770448  0.00    0.0114857   -0.0579365   -0.0027244
h    -2.5188045    3.9880914    1.6054648  0.00   -0.0306873    0.0311934    0.0000763
    13
 Energy =       0.0773506460
c    -3.6976940    1.6553012    0.2817875  0.00   -0.0202279    0.0110837    0.0309357
c    -2.4321514    2.5162660    0.2631215  0.00    0.0535888    0.0407246   -0.0882584
c    -4.9352878    2.4898898   -0.1048798  0.00    0.0052577   -0.0013842    0.0015302
h    -5.0858347    3.3285852    0.6182212  0.00   -0.0012685    0.0043436    0.0042801
h    -5.8548645    1.8574774   -0.0948490  0.00   -0.0039508   -0.0026225   -0.0010546
h    -4.8071911    2.9221219   -1.1284965  0.00    0.0007900    0.0028724   -0.0043089
n    -3.5712971    0.4617121   -0.6014239  0.00    0.0140088   -0.0192009   -0.0114240
h    -3.7981253    1.3013238    1.3331615  0.00    0.0005233   -0.0004939   -0.0033360
h    -4.4144992    0.3538034   -1.2107229  0.00    0.0005125    0.0068491    0.0013218
h    -2.7700607    0.5802167   -1.2652971  0.00   -0.0020710    0.0042642    0.0058369
o    -1.8339079    2.8637391   -0.8888092  0.00   -0.0348992   -0.0281568    0.0651752
o    -1.9559414    2.9918040    1.4689194  0.00    0.0133954   -0.0466885   -0.0019097
h    -2.3600514    3.9322266    1.5926064  0.00   -0.0256591    0.0284093    0.0012116
    13
 Energy =       0.0744243431
c    -3.7154516    1.6469074    0.2884483  0.00   -0.0121001    0.0069374    0.0187843
c    -2.4414812    2.4916573    0.2758362  0.00    0.0259515    0.0259240   -0.0482541
c    -4.9434406    2.4989806   -0.0886561  0.00    0.0034102   -0.0005968    0.0008596
h    -5.0673894    3.3461062    0.6270987  0.00   -0.0007370    0.0029589    0.0029608
h    -5.8716718    1.8827842   -0.0559195  0.00   -0.0027053   -0.0016199   -0.0005828
h    -4.8238682    2.9168172   -1.1170160  0.00    0.0006219    0.0019094   -0.0026358
n    -3.6210096    0.4508097   -0.5907703  0.00    0.0066599   -0.0127292   -0.0038360
h    -3.8174853    1.2981679    1.3426558  0.00    0.0003034   -0.0002979   -0.0019870
h    -4.4469604    0.3765625   -1.2312477  0.00   -0.0016848    0.0043378   -0.0002742
h    -2.7841760    0.5144290   -1.2227738  0.00    0.0021317    0.0030758    0.0011764
o    -1.7655838    2.7465585   -0.8853851  0.00   -0.0158241   -0.0178635    0.0311304
o    -1.9943382    3.0306432    1.4698689  0.00    0.0228553   -0.0730944    0.0023688
h    -2.2240502    4.0540437    1.4511997  0.00   -0.0288826    0.0610584    0.0002897
    13
 Energy =       0.0742651155
c    -3.7325299    1.6602221    0.3008858  0.00   -0.0104439    0.0064290    0.0160028
c    -2.4317305    2.4644762    0.2738449  0.00    0.0171493    0.0208016   -0.0339523
c    -4.9318482    2.5370871   -0.1124948  0.00    0.0025355   -0.0000473    0.0010228
h    -5.0353928    3.4104680    0.5744465  0.00   -0.0008874    0.0031393    0.0028549
h    -5.8778813    1.9494692   -0.0651504  0.00   -0.0026838   -0.0016864   -0.0002683
h    -4.7937491    2.9169181   -1.1534004  0.00    0.0007481    0.0019270   -0.0029278
n    -3.6722254    0.4315642   -0.5361548  0.00    0.0033209   -0.0125368   -0.0014718
h    -3.8540553    1.3504660    1.3664149  0.00   -0.0000944   -0.0006737   -0.0007325
h    -4.4843155    0.3711858   -1.1959717  0.00   -0.0019761    0.0035624   -0.0005130
h    -2.8143183    0.4288839   -1.1464607  0.00    0.0050776    0.0022056   -0.0016127
o    -1.7049356    2.6166768   -0.8859544  0.00   -0.0079652   -0.0137989    0.0179407
o    -1.9876366    3.0489856    1.4487508  0.00    0.0188073   -0.0594121    0.0030737
h    -2.1962876    4.0680643    1.3945831  0.00   -0.0235876    0.0500902    0.0005834
    13
 Energy =       0.0748602465
c    -3.7446132    1.6681424    0.3060765  0.00   -0.0101123    0.0062528    0.0155120
c    -2.4133634    2.4231727    0.2628908  0.00    0.0143789    0.0189821   -0.0286354
c    -4.9142786    2.5829434   -0.1122964  0.00    0.0022490    0.0005385    0.0007958
h    -4.9845606    3.4674013    0.5648215  0.00   -0.0009487    0.0033872    0.0028784
h    -5.8803346    2.0289367   -0.0539516  0.00   -0.0031126   -0.0018976   -0.0001414
h    -4.7679008    2.9453158   -1.1580881  0.00    0.0007903    0.0018388   -0.0027997
n    -3.7360082    0.4253949   -0.5131658  0.00    0.0020071   -0.0131562   -0.0007933
h    -3.8718306    1.3779357    1.3766618  0.00   -0.0002775   -0.0007594   -0.0004890
h    -4.5456946    0.3921000   -1.1783739  0.00   -0.0023838    0.0031876   -0.0007691
h    -2.8737032    0.3717803   -1.1163763  0.00    0.0063500    0.0018000   -0.0026217
o    -1.6662850    2.5019005   -0.8956753  0.00   -0.0048065   -0.0119536    0.0132430
o    -1.9522780    3.0276118    1.4215336  0.00    0.0170521   -0.0533912    0.0033511
h    -2.1660557    4.0418317    1.3592821  0.00   -0.0211860    0.0451708    0.0004693
    13
 Energy =       0.0755717647
c    -3.7585507    1.6738214    0.3058104  0.00   -0.0095772    0.0056466    0.0148783
c    -2.3982568    2.3781326    0.2684998  0.00    0.0119965    0.0174977   -0.0237950
c    -4.8927413    2.6294801   -0.1216090  0.00    0.0018413    0.0012477    0.0005402
h    -4.9353150    3.5183466    0.5518175  0.00   -0.0009446    0.0034317    0.0027402
h    -5.8782680    2.1097305   -0.0659253  0.00   -0.0034703   -0.0020508   -0.0000475
h    -4.7289787    2.9823462   -1.1678987  0.00    0.0007615    0.0017953   -0.0026807
n    -3.7939273    0.4270098   -0.5068202  0.00    0.0011755   -0.0132709    0.0007197
h    -3.9019423    1.3931764    1.3770767  0.00   -0.0003504   -0.0009088   -0.0003212
h    -4.5900200    0.4292633   -1.1902700  0.00   -0.0034306    0.0029968   -0.0014494
h    -2.9212597    0.3255082   -1.0901340  0.00    0.0076719    0.0014705   -0.0034437
o    -1.6208372    2.3909490   -0.8763475  0.00   -0.0019710   -0.0104070    0.0092783
o    -1.9333741    2.9943862    1.4196506  0.00    0.0153158   -0.0483704    0.0032946
h    -2.1634353    4.0023168    1.3594887  0.00   -0.0190185    0.0409217    0.0002862
    13
 Energy =       0.0761817715
c    -3.7690385    1.6797203    0.3057109  0.00   -0.0090048    0.0051694    0.0140810
c    -2.3855329    2.3392687    0.2710380  0.00    0.0101955    0.0161738   -0.0201844
c    -4.8720554    2.6686331   -0.1290402  0.00    0.0015521    0.0016675    0.0003603
h    -4.8903925    3.5608942    0.5406134  0.00   -0.0009103    0.0033787    0.0025844
h    -5.8729880    2.1786682   -0.0746704  0.00   -0.0036120   -0.0020806    0.0000123
h    -4.6946869    3.0120360   -1.1760629  0.00    0.0007310    0.0017122   -0.0025260
n    -3.8434940    0.4301227   -0.4999861  0.00    0.0004634   -0.0130139    0.0016906
h    -3.9245037    1.4089544    1.3779342  0.00   -0.0004035   -0.0009705   -0.0002083
h    -4.6259778    0.4615586   -1.1989683  0.00   -0.0040023    0.0028358   -0.0018592
h    -2.9647339    0.2856953   -1.0657292  0.00    0.0084370    0.0011303   -0.0039315
o    -1.5892288    2.2951263   -0.8625467  0.00   -0.0001330   -0.0092164    0.0065600
o    -1.9136382    2.9670856    1.4133899  0.00    0.0138996   -0.0443307    0.0033996
h    -2.1706358    3.9667038    1.3616564  0.00   -0.0172127    0.0375443    0.0000211
    13
 Energy =       0.0765173069
c    -3.7760284    1.6852442    0.3063318  0.00   -0.0083506    0.0047442    0.0130559
c    -2.3763263    2.3103690    0.2713737  0.00    0.0089396    0.0148591   -0.0176832
c    -4.8550440    2.6972136   -0.1357057  0.00    0.0013578    0.0017963    0.0002732
h    -4.8546686    3.5931185    0.5288110  0.00   -0.0008578    0.0032218    0.0024049
h    -5.8667844    2.2302131   -0.0806963  0.00   -0.0035318   -0.0020025    0.0000505
h    -4.6682577    3.0305156   -1.1841512  0.00    0.0006975    0.0015975   -0.0023524
n    -3.8804746    0.4328747   -0.4912738  0.00   -0.0000142   -0.0123163    0.0020552
h    -3.9396589    1.4247087    1.3799248  0.00   -0.0004295   -0.0009590   -0.0001260
h    -4.6521424    0.4833973   -1.2011943  0.00   -0.0040394    0.0026365   -0.0019306
h    -2.9994769    0.2549127   -1.0439159  0.00    0.0084911    0.0008609   -0.0040386
o    -1.5718675    2.2249624   -0.8554357  0.00    0.0006893   -0.0082600    0.0050293
o    -1.8959382    2.9481202    1.4049854  0.00    0.0127153   -0.0407357    0.0034712
h    -2.1802386    3.9388173    1.3642850  0.00   -0.0156673    0.0345572   -0.0002093
    13
 Energy =       0.0766309463
c    -3.7811458    1.6900339    0.3071610  0.00   -0.0076534    0.0043128    0.0119307
c    -2.3703237    2.2894780    0.2725018  0.00    0.0080105    0.0135526   -0.0157877
c    -4.8415487    2.7175881   -0.1434675  0.00    0.0012027    0.0017801    0.0002358
h    -4.8275983    3.6174008    0.5150367  0.00   -0.0007995    0.0030084    0.0022126
h    -5.8609393    2.2680967   -0.0877917  0.00   -0.0033380   -0.0018749    0.0000745
h    -4.6471073    3.0407378   -1.1935134  0.00    0.0006595    0.0014778   -0.0021852
n    -3.9067714    0.4349677   -0.4823982  0.00   -0.0002729   -0.0113906    0.0021356
h    -3.9518215    1.4391355    1.3819838  0.00   -0.0004333   -0.0009192   -0.0000585
h    -4.6697534    0.4971297   -1.2005985  0.00   -0.0038414    0.0024184   -0.0018564
h    -3.0249446    0.2319965   -1.0246175  0.00    0.0081422    0.0006729   -0.0039214
o    -1.5630037    2.1775003   -0.8505834  0.00    0.0009569   -0.0074262    0.0041765
o    -1.8826206    2.9339915    1.3994268  0.00    0.0116154   -0.0372792    0.0033910
h    -2.1893282    3.9164106    1.3701990  0.00   -0.0142488    0.0316671   -0.0003474
    13
 Energy =       0.0765075260
c    -3.8016869    1.7117630    0.3123145  0.00   -0.0056852    0.0027548    0.0078164
c    -2.3508936    2.2119351    0.2817990  0.00    0.0048470    0.0090723   -0.0075771
c    -4.7866211    2.7929326   -0.1879267  0.00    0.0003258    0.0033750    0.0002620
h    -4.7212376    3.7147164    0.4360111  0.00   -0.0008621    0.0034650    0.0019184
h    -5.8347712    2.4135130   -0.1287153  0.00   -0.0041840   -0.0019003    0.0006259
h    -4.5588736    3.0633685   -1.2468113  0.00    0.0010744    0.0014597   -0.0027425
n    -4.0035402    0.4415783   -0.4358629  0.00   -0.0045617   -0.0093478    0.0051130
h    -4.0052781    1.5083632    1.3928047  0.00   -0.0011854   -0.0013911    0.0013482
h    -4.7314636    0.5369975   -1.1867655  0.00   -0.0043075    0.0018800   -0.0024616
h    -3.1203850    0.1419424   -0.9346660  0.00    0.0114747   -0.0020394   -0.0060767
o    -1.5442761    2.0187472   -0.8347439  0.00    0.0037313   -0.0038024   -0.0011203
o    -1.8310946    2.8766937    1.3842712  0.00    0.0099877   -0.0287108    0.0052710
h    -2.2267848    3.8219163    1.4116300  0.00   -0.0106549    0.0251849   -0.0023766
    13
 Energy =       0.0757505914
c    -3.8094385    1.7233279    0.3183055  0.00    0.0009476    0.0001079   -0.0003295
c    -2.3663774    2.2217025    0.3083391  0.00   -0.0056982   -0.0002341    0.0097851
c    -4.7751440    2.7825157   -0.2506714  0.00   -0.0011943    0.0000406    0.0003443
h    -4.7013078    3.7349417    0.3208973  0.00   -0.0001035    0.0014915    0.0010296
h    -5.8248128    2.4214495   -0.1837576  0.00   -0.0001387   -0.0002069    0.0001332
h    -4.5335806    2.9908193   -1.3195688  0.00    0.0003567    0.0005821   -0.0018593
n    -3.9907096    0.4334202   -0.3906527  0.00    0.0009489   -0.0014288    0.0002199
h    -4.0418252    1.5610349    1.3994367  0.00   -0.0001024   -0.0001259    0.0012154
h    -4.7201246    0.4851509   -1.1418179  0.00   -0.0009433   -0.0000335   -0.0011869
h    -3.1094655    0.1363625   -0.8789373  0.00    0.0002690    0.0001527   -0.0000715
o    -1.6030674    2.1577221   -0.8587422  0.00    0.0055528   -0.0013911   -0.0114214
o    -1.8329171    2.8355493    1.4347444  0.00    0.0011043   -0.0003923    0.0029836
h    -2.2081359    3.7704707    1.5057640  0.00   -0.0009988    0.0014379   -0.0008426
    13
 Energy =       0.0756407085
c    -3.8205351    1.7415287    0.3204271  0.00    0.0001159    0.0004135    0.0002216
c    -2.3753796    2.2330426    0.3106381  0.00    0.0006950   -0.0003654   -0.0029251
c    -4.7732320    2.7845052   -0.2951601  0.00   -0.0002764    0.0000472    0.0000817
h    -4.6951059    3.7566775    0.2391417  0.00   -0.0000058    0.0004470    0.0002398
h    -5.8261674    2.4344247   -0.2242223  0.00   -0.0000404   -0.0000071    0.0000431
h    -4.5210366    2.9504403   -1.3676504  0.00    0.0000996    0.0001361   -0.0005012
n    -3.9984676    0.4301904   -0.3479879  0.00   -0.0004508   -0.0004531    0.0007135
h    -4.0678616    1.6152967    1.4023508  0.00   -0.0001058   -0.0001209    0.0004903
h    -4.7083961    0.4638910   -1.1179207  0.00   -0.0004024    0.0000610   -0.0004275
h    -3.1083752    0.1075119   -0.8045830  0.00    0.0010345   -0.0006362   -0.0007434
o    -1.6227448    2.1896014   -0.8538946  0.00   -0.0010606   -0.0000608    0.0020156
o    -1.8242137    2.8031759    1.4504196  0.00    0.0007207   -0.0003036    0.0005616
h    -2.1753911    3.7441809    1.5517806  0.00   -0.0003235    0.0008424    0.0002300
    13
 Energy =       0.0756350626
c    -3.8190147    1.7416044    0.3180153  0.00   -0.0000012    0.0000648    0.0000621
c    -2.3764957    2.2407548    0.3085771  0.00   -0.0000839   -0.0001453   -0.0001710
c    -4.7775607    2.7804484   -0.2944504  0.00   -0.0000267    0.0000254    0.0000070
h    -4.7038254    3.7516808    0.2413322  0.00    0.0000004    0.0000565    0.0000256
h    -5.8286065    2.4247680   -0.2236456  0.00   -0.0000201   -0.0000046    0.0000063
h    -4.5269762    2.9497310   -1.3663676  0.00    0.0000161    0.0000144   -0.0000566
n    -3.9899551    0.4315799   -0.3537131  0.00   -0.0000806   -0.0000684    0.0000820
h    -4.0653567    1.6112049    1.3992319  0.00   -0.0000179   -0.0000140    0.0000569
h    -4.6999670    0.4630145   -1.1232695  0.00   -0.0000429    0.0000053   -0.0000473
h    -3.0984369    0.1161836   -0.8110121  0.00    0.0001401   -0.0000833   -0.0000908
o    -1.6306098    2.2216207   -0.8625893  0.00    0.0000682    0.0000017   -0.0001850
o    -1.8211956    2.7930194    1.4546720  0.00    0.0002182   -0.0003197    0.0002479
h    -2.1789063    3.7288569    1.5765579  0.00   -0.0001697    0.0004672    0.0000631
    13
 Energy =       0.0756348930
c    -3.8191727    1.7419801    0.3180703  0.00    0.0000001    0.0000002    0.0000001
c    -2.3766492    2.2410644    0.3085660  0.00   -0.0000001   -0.0000004   -0.0000004
c    -4.7776310    2.7804148   -0.2950538  0.00   -0.0000001    0.0000000    0.0000000
h    -4.7039477    3.7518917    0.2401755  0.00    0.0000000    0.0000002    0.0000001
h    -5.8286648    2.4247699   -0.2241852  0.00   -0.0000000    0.0000000    0.0000000
h    -4.5269497    2.9490896   -1.3669864  0.00    0.0000000    0.0000001   -0.0000002
n    -3.9900597    0.4316660   -0.3529471  0.00    0.0000001   -0.0000003    0.0000001
h    -4.0656450    1.6121794    1.3992716  0.00   -0.0000000   -0.0000001    0.0000002
h    -4.6998686    0.4626602   -1.1226601  0.00   -0.0000002    0.0000000   -0.0000002
h    -3.0985170    0.1160894   -0.8098271  0.00    0.0000001   -0.0000000   -0.0000002
o    -1.6309490    2.2220074   -0.8625863  0.00    0.0000000   -0.0000000   -0.0000000
o    -1.8208743    2.7924803    1.4546036  0.00    0.0000005    0.0000001    0.0000005
h    -2.1779779    3.7281742    1.5768980  0.00   -0.0000004    0.0000003   -0.0000002
    13
 Energy =       0.0756348930
c    -3.8191743    1.7419878    0.3180694  0.00    0.0000000    0.0000000    0.0000000
c    -2.3766519    2.2410748    0.3085590  0.00   -0.0000000   -0.0000000   -0.0000000
c    -4.7776351    2.7804138   -0.2950648  0.00   -0.0000000    0.0000000    0.0000000
h    -4.7039527    3.7518967    0.2401533  0.00    0.0000000    0.0000000    0.0000000
h    -5.8286681    2.4247677   -0.2241917  0.00   -0.0000000   -0.0000000    0.0000000
h    -4.5269547    2.9490774   -1.3669993  0.00    0.0000000    0.0000000   -0.0000000
n    -3.9900574    0.4316670   -0.3529354  0.00    0.0000000   -0.0000000    0.0000000
h    -4.0656465    1.6121968    1.3992717  0.00   -0.0000000   -0.0000000    0.0000000
h    -4.6998669    0.4626515   -1.1226481  0.00   -0.0000000   -0.0000000   -0.0000000
h    -3.0985138    0.1160897   -0.8098129  0.00    0.0000000    0.0000000   -0.0000000
o    -1.6309676    2.2220472   -0.8626039  0.00    0.0000000   -0.0000000   -0.0000000
o    -1.8208586    2.7924534    1.4546052  0.00    0.0000000   -0.0000000    0.0000000
h    -2.1779589    3.7281435    1.5769363  0.00   -0.0000000    0.0000000    0.0000000
