24
 energy: -4.302155422143 gnorm: 0.000865854515 xtb: 6.4.0 (d4b70c2)
C        -0.19942048110713    1.43627447692808    0.95419099213426
C        -0.03561600883710    2.55815302636837    0.18582180743747
C         0.93737498947274    2.55498292646132   -0.84534618465943
C         0.70471501695494    0.27720965232871    0.80764754321579
C         1.54079089816710    0.26796298000075   -0.41483113480940
C         1.65793240251374    1.39975308514781   -1.16123753749209
O        -0.82842753101059    3.66484206690488    0.41961489772505
H        -0.61443674365074    4.37796498714817   -0.21878057484210
H         2.26252014608054    1.37958842385024   -2.05215056497144
H         0.52082660384217   -0.68456783808373    1.57940585181452
H        -0.96846602879893    1.43409584604778    1.70502421531433
H         1.05507230537206    3.43863777756304   -1.44540233178198
C         1.94648468077415   -1.07726033433691   -0.90212279229461
C         0.78094735854328   -1.80163832317731   -1.59711449302715
H         2.30815523969783   -1.67094856730797   -0.05620871688269
H         2.78761531995274   -0.98475558011430   -1.59550791863954
C        -0.55377329845872   -1.81299788008399   -0.85263340408306
O        -1.46010825743330   -2.31578663279365   -1.48312835031714
O        -0.70206483905795   -1.28388496938970    0.38611298912749
H         0.22229949115271   -0.85466119517927    0.79887816493926
N         0.52407923167597   -1.23785381158311   -2.90984651385119
H         1.06794417220355   -2.85398954237817   -1.75672606129644
H        -0.30244310827908   -1.69948578366601   -3.27820327177839
H         0.27426751716191   -0.26515283272497   -2.79825186245229
