    24
 Energy =       2.3326356996
c    -0.3750178    1.6472058    0.7948734  0.00   -0.0659705    0.0148643    0.0563385
c     0.0303172    2.8109335    0.1570437  0.00   -0.0618736    0.0788930    0.0419126
c     1.0081136    2.7718125   -0.8262434  0.00    0.0139045    0.0921728   -0.0299152
c     0.2069418    0.4293490    0.4310970  0.00   -0.1894516   -0.4942644   -0.0153191
c     1.2047783    0.3610782   -0.5608861  0.00    0.0951222   -0.0671666   -0.0428023
c     1.5988173    1.5541349   -1.1780186  0.00    0.0404035   -0.0105953   -0.0382171
o    -0.5069839    4.0230167    0.4710260  0.00    0.0139747    0.0069818   -0.0802729
h    -0.9503011    4.3787342   -0.3165291  0.00    0.0298576   -0.0426080    0.0546593
h     2.3707231    1.5818724   -1.9364796  0.00   -0.0017411    0.0159409    0.0041287
h    -0.1206493   -0.4779662    0.9373943  0.00   -5.7327574  -14.7900944   -9.5579557
h    -1.1350442    1.6632136    1.5694669  0.00    0.0006369   -0.0112654    0.0031254
h     1.3163936    3.6907012   -1.3176857  0.00   -0.0002519    0.0008827   -0.0026699
c     1.7669373   -1.0073413   -0.8964724  0.00   -0.0769264   -0.0450480    0.0550240
c     0.8861134   -2.0194266   -1.6556448  0.00    0.1503781    0.0537880    0.0387275
h     2.1212937   -1.4658931    0.0371405  0.00   -0.0082766    0.0077268   -0.0101967
h     2.6645729   -0.8285312   -1.5058794  0.00   -0.0105541    0.0072732    0.0075630
c    -0.2550706   -2.4993401   -0.7313897  0.00   -0.2434123   -0.3047465   -0.0014260
o    -0.8587891   -3.5562519   -0.8247086  0.00    0.1355162    0.2558089    0.0190554
o    -0.5457168   -1.5582366    0.2075950  0.00    5.8287467   14.6760138    9.5971822
h    -0.5009462   -2.0340917    1.0754909  0.00    0.1601708    0.5759840   -0.0872787
n     0.2410616   -1.4915667   -2.9017470  0.00   -0.0891942   -0.0461109   -0.0566810
h     1.4642165   -2.9122299   -1.9206526  0.00   -0.0183060    0.0155226   -0.0097413
h     0.7142380   -1.9162587   -3.7076332  0.00   -0.0171933    0.0064574    0.0294205
h    -0.7141630   -1.8528277   -2.9524509  0.00    0.0471977    0.0035892    0.0253388
    24
 Energy =       1.9479960480
c    -0.2737153    1.6952240    0.8253206  0.00   -0.0541121    0.0117571    0.0453820
c     0.1075455    2.8345540    0.1472672  0.00   -0.0505973    0.0635168    0.0330039
c     1.0315112    2.7641013   -0.8767821  0.00    0.0121585    0.0741506   -0.0248599
c     0.2772964    0.4697900    0.4722728  0.00   -0.1541340   -0.3973271   -0.0117373
c     1.2073733    0.3661896   -0.5821595  0.00    0.0780066   -0.0538347   -0.0354220
c     1.5830905    1.5387735   -1.2363912  0.00    0.0329984   -0.0082965   -0.0309144
o    -0.4001891    4.0606604    0.4829126  0.00    0.0116990    0.0054929   -0.0620290
h    -0.8878847    4.4310106   -0.2839099  0.00    0.0221303   -0.0335896    0.0416695
h     2.3068815    1.5342511   -2.0454227  0.00    0.0005221    0.0126904    0.0010297
h    -0.0794468   -0.4339490    1.0371329  0.00   -4.7097404  -12.1450026   -7.8395115
h    -0.9974464    1.7444707    1.6343626  0.00   -0.0008565   -0.0090296    0.0037674
h     1.3265416    3.6700201   -1.4002361  0.00    0.0001407    0.0011507   -0.0029356
c     1.7421809   -1.0110521   -0.9732610  0.00   -0.0624995   -0.0337174    0.0432414
c     0.8039286   -2.0459404   -1.6498545  0.00    0.1184579    0.0416858    0.0296570
h     2.1795767   -1.4640396   -0.0661582  0.00   -0.0048333    0.0055283   -0.0048928
h     2.5888781   -0.8423465   -1.6646325  0.00   -0.0050467    0.0062634    0.0031671
c    -0.3089993   -2.4635281   -0.6764775  0.00   -0.1921827   -0.2449163   -0.0055055
o    -0.9776523   -3.5276471   -0.7054143  0.00    0.1052427    0.2015439    0.0181941
o    -0.5098211   -1.5300456    0.2944887  0.00    4.7816468   12.0472786    7.8819261
h    -0.4626105   -2.0180155    1.1538582  0.00    0.1316830    0.4729480   -0.0722508
n     0.1683102   -1.5633879   -2.9138321  0.00   -0.0711303   -0.0352475   -0.0459526
h     1.3640273   -2.9672432   -1.8721425  0.00   -0.0142446    0.0109446   -0.0078227
h     0.6385765   -2.0315213   -3.7040851  0.00   -0.0129433    0.0037396    0.0223642
h    -0.7961164   -1.9182384   -2.9481497  0.00    0.0376346    0.0022707    0.0204315
    24
 Energy =       1.3553147717
c    -0.2197954    1.6947169    0.8870858  0.00   -0.0334108    0.0070429    0.0271851
c     0.1078125    2.8227088    0.1800409  0.00   -0.0309313    0.0380404    0.0181710
c     0.9536467    2.7487158   -0.8963767  0.00    0.0100670    0.0441780   -0.0176707
c     0.3065282    0.4746852    0.5220081  0.00   -0.1022297   -0.2541856   -0.0058908
c     1.1659103    0.3803925   -0.5868358  0.00    0.0472307   -0.0313373   -0.0216601
c     1.4833465    1.5378497   -1.2748343  0.00    0.0211880   -0.0036494   -0.0194161
o    -0.3862078    4.0517003    0.5618719  0.00    0.0147191    0.0012404   -0.0293262
h    -0.9743324    4.4257420   -0.1573884  0.00    0.0058540   -0.0162875    0.0171637
h     2.1481284    1.5182802   -2.1376473  0.00    0.0019506    0.0071710   -0.0029714
h    -0.0319845   -0.4542802    1.1100686  0.00   -3.1607230   -8.1487220   -5.2463391
h    -0.8911409    1.7641688    1.7397168  0.00   -0.0011603   -0.0043319    0.0042819
h     1.2072252    3.6510025   -1.4489442  0.00    0.0009031    0.0014518   -0.0041577
c     1.7503279   -0.9660915   -1.0268816  0.00   -0.0396104   -0.0198265    0.0238875
c     0.8133094   -2.0237527   -1.6679539  0.00    0.0687573    0.0236441    0.0176463
h     2.2531719   -1.4168246   -0.1473896  0.00   -0.0012386    0.0023538   -0.0020049
h     2.5577514   -0.7692044   -1.7637124  0.00   -0.0024654    0.0042591   -0.0007487
c    -0.2581048   -2.4580306   -0.6831931  0.00   -0.1127011   -0.1434583   -0.0010231
o    -0.9331583   -3.5777993   -0.7781965  0.00    0.0606431    0.1183289    0.0091094
o    -0.4750224   -1.5837349    0.3426696  0.00    3.2023254    8.0724738    5.2863040
h    -0.4198473   -2.0978782    1.1835472  0.00    0.0893491    0.3199257   -0.0493600
n     0.1894474   -1.5535335   -2.9330946  0.00   -0.0428436   -0.0223203   -0.0269697
h     1.3983423   -2.9406629   -1.8732733  0.00   -0.0090328    0.0053694   -0.0031055
h     0.6708737   -2.0270312   -3.7217461  0.00   -0.0082836   -0.0006166    0.0138867
h    -0.7843918   -1.9090480   -2.9808344  0.00    0.0216431   -0.0007441    0.0130086
    24
 Energy =       1.2553615211
c    -0.2274066    1.6656165    0.8959164  0.00   -0.0305692    0.0062570    0.0251025
c     0.1233636    2.7991989    0.2112810  0.00   -0.0282166    0.0351148    0.0165043
c     0.9819177    2.7308151   -0.8533009  0.00    0.0093140    0.0406150   -0.0163681
c     0.2888051    0.4459054    0.5210150  0.00   -0.0940681   -0.2342771   -0.0048660
c     1.1704081    0.3611503   -0.5663469  0.00    0.0433721   -0.0287868   -0.0202947
c     1.5074171    1.5216049   -1.2367569  0.00    0.0195360   -0.0032200   -0.0180369
o    -0.3631534    4.0285870    0.6045120  0.00    0.0139685    0.0011356   -0.0264770
h    -0.9705640    4.4013200   -0.1011283  0.00    0.0052764   -0.0147230    0.0154416
h     2.1862819    1.5044879   -2.0885417  0.00    0.0018971    0.0065960   -0.0029051
h    -0.0777243   -0.4797674    1.0758300  0.00   -2.9100356   -7.5020563   -4.8300519
h    -0.9132244    1.7312322    1.7371624  0.00   -0.0010541   -0.0040170    0.0041397
h     1.2521962    3.6379789   -1.3897014  0.00    0.0010158    0.0015467   -0.0039728
c     1.7550916   -0.9814524   -1.0055049  0.00   -0.0364464   -0.0168987    0.0223420
c     0.8118549   -1.9963925   -1.6995765  0.00    0.0630242    0.0207091    0.0183583
h     2.2177782   -1.4607206   -0.1172837  0.00   -0.0006917    0.0016748   -0.0008866
h     2.5912316   -0.7851211   -1.7110812  0.00   -0.0016275    0.0041681   -0.0012355
c    -0.2628273   -2.4686400   -0.7349080  0.00   -0.1022101   -0.1314846   -0.0002602
o    -0.9238092   -3.5995045   -0.8825826  0.00    0.0546654    0.1068916    0.0079202
o    -0.5231963   -1.6174934    0.3050920  0.00    2.9473540    7.4322220    4.8683671
h    -0.4689950   -2.1366933    1.1420300  0.00    0.0821838    0.2948877   -0.0454726
n     0.1951086   -1.4466851   -2.9366189  0.00   -0.0408619   -0.0173935   -0.0255606
h     1.3875189   -2.9089729   -1.9554164  0.00   -0.0079655    0.0035198   -0.0030632
h     0.6780010   -1.8682781   -3.7559901  0.00   -0.0068555   -0.0015817    0.0100055
h    -0.7842380   -1.7860853   -3.0093935  0.00    0.0189949   -0.0008996    0.0112703
    24
 Energy =       1.1252825976
c    -0.2403820    1.6318512    0.9072560  0.00   -0.0268102    0.0052388    0.0223096
c     0.1337554    2.7728229    0.2508409  0.00   -0.0246178    0.0311570    0.0143120
c     1.0066631    2.7141136   -0.7998649  0.00    0.0082896    0.0358409   -0.0146310
c     0.2670139    0.4150049    0.5186821  0.00   -0.0834335   -0.2081522   -0.0035865
c     1.1716667    0.3434945   -0.5448084  0.00    0.0381956   -0.0254389   -0.0182442
c     1.5287369    1.5087188   -1.1920314  0.00    0.0173182   -0.0026700   -0.0161528
o    -0.3477942    4.0005130    0.6595566  0.00    0.0129893    0.0009077   -0.0226249
h    -0.9801036    4.3707200   -0.0279598  0.00    0.0043332   -0.0125990    0.0130697
h     2.2232448    1.4968259   -2.0311174  0.00    0.0018185    0.0058309   -0.0027764
h    -0.1250365   -0.5095005    1.0347914  0.00   -2.5800056   -6.6506948   -4.2822134
h    -0.9422180    1.6906925    1.7355420  0.00   -0.0009548   -0.0035934    0.0039056
h     1.2941735    3.6279783   -1.3154535  0.00    0.0011325    0.0016572   -0.0037000
c     1.7600371   -0.9928747   -0.9868690  0.00   -0.0321368   -0.0135549    0.0201691
c     0.8159932   -1.9648387   -1.7355308  0.00    0.0554974    0.0171257    0.0179277
h     2.1829773   -1.5010616   -0.0932008  0.00   -0.0002220    0.0009950    0.0001795
h     2.6235102   -0.7948862   -1.6595989  0.00   -0.0007830    0.0039183   -0.0016275
c    -0.2654143   -2.4786029   -0.7986126  0.00   -0.0884073   -0.1154258    0.0004647
o    -0.9116595   -3.6195294   -1.0087926  0.00    0.0467936    0.0917544    0.0061517
o    -0.5742593   -1.6589920    0.2586937  0.00    2.6118103    6.5892355    4.3181428
h    -0.5217965   -2.1858168    1.0902828  0.00    0.0727536    0.2620561   -0.0403306
n     0.2142362   -1.3386955   -2.9435978  0.00   -0.0368657   -0.0123527   -0.0232621
h     1.3871551   -2.8682810   -2.0378619  0.00   -0.0068314    0.0018579   -0.0030025
h     0.7024208   -1.7095249   -3.7865823  0.00   -0.0054556   -0.0020951    0.0063354
h    -0.7710843   -1.6580408   -3.0450567  0.00    0.0155920   -0.0009986    0.0091840
    24
 Energy =       0.9608048572
c    -0.2599945    1.5931196    0.9201645  0.00   -0.0220017    0.0039636    0.0186945
c     0.1375822    2.7430474    0.2984300  0.00   -0.0200038    0.0259775    0.0115487
c     1.0286497    2.6984099   -0.7342344  0.00    0.0069813    0.0296403   -0.0124271
c     0.2417227    0.3823792    0.5151372  0.00   -0.0699967   -0.1747468   -0.0020959
c     1.1708734    0.3277072   -0.5209477  0.00    0.0314467   -0.0211553   -0.0153602
c     1.5490864    1.4993804   -1.1383034  0.00    0.0144340   -0.0019576   -0.0136752
o    -0.3446214    3.9664174    0.7245984  0.00    0.0117056    0.0004881   -0.0176469
h    -1.0078673    4.3297462    0.0592896  0.00    0.0029128   -0.0098379    0.0099620
h     2.2618280    1.4955864   -1.9619050  0.00    0.0017223    0.0048486   -0.0025824
h    -0.1722920   -0.5439514    0.9873307  0.00   -2.1608117   -5.5694751   -3.5865473
h    -0.9809353    1.6418870    1.7323588  0.00   -0.0009094   -0.0030411    0.0035776
h     1.3339595    3.6207146   -1.2237537  0.00    0.0012422    0.0017703   -0.0033200
c     1.7661239   -1.0004552   -0.9696963  0.00   -0.0264913   -0.0097634    0.0172356
c     0.8266178   -1.9283218   -1.7756417  0.00    0.0459016    0.0128906    0.0161803
h     2.1484614   -1.5389141   -0.0738427  0.00    0.0001767    0.0003111    0.0011912
h     2.6564461   -0.7989481   -1.6067430  0.00    0.0000821    0.0034955   -0.0019002
c    -0.2656079   -2.4873390   -0.8758928  0.00   -0.0706042   -0.0944724    0.0013153
o    -0.9010948   -3.6326845   -1.1626342  0.00    0.0366097    0.0723087    0.0035707
o    -0.6272312   -1.7105649    0.2027311  0.00    2.1856573    5.5181372    3.6191720
h    -0.5781080   -2.2492221    1.0266845  0.00    0.0607945    0.2206052   -0.0337056
n     0.2486678   -1.2274418   -2.9537371  0.00   -0.0305379   -0.0072543   -0.0200702
h     1.3986269   -2.8180532   -2.1203927  0.00   -0.0055459    0.0004236   -0.0028815
h     0.7446464   -1.5507718   -3.8137861  0.00   -0.0040983   -0.0021583    0.0030944
h    -0.7437035   -1.5196367   -3.0865073  0.00    0.0113341   -0.0009983    0.0066701
    24
 Energy =       0.7998735847
c    -0.2796360    1.5526334    0.9379893  0.00   -0.0173868    0.0030125    0.0150605
c     0.1251032    2.7136699    0.3478584  0.00   -0.0155759    0.0206455    0.0090314
c     1.0288054    2.6902051   -0.6713095  0.00    0.0056486    0.0235305   -0.0101185
c     0.2269666    0.3534513    0.5145868  0.00   -0.0567624   -0.1412410   -0.0012052
c     1.1696709    0.3210367   -0.5029564  0.00    0.0248113   -0.0169451   -0.0122141
c     1.5545484    1.5019262   -1.0918063  0.00    0.0115422   -0.0014757   -0.0110803
o    -0.3685519    3.9277051    0.7929661  0.00    0.0102515    0.0000901   -0.0128608
h    -1.0642165    4.2792711    0.1511897  0.00    0.0013320   -0.0071619    0.0070606
h     2.2788707    1.5120321   -1.9048479  0.00    0.0014981    0.0038563   -0.0022560
h    -0.1875270   -0.5820413    0.9523002  0.00   -1.7506062   -4.5127855   -2.9062973
h    -1.0133247    1.5852493    1.7391510  0.00   -0.0008222   -0.0024343    0.0031089
h     1.3397897    3.6227925   -1.1364742  0.00    0.0011562    0.0016887   -0.0027884
c     1.7775544   -0.9957702   -0.9652517  0.00   -0.0209136   -0.0070156    0.0139642
c     0.8471031   -1.8939289   -1.8133342  0.00    0.0365500    0.0096389    0.0131969
h     2.1359294   -1.5577627   -0.0735285  0.00    0.0002842    0.0000441    0.0013954
h     2.6835019   -0.7842469   -1.5768795  0.00    0.0003994    0.0028974   -0.0018462
c    -0.2522200   -2.4955372   -0.9478914  0.00   -0.0527175   -0.0727383    0.0027989
o    -0.9022885   -3.6229733   -1.3213873  0.00    0.0261321    0.0531011    0.0004303
o    -0.6494518   -1.7689435    0.1571064  0.00    1.7694349    4.4698356    2.9345689
h    -0.6120908   -2.3227947    0.9710854  0.00    0.0491493    0.1805498   -0.0269989
n     0.2883481   -1.1396509   -2.9661489  0.00   -0.0239482   -0.0041733   -0.0164575
h     1.4274665   -2.7671382   -2.1883999  0.00   -0.0043026   -0.0002748   -0.0026637
h     0.7878903   -1.4311394   -3.8366022  0.00   -0.0031406   -0.0018471    0.0014897
h    -0.7104052   -1.4059549   -3.1187085  0.00    0.0079864   -0.0007978    0.0046813
    24
 Energy =       0.6559989637
c    -0.3289631    1.5405813    0.9183966  0.00   -0.0134832    0.0023884    0.0120076
c     0.0941026    2.7006936    0.3453569  0.00   -0.0119205    0.0154917    0.0071062
c     1.0355030    2.6785208   -0.6373436  0.00    0.0049363    0.0178974   -0.0085223
c     0.1933932    0.3454946    0.5115055  0.00   -0.0448471   -0.1108545   -0.0003005
c     1.1704809    0.3142198   -0.4661013  0.00    0.0192118   -0.0130636   -0.0100628
c     1.5765038    1.4926796   -1.0395678  0.00    0.0091645   -0.0011195   -0.0090610
o    -0.4292595    3.9133135    0.7657557  0.00    0.0079851    0.0002981   -0.0085003
h    -1.1400079    4.2310610    0.1198912  0.00    0.0001666   -0.0051479    0.0046030
h     2.3297318    1.5004096   -1.8261622  0.00    0.0016732    0.0029524   -0.0023282
h    -0.2359558   -0.5914756    0.9200084  0.00   -1.3857021   -3.5720888   -2.3007043
h    -1.0961624    1.5716939    1.6881621  0.00   -0.0013654   -0.0018367    0.0031798
h     1.3603313    3.6117624   -1.0905281  0.00    0.0010218    0.0013750   -0.0023158
c     1.7915827   -1.0038273   -0.9043488  0.00   -0.0160063   -0.0046142    0.0111460
c     0.8862161   -1.8755694   -1.8062641  0.00    0.0298113    0.0067974    0.0108033
h     2.0954628   -1.5795876    0.0002840  0.00    0.0007574   -0.0005559    0.0025050
h     2.7314796   -0.7991201   -1.4673599  0.00    0.0017727    0.0025005   -0.0022120
c    -0.2626024   -2.4852341   -1.0062567  0.00   -0.0359434   -0.0523005    0.0051295
o    -0.9471850   -3.5695967   -1.4801404  0.00    0.0147401    0.0344531   -0.0026841
o    -0.7057858   -1.8011814    0.1126237  0.00    1.3982173    3.5368987    2.3246424
h    -0.6753849   -2.3733668    0.9158576  0.00    0.0388045    0.1439882   -0.0209576
n     0.4005539   -1.0879067   -2.9697174  0.00   -0.0166964   -0.0006716   -0.0146466
h     1.4762876   -2.7480368   -2.1686372  0.00   -0.0030865   -0.0002510   -0.0022100
h     0.9186382   -1.3906951   -3.8261736  0.00   -0.0020499   -0.0015366    0.0007076
h    -0.6071243   -1.3027423   -3.1605339  0.00    0.0028382   -0.0010000    0.0026752
    24
 Energy =       0.5821089900
c    -0.3422751    1.5651801    0.8911663  0.00   -0.0120395    0.0017125    0.0109211
c     0.1244225    2.7101676    0.3233977  0.00   -0.0103210    0.0134424    0.0062259
c     1.0959041    2.6584326   -0.6279171  0.00    0.0047841    0.0157343   -0.0079876
c     0.1647342    0.3565949    0.5095991  0.00   -0.0386674   -0.0953646    0.0004389
c     1.1709612    0.2943176   -0.4339952  0.00    0.0165481   -0.0113753   -0.0091163
c     1.6221562    1.4576990   -1.0036970  0.00    0.0084002   -0.0005297   -0.0084314
o    -0.3889918    3.9381693    0.7141668  0.00    0.0065214    0.0008415   -0.0068156
h    -1.0935031    4.2487015    0.0572486  0.00    0.0000138   -0.0043273    0.0037916
h     2.3995340    1.4402089   -1.7668278  0.00    0.0020649    0.0026351   -0.0026602
h    -0.3063007   -0.5656350    0.9041217  0.00   -1.1966272   -3.0832815   -1.9850556
h    -1.1353603    1.6197503    1.6335675  0.00   -0.0018958   -0.0016500    0.0034371
h     1.4550297    3.5807345   -1.0783488  0.00    0.0011769    0.0016956   -0.0023470
c     1.7731815   -1.0435900   -0.8405328  0.00   -0.0137523   -0.0037524    0.0093023
c     0.8787288   -1.8857476   -1.7817842  0.00    0.0281908    0.0056286    0.0119294
h     2.0176060   -1.6283895    0.0778127  0.00    0.0011953   -0.0014651    0.0036025
h     2.7443575   -0.8686916   -1.3612234  0.00    0.0030892    0.0023914   -0.0026018
c    -0.3348202   -2.4548871   -1.0417087  0.00   -0.0229191   -0.0365113    0.0114113
o    -1.1059382   -3.4470000   -1.6126920  0.00    0.0020599    0.0182650   -0.0079134
o    -0.7800262   -1.7903703    0.0890423  0.00    1.2058390    3.0514415    2.0058581
h    -0.7655028   -2.3740266    0.8851335  0.00    0.0332887    0.1246507   -0.0178274
n     0.4861202   -1.0811995   -2.9708555  0.00   -0.0130151    0.0038030   -0.0150633
h     1.4559249   -2.7806938   -2.1109692  0.00   -0.0017609   -0.0009148   -0.0017267
h     1.0225085   -1.4201288   -3.8036383  0.00   -0.0005235   -0.0018448   -0.0007114
h    -0.5266148   -1.2375058   -3.2023594  0.00   -0.0016506   -0.0012245    0.0013393
    24
 Energy =       0.5404503585
c    -0.3524563    1.5220511    0.9201283  0.00   -0.0116096    0.0015062    0.0105801
c     0.0742504    2.6882675    0.3634061  0.00   -0.0093967    0.0125113    0.0057983
c     1.0321740    2.6776573   -0.6031728  0.00    0.0047431    0.0150531   -0.0077277
c     0.1818453    0.3337300    0.5122042  0.00   -0.0357588   -0.0873353    0.0007839
c     1.1712315    0.3138880   -0.4500505  0.00    0.0153006   -0.0107687   -0.0086222
c     1.5826253    1.4974786   -1.0076728  0.00    0.0083080   -0.0003548   -0.0083331
o    -0.4657803    3.8960657    0.7834302  0.00    0.0061314    0.0014131   -0.0054355
h    -1.1949814    4.1961626    0.1476673  0.00   -0.0007565   -0.0034941    0.0029666
h     2.3479865    1.5122876   -1.7835704  0.00    0.0023998    0.0024695   -0.0029547
h    -0.2436339   -0.6114866    0.9063171  0.00   -1.0981514   -2.8299664   -1.8207422
h    -1.1333119    1.5439855    1.6776700  0.00   -0.0022960   -0.0015310    0.0036771
h     1.3605161    3.6166863   -1.0433419  0.00    0.0013266    0.0021387   -0.0024575
c     1.8009709   -1.0001259   -0.8914343  0.00   -0.0127090   -0.0038178    0.0080533
c     0.9053952   -1.8529568   -1.8212127  0.00    0.0277265    0.0058439    0.0127679
h     2.0845210   -1.5912483    0.0121938  0.00    0.0013536   -0.0018994    0.0039267
h     2.7543762   -0.7921675   -1.4336690  0.00    0.0036398    0.0022315   -0.0028115
c    -0.2584474   -2.4855885   -1.0512126  0.00   -0.0151965   -0.0258972    0.0140496
o    -0.9471850   -3.5731816   -1.5666215  0.00   -0.0052256    0.0075710   -0.0100637
o    -0.7219940   -1.8437548    0.0859767  0.00    1.1048943    2.7994965    1.8403318
h    -0.6830264   -2.4418185    0.8725349  0.00    0.0306869    0.1137467   -0.0159141
n     0.4441756   -1.0365285   -2.9786348  0.00   -0.0123502    0.0064022   -0.0147635
h     1.5067427   -2.7181908   -2.1893589  0.00   -0.0005149   -0.0019725   -0.0016981
h     0.9588079   -1.3423696   -3.8388870  0.00    0.0005457   -0.0021234   -0.0022266
h    -0.5729658   -1.2167521   -3.1739828  0.00   -0.0030909   -0.0012232    0.0008150
    24
 Energy =       0.4605961049
c    -0.3617871    1.4720920    0.9530420  0.00   -0.0099579    0.0012381    0.0091151
c     0.0299797    2.6590256    0.4164293  0.00   -0.0074814    0.0102793    0.0047737
c     0.9768960    2.6909636   -0.5593423  0.00    0.0041402    0.0127947   -0.0066105
c     0.1968659    0.3064327    0.5154618  0.00   -0.0296986   -0.0713861    0.0009138
c     1.1703280    0.3300724   -0.4597157  0.00    0.0124983   -0.0090769   -0.0071416
c     1.5477817    1.5332096   -0.9962537  0.00    0.0073132   -0.0002678   -0.0073185
o    -0.5349690    3.8450284    0.8684302  0.00    0.0056220    0.0015905   -0.0031827
h    -1.2956504    4.1297936    0.2609737  0.00   -0.0019709   -0.0021196    0.0015201
h     2.3028443    1.5807703   -1.7809229  0.00    0.0024136    0.0020288   -0.0028735
h    -0.1862669   -0.6604622    0.9006663  0.00   -0.9046479   -2.3326228   -1.4994541
h    -1.1325748    1.4604432    1.7210074  0.00   -0.0023750   -0.0012294    0.0034632
h     1.2787957    3.6467419   -0.9821049  0.00    0.0012919    0.0022976   -0.0022674
c     1.8224061   -0.9587780   -0.9408221  0.00   -0.0103888   -0.0034921    0.0060530
c     0.9265675   -1.8105420   -1.8701929  0.00    0.0239454    0.0054381    0.0116689
h     2.1358989   -1.5624674   -0.0557115  0.00    0.0012734   -0.0019667    0.0036607
h     2.7607475   -0.7197919   -1.4960664  0.00    0.0035149    0.0017773   -0.0026408
c    -0.1909515   -2.5076589   -1.0868028  0.00   -0.0076001   -0.0147189    0.0128875
o    -0.7884319   -3.6682964   -1.5684366  0.00   -0.0093184   -0.0014309   -0.0097370
o    -0.6732310   -1.9108501    0.0688155  0.00    0.9076904    2.3066682    1.5162342
h    -0.6002978   -2.5366700    0.8352717  0.00    0.0258991    0.0924545   -0.0118200
n     0.4116558   -0.9734130   -2.9889307  0.00   -0.0106282    0.0075669   -0.0122739
h     1.5482288   -2.6437085   -2.2802205  0.00    0.0006644   -0.0027692   -0.0016801
h     0.8976517   -1.2506020   -3.8762151  0.00    0.0013507   -0.0021309   -0.0034736
h    -0.6106510   -1.1592423   -3.1496531  0.00   -0.0035506   -0.0009229    0.0001832
    24
 Energy =       0.3753125700
c    -0.3558759    1.4087150    1.0029270  0.00   -0.0082111    0.0009564    0.0075728
c    -0.0015287    2.6182124    0.4933845  0.00   -0.0054807    0.0078605    0.0037010
c     0.9274013    2.6984209   -0.4956031  0.00    0.0034379    0.0104195   -0.0053774
c     0.2223304    0.2697596    0.5243962  0.00   -0.0232204   -0.0546332    0.0010947
c     1.1718849    0.3423207   -0.4682285  0.00    0.0095503   -0.0072144   -0.0055317
c     1.5135350    1.5668521   -0.9764450  0.00    0.0062662   -0.0002410   -0.0062541
o    -0.5866618    3.7785430    0.9883830  0.00    0.0053695    0.0017183   -0.0005336
h    -1.3845949    4.0469104    0.4197268  0.00   -0.0036369   -0.0005771   -0.0001645
h     2.2521609    1.6515331   -1.7736186  0.00    0.0024641    0.0015633   -0.0028394
h    -0.1170031   -0.7184044    0.8950054  0.00   -0.6983844   -1.8023031   -1.1572256
h    -1.1109502    1.3588954    1.7848615  0.00   -0.0024905   -0.0009089    0.0032832
h     1.2010063    3.6724730   -0.8953233  0.00    0.0012247    0.0024625   -0.0020385
c     1.8374484   -0.9179277   -1.0033984  0.00   -0.0078082   -0.0031517    0.0038845
c     0.9326697   -1.7558521   -1.9357706  0.00    0.0194462    0.0044097    0.0099768
h     2.1825607   -1.5424732   -0.1449461  0.00    0.0012538   -0.0020699    0.0034903
h     2.7578430   -0.6464557   -1.5729648  0.00    0.0032578    0.0012346   -0.0024734
c    -0.1366566   -2.5195517   -1.1466067  0.00   -0.0023816   -0.0090715    0.0082258
o    -0.6598876   -3.7175391   -1.6261610  0.00   -0.0095442   -0.0047176   -0.0073321
o    -0.6158258   -1.9932782    0.0475417  0.00    0.6962635    1.7846879    1.1703602
h    -0.4788681   -2.6592093    0.7788902  0.00    0.0215707    0.0671599   -0.0052584
n     0.3654263   -0.8888045   -3.0044535  0.00   -0.0087571    0.0085272   -0.0091987
h     1.5667949   -2.5538821   -2.3969176  0.00    0.0017795   -0.0034787   -0.0018102
h     0.8120643   -1.1367975   -3.9217789  0.00    0.0021355   -0.0021241   -0.0049763
h    -0.6634372   -1.0703694   -3.1241934  0.00   -0.0041046   -0.0005086   -0.0005754
    24
 Energy =       0.3245419329
c    -0.3329777    1.3498539    1.0568008  0.00   -0.0072690    0.0008459    0.0067582
c    -0.0094028    2.5771073    0.5709073  0.00   -0.0044459    0.0064654    0.0031652
c     0.8971410    2.6969228   -0.4341926  0.00    0.0030155    0.0091229   -0.0046609
c     0.2535027    0.2334966    0.5376195  0.00   -0.0193722   -0.0449887    0.0012603
c     1.1758749    0.3461769   -0.4742257  0.00    0.0079837   -0.0060555   -0.0046736
c     1.4883381    1.5875112   -0.9576202  0.00    0.0057060   -0.0002980   -0.0056981
o    -0.6030041    3.7153873    1.1074714  0.00    0.0051142    0.0018664    0.0009425
h    -1.4298848    3.9732577    0.5749432  0.00   -0.0045060    0.0002099   -0.0009958
h     2.2069689    1.7027142   -1.7692722  0.00    0.0025436    0.0013056   -0.0028929
h    -0.0512081   -0.7700836    0.8936546  0.00   -0.5739645   -1.4819930   -0.9511931
h    -1.0690283    1.2685317    1.8541982  0.00   -0.0025994   -0.0007361    0.0032510
h     1.1472943    3.6851128   -0.8139781  0.00    0.0011593    0.0025161   -0.0018811
c     1.8405020   -0.8903906   -1.0617419  0.00   -0.0061507   -0.0029214    0.0026418
c     0.9183891   -1.7058612   -1.9966205  0.00    0.0163053    0.0033905    0.0084288
h     2.2108000   -1.5376732   -0.2309578  0.00    0.0013310   -0.0021861    0.0035063
h     2.7447409   -0.5945359   -1.6444526  0.00    0.0030312    0.0008929   -0.0023802
c    -0.1201731   -2.5132954   -1.2098353  0.00    0.0002062   -0.0087540    0.0029639
o    -0.6303370   -3.7020188   -1.7235718  0.00   -0.0079419   -0.0045963   -0.0062329
o    -0.5608070   -2.0630745    0.0338902  0.00    0.5665704    1.4769257    0.9604592
h    -0.3201150   -2.7586932    0.7226409  0.00    0.0207345    0.0463697    0.0029406
n     0.3181471   -0.8100954   -3.0218452  0.00   -0.0072454    0.0086898   -0.0069674
h     1.5514737   -2.4795850   -2.4997263  0.00    0.0021249   -0.0036342   -0.0018676
h     0.7232501   -1.0435363   -3.9626670  0.00    0.0024927   -0.0021314   -0.0058307
h    -0.7176489   -0.9751387   -3.1027122  0.00   -0.0048234   -0.0003062   -0.0010435
    24
 Energy =       0.3028871071
c    -0.3073317    1.3095172    1.0976950  0.00   -0.0067732    0.0008445    0.0063185
c     0.0003847    2.5463791    0.6267877  0.00   -0.0040198    0.0058154    0.0029227
c     0.8899280    2.6881239   -0.3902874  0.00    0.0027704    0.0084541   -0.0042754
c     0.2778026    0.2060261    0.5507893  0.00   -0.0175545   -0.0406131    0.0012668
c     1.1801425    0.3409437   -0.4744375  0.00    0.0072953   -0.0054267   -0.0042606
c     1.4779529    1.5911753   -0.9422310  0.00    0.0053686   -0.0003705   -0.0053614
o    -0.5919360    3.6720843    1.1911548  0.00    0.0048321    0.0018972    0.0013848
h    -1.4345731    3.9271036    0.6821409  0.00   -0.0046091    0.0004170   -0.0011915
h     2.1813766    1.7230272   -1.7645659  0.00    0.0025026    0.0011722   -0.0028386
h    -0.0082841   -0.8057542    0.8957692  0.00   -0.5165984   -1.3342566   -0.8566533
h    -1.0291420    1.2106189    1.9059828  0.00   -0.0025614   -0.0006505    0.0031558
h     1.1279851    3.6838449   -0.7576128  0.00    0.0010885    0.0024250   -0.0017573
c     1.8341209   -0.8830208   -1.0970023  0.00   -0.0052480   -0.0026575    0.0021614
c     0.8947818   -1.6732121   -2.0362071  0.00    0.0144634    0.0030597    0.0075074
h     2.2138381   -1.5498877   -0.2863354  0.00    0.0013357   -0.0022085    0.0034688
h     2.7307696   -0.5766407   -1.6855619  0.00    0.0027929    0.0007436   -0.0022397
c    -0.1444162   -2.4907961   -1.2601881  0.00    0.0026074   -0.0072666   -0.0001174
o    -0.7045067   -3.6349296   -1.8261153  0.00   -0.0081346   -0.0077853   -0.0083077
o    -0.5259515   -2.1077793    0.0292295  0.00    0.5038695    1.3430683    0.8619222
h    -0.1613618   -2.8078829    0.6736650  0.00    0.0235192    0.0307625    0.0115114
n     0.2954343   -0.7540276   -3.0401821  0.00   -0.0056374    0.0086898   -0.0053479
h     1.5183141   -2.4416357   -2.5585825  0.00    0.0020133   -0.0034621   -0.0017579
h     0.6646181   -0.9979374   -3.9935090  0.00    0.0027743   -0.0022948   -0.0062921
h    -0.7481102   -0.8832498   -3.0916892  0.00   -0.0060970   -0.0003570   -0.0012189
    24
 Energy =       0.2976279712
c    -0.2888157    1.2858544    1.1236884  0.00   -0.0065524    0.0008573    0.0061146
c     0.0175758    2.5258369    0.6603621  0.00   -0.0038656    0.0055821    0.0028141