    13
 Energy =       0.1164164471
c    -3.7133889    1.6950595    0.3173519  0.00   -0.1047462    0.0636857    0.0004869
c    -2.4962693    2.6345192    0.2419999  0.00    0.3727378   -0.0203472    0.1097322
c    -4.9565486    2.3924193   -0.2155699  0.00    0.0444733    0.0242205    0.0066942
h    -4.7854386    2.7464192   -1.2386596  0.00    0.0030212   -0.0012473    0.0191048
h    -5.2149185    3.2645991    0.3947669  0.00    0.0018800   -0.0136256   -0.0120280
h    -5.8205083    1.7195795   -0.2420919  0.00    0.0113611    0.0107793   -0.0054222
n    -3.4097890    0.4519539   -0.4549189  0.00    0.0246940   -0.0709464   -0.0072124
h    -3.8575589    1.4177196    1.3669296  0.00    0.0050535   -0.0130486   -0.0266091
h    -3.2072391   -0.2948399    0.2179739  0.00   -0.0177494    0.0299000   -0.0197831
h    -4.2689788    0.1396900   -0.9176007  0.00    0.0237054    0.0222727    0.0243796
o    -1.4040496    2.4172293    0.7380088  0.00   -0.2660793    0.0521976   -0.1151635
o    -2.7835192    3.7545589   -0.4737969  0.00   -0.0706060   -0.0677772    0.0015075
h    -2.2118794    3.7013989   -1.2803496  0.00   -0.0277453   -0.0160636    0.0243131
    13
 Energy =       0.0835074404
c    -3.6947924    1.7022224    0.3250360  0.00   -0.0333581    0.0199648    0.0026392
c    -2.5413323    2.6938927    0.2479477  0.00    0.1240463   -0.0078388    0.0300836
c    -4.9807374    2.3374609   -0.2096223  0.00    0.0229979    0.0129947    0.0018042
h    -4.8403578    2.6244736   -1.2723070  0.00    0.0050968    0.0015685    0.0040914
h    -5.2256725    3.2611447    0.3546072  0.00    0.0012122   -0.0019853   -0.0032084
h    -5.8344150    1.6312854   -0.1251794  0.00   -0.0004239   -0.0007640   -0.0003419
n    -3.3632807    0.4781201   -0.4430476  0.00    0.0183026   -0.0195319    0.0050200
h    -3.8237279    1.4503692    1.3974698  0.00    0.0018679   -0.0046916   -0.0086871
h    -3.1631970   -0.2946234    0.2246824  0.00   -0.0069092    0.0095532   -0.0060504
h    -4.1710085    0.1514319   -1.0244278  0.00   -0.0007928    0.0032377   -0.0005005
o    -1.3558223    2.4379530    0.7979028  0.00   -0.0890085    0.0154489   -0.0384286
o    -2.7651098    3.8689399   -0.4380112  0.00   -0.0541273   -0.0047221    0.0532901
h    -2.3706325    3.6976361   -1.3810073  0.00    0.0110960   -0.0232341   -0.0397116
    13
 Energy =       0.0789957244
c    -3.6928491    1.6843640    0.3086487  0.00   -0.0210347    0.0120640    0.0030217
c    -2.5743730    2.7197005    0.2812453  0.00    0.0762086   -0.0066140    0.0179427
c    -5.0063558    2.2804587   -0.2154915  0.00    0.0148580    0.0086250    0.0009620
h    -4.8732022    2.6113854   -1.2685151  0.00    0.0038314    0.0014585    0.0015938
h    -5.2962137    3.1729677    0.3822512  0.00    0.0000399    0.0003273   -0.0010116
h    -5.8281057    1.5325843   -0.1595376  0.00   -0.0015777   -0.0015974    0.0001078
n    -3.3118382    0.4946713   -0.4897056  0.00    0.0182462   -0.0082158    0.0042781
h    -3.8232419    1.4004646    1.3763903  0.00    0.0007123   -0.0030724   -0.0047776
h    -3.1657018   -0.3157217    0.1549591  0.00   -0.0040421    0.0030554   -0.0007828
h    -4.0672960    0.1993286   -1.1615267  0.00   -0.0067005   -0.0018424   -0.0067302
o    -1.3744738    2.4750996    0.8589566  0.00   -0.0541172    0.0102947   -0.0228275
o    -2.8039837    3.9286143   -0.3530020  0.00   -0.0389555    0.0023383    0.0473773
h    -2.3124517    3.8563892   -1.2606292  0.00    0.0125313   -0.0168213   -0.0391537
    13
 Energy =       0.0782309248
c    -3.7105929    1.6972511    0.3191744  0.00   -0.0174717    0.0140770    0.0050121
c    -2.5968911    2.7387303    0.3027693  0.00    0.0668200   -0.0060197    0.0153890
c    -5.0006476    2.2524303   -0.3133009  0.00    0.0095712    0.0070588    0.0003038
h    -4.8092438    2.5319422   -1.3751962  0.00    0.0035005    0.0018191   -0.0015970
h    -5.3362176    3.1710873    0.2234981  0.00   -0.0012984    0.0027515    0.0006520
h    -5.8168734    1.4980196   -0.2680003  0.00   -0.0016862   -0.0013219    0.0000042
n    -3.2768346    0.4656848   -0.3914417  0.00    0.0230662   -0.0071610   -0.0014830
h    -3.9007814    1.4732487    1.3957024  0.00    0.0002599   -0.0028319   -0.0005863
h    -3.2123548   -0.3209004    0.3022404  0.00   -0.0026690   -0.0025002    0.0053062
h    -3.9712712    0.1584545   -1.1255568  0.00   -0.0101957   -0.0025706   -0.0106074
o    -1.4027334    2.5025408    0.9061192  0.00   -0.0470593    0.0090639   -0.0197023
o    -2.8230728    3.9531303   -0.3237265  0.00   -0.0361573    0.0027439    0.0458491
h    -2.2725715    3.9186870   -1.1982379  0.00    0.0133199   -0.0151089   -0.0385404
    13
 Energy =       0.0767781194
c    -3.7116890    1.7056937    0.3178385  0.00   -0.0160847    0.0121558    0.0048471
c    -2.6099432    2.7593962    0.2718635  0.00    0.0600512   -0.0061519    0.0137123
c    -5.0151987    2.2374877   -0.3074187  0.00    0.0085213    0.0065705    0.0004878
h    -4.8415823    2.4908896   -1.3792118  0.00    0.0031801    0.0017775   -0.0019562
h    -5.3471241    3.1675045    0.2115504  0.00   -0.0011572    0.0026743    0.0007239
h    -5.8269010    1.4804241   -0.2308060  0.00   -0.0018538   -0.0015546    0.0000210
n    -3.2730486    0.4719626   -0.3836140  0.00    0.0278535    0.0066270   -0.0035717
h    -3.8887290    1.4931620    1.3990325  0.00    0.0001490   -0.0024778   -0.0002825
h    -3.0842388   -0.2806761    0.3364738  0.00    0.0001757   -0.0116700    0.0145797
h    -4.0225229    0.0898013   -1.0329823  0.00   -0.0183230   -0.0061820   -0.0174305
o    -1.4167393    2.5596327    0.8983485  0.00   -0.0414494    0.0078189   -0.0170518
o    -2.8418870    3.9495674   -0.4006760  0.00   -0.0341715    0.0044857    0.0422785
h    -2.2504823    3.9154607   -1.2463550  0.00    0.0131089   -0.0140734   -0.0363576
    13
 Energy =       0.0771153427
c    -3.7055721    1.6967935    0.3100115  0.00   -0.0168277    0.0122694    0.0076439
c    -2.6632152    2.8157163    0.3155115  0.00    0.0601174   -0.0090810    0.0153146
c    -5.0142813    2.1568947   -0.3657438  0.00    0.0066541    0.0055410   -0.0009418
h    -4.8141361    2.4161319   -1.4316668  0.00    0.0031080    0.0015558   -0.0023613
h    -5.4161985    3.0698664    0.1392323  0.00   -0.0022278    0.0046280    0.0019397
h    -5.7887572    1.3571761   -0.3170443  0.00   -0.0033824   -0.0026510   -0.0001360
n    -3.1717017    0.4917777   -0.3826838  0.00    0.0309337    0.0046595   -0.0051407
h    -3.9150935    1.4675136    1.3825276  0.00   -0.0003981   -0.0017259    0.0006119
h    -2.9380731   -0.2443747    0.3422323  0.00    0.0007456   -0.0132395    0.0146901
h    -3.8908445    0.0553235   -1.0340175  0.00   -0.0196486   -0.0076780   -0.0186570
o    -1.4487904    2.6472124    0.9135180  0.00   -0.0387757    0.0070703   -0.0156077
o    -2.9696039    4.0360613   -0.2799135  0.00   -0.0355460    0.0120566    0.0414943
h    -2.3938186    4.0742139   -1.1379199  0.00    0.0152474   -0.0134051   -0.0388500
    13
 Energy =       0.0747845229
c    -3.7095568    1.7053784    0.3104205  0.00   -0.0124790    0.0089698    0.0074695
c    -2.6533492    2.8093050    0.2740005  0.00    0.0432934   -0.0113165    0.0091550
c    -5.0365420    2.1722354   -0.3236215  0.00    0.0044342    0.0037851   -0.0006008
h    -4.8716758    2.4188021   -1.3987478  0.00    0.0025527    0.0013151   -0.0025229
h    -5.4084861    3.0949139    0.1846503  0.00   -0.0018506    0.0039907    0.0018347
h    -5.8170332    1.3817469   -0.2398988  0.00   -0.0031999   -0.0024249   -0.0001475
n    -3.2113603    0.4907365   -0.3865985  0.00    0.0250451    0.0036087   -0.0043163
h    -3.8866791    1.4884934    1.3918966  0.00   -0.0004058   -0.0012316    0.0010892
h    -2.9614957   -0.2406527    0.3342876  0.00    0.0005629   -0.0104557    0.0117347
h    -3.9493095    0.0564490   -1.0128213  0.00   -0.0157624   -0.0063496   -0.0151994
o    -1.4839799    2.6812098    0.9875880  0.00   -0.0227156    0.0015285   -0.0048433
o    -2.9048332    3.9849654   -0.4386667  0.00   -0.0383395    0.0197590    0.0358482
h    -2.2357854    3.9967236   -1.2284454  0.00    0.0188646   -0.0111787   -0.0395011
    13
 Energy =       0.0740006417
c    -3.7334814    1.7019932    0.3066533  0.00   -0.0137052    0.0088423    0.0085736
c    -2.6215238    2.7540155    0.2859120  0.00    0.0402360   -0.0119003    0.0072096
c    -5.0264276    2.2331518   -0.3517564  0.00    0.0037397    0.0053211   -0.0010110
h    -4.8288448    2.4746577   -1.4231762  0.00    0.0027651    0.0016878   -0.0031447
h    -5.3658754    3.1714674    0.1523563  0.00   -0.0022872    0.0047995    0.0019985
h    -5.8456783    1.4788615   -0.2852505  0.00   -0.0045196   -0.0034802    0.0000351
n    -3.2822101    0.4650693   -0.3851626  0.00    0.0278143    0.0029120   -0.0044877
h    -3.9389462    1.4914976    1.3846180  0.00   -0.0005665   -0.0017087    0.0014855
h    -3.0244977   -0.2592468    0.3408375  0.00    0.0005870   -0.0109349    0.0124553
h    -4.0485700    0.0354504   -0.9820914  0.00   -0.0172431   -0.0077013   -0.0167230
o    -1.4253379    2.5224567    0.9357237  0.00   -0.0154345   -0.0002219   -0.0004678
o    -2.8340813    3.9718772   -0.3711924  0.00   -0.0413448    0.0238424    0.0357012
h    -2.1546118    3.9990549   -1.1534279  0.00    0.0199588   -0.0114578   -0.0416246
    13
 Energy =       0.0722049167
c    -3.7756890    1.6939416    0.2893507  0.00   -0.0118517    0.0049135    0.0079941
c    -2.6160743    2.6970966    0.3465632  0.00    0.0345481   -0.0116522    0.0068510
c    -5.0107271    2.2928279   -0.4269953  0.00    0.0011471    0.0068923   -0.0014208
h    -4.7506529    2.5324376   -1.4869857  0.00    0.0028133    0.0022257   -0.0046730
h    -5.3305703    3.2418247    0.0691358  0.00   -0.0024405    0.0046110    0.0016875
h    -5.8686038    1.5774224   -0.4054241  0.00   -0.0060744   -0.0044526    0.0003030
n    -3.3451543    0.4557875   -0.4091017  0.00    0.0277413    0.0067103   -0.0048013
h    -4.0466182    1.4664792    1.3512154  0.00   -0.0010383   -0.0025406    0.0034612
h    -3.0175804   -0.2457581    0.3133769  0.00    0.0020060   -0.0121466    0.0143566
h    -4.1462807   -0.0031593   -0.9371091  0.00   -0.0192665   -0.0094597   -0.0177638
o    -1.4398406    2.3717651    1.0021658  0.00   -0.0088638   -0.0017984    0.0023566
o    -2.7537433    3.9547232   -0.2574737  0.00   -0.0386843    0.0259286    0.0317945
h    -2.0285513    4.0049181   -0.9946747  0.00    0.0199636   -0.0092314   -0.0401456
    13
 Energy =       0.0732311439
c    -3.7914872    1.6859405    0.2761613  0.00   -0.0131757    0.0049673    0.0074347
c    -2.6421717    2.6956600    0.4219287  0.00    0.0320609   -0.0103958    0.0049614
c    -4.9953777    2.2966301   -0.4835655  0.00    0.0005154    0.0066654   -0.0014941
h    -4.6917107    2.5503520   -1.5295878  0.00    0.0030540    0.0023958   -0.0057037
h    -5.3357231    3.2384415    0.0132068  0.00   -0.0025225    0.0047223    0.0019087
h    -5.8545452    1.5815264   -0.5069602  0.00   -0.0068685   -0.0049123    0.0002342
n    -3.3203247    0.4717165   -0.4385476  0.00    0.0278353    0.0061364   -0.0061074
h    -4.1134504    1.4246328    1.3178612  0.00   -0.0017487   -0.0026981    0.0053454
h    -2.9692023   -0.2261387    0.2768443  0.00    0.0022598   -0.0125471    0.0144185
h    -4.1125206   -0.0068043   -0.9628353  0.00   -0.0194419   -0.0095697   -0.0176962
o    -1.5115779    2.3731168    1.1609189  0.00   -0.0036892   -0.0021237    0.0050468
o    -2.7507718    3.9623735   -0.1688200  0.00   -0.0388588    0.0266532    0.0317057
h    -2.0412230    3.9928595   -0.9225612  0.00    0.0205799   -0.0092938   -0.0400539
    13
 Energy =       0.0716715458
c    -3.7832028    1.6929082    0.2876568  0.00   -0.0148937    0.0054562    0.0071500
c    -2.6133633    2.6914329    0.3505887  0.00    0.0287625   -0.0087895    0.0028067
c    -5.0122054    2.2979477   -0.4369817  0.00    0.0001226    0.0063689   -0.0015475
h    -4.7435003    2.5371830   -1.4967246  0.00    0.0032224    0.0024897   -0.0064412
h    -5.3301851    3.2481619    0.0588611  0.00   -0.0025962    0.0048953    0.0021395
h    -5.8754143    1.5864940   -0.4214718  0.00   -0.0074756   -0.0052710    0.0001966
n    -3.3572586    0.4522197   -0.4125003  0.00    0.0281579    0.0051423   -0.0072886
h    -4.0625487    1.4659194    1.3509257  0.00   -0.0023059   -0.0027138    0.0069412
h    -3.0203140   -0.2470231    0.3082615  0.00    0.0023658   -0.0127599    0.0143714
h    -4.1639004   -0.0099054   -0.9296435  0.00   -0.0196795   -0.0097653   -0.0177459
o    -1.4291612    2.3565375    1.0021658  0.00    0.0025119   -0.0027365    0.0076581
o    -2.7447993    3.9532030   -0.2469387  0.00   -0.0417123    0.0270363    0.0335243
h    -1.9942328    4.0152279   -0.9601555  0.00    0.0235200   -0.0093524   -0.0417645
    13
 Energy =       0.0682129744
c    -3.7820819    1.6995345    0.2907264  0.00   -0.0142006    0.0054654    0.0063567
c    -2.5886333    2.6722142    0.2770331  0.00    0.0208246   -0.0054373    0.0008934
c    -5.0271614    2.3102973   -0.3982419  0.00   -0.0001738    0.0049130   -0.0012287
h    -4.7919873    2.5303065   -1.4696747  0.00    0.0028985    0.0021336   -0.0060656
h    -5.3134917    3.2715472    0.0942320  0.00   -0.0022993    0.0044365    0.0021376
h    -5.8985028    1.6119547   -0.3438987  0.00   -0.0068809   -0.0047873    0.0000891
n    -3.4122301    0.4333943   -0.3937493  0.00    0.0247820    0.0034503   -0.0071050
h    -4.0218454    1.5062343    1.3700772  0.00   -0.0024118   -0.0021779    0.0070972
h    -3.0573839   -0.2542033    0.3269079  0.00    0.0019858   -0.0106707    0.0122449
h    -4.2437354   -0.0250183   -0.8691642  0.00   -0.0174583   -0.0090236   -0.0156932
o    -1.3663069    2.3079273    0.8434127  0.00    0.0078333   -0.0027761    0.0079100
o    -2.7220950    3.9310268   -0.3217237  0.00   -0.0434647    0.0215759    0.0341767
h    -1.9046311    4.0450913   -0.9518933  0.00    0.0285653   -0.0071018   -0.0408130
    13
 Energy =       0.0625418109
c    -3.7925966    1.7047941    0.2770263  0.00   -0.0096631    0.0045691    0.0058836
c    -2.5653147    2.6258272    0.1948527  0.00    0.0085446   -0.0008686   -0.0001524
c    -5.0383713    2.3432358   -0.3761242  0.00    0.0000178    0.0023212   -0.0005259
h    -4.8379428    2.5271664   -1.4594467  0.00    0.0020326    0.0011914   -0.0042697
h    -5.2696117    3.3246544    0.1030498  0.00   -0.0016575    0.0036194    0.0020374
h    -5.9296060    1.6797556   -0.2733799  0.00   -0.0051023   -0.0034749   -0.0000070
n    -3.5041598    0.4135400   -0.3907700  0.00    0.0235155    0.0104934   -0.0079203
h    -3.9969194    1.5449085    1.3663775  0.00   -0.0018343   -0.0010274    0.0047066
h    -3.0470667   -0.2338694    0.3110059  0.00    0.0048276   -0.0098317    0.0143330
h    -4.3892094   -0.0714410   -0.7299107  0.00   -0.0226765   -0.0122639   -0.0153920
o    -1.3273088    2.2040617    0.6846595  0.00    0.0097232   -0.0021844    0.0051144
o    -2.6695434    3.8893655   -0.3899950  0.00   -0.0485045    0.0065299    0.0324882
h    -1.7624359    4.0883077   -0.8633018  0.00    0.0407769    0.0009264   -0.0362959
    13
 Energy =       0.0574974238
c    -3.8106362    1.7054104    0.2518778  0.00   -0.0038313    0.0020166    0.0045725
c    -2.5478607    2.5663781    0.1470729  0.00    0.0011876   -0.0006295    0.0001323
c    -5.0347912    2.3890813   -0.3873625  0.00    0.0004314    0.0007726   -0.0005122
h    -4.8533202    2.5324599   -1.4776569  0.00    0.0010781    0.0003890   -0.0019157
h    -5.2051918    3.3919369    0.0698486  0.00   -0.0010274    0.0027485    0.0014871
h    -5.9527113    1.7746892   -0.2472141  0.00   -0.0030478   -0.0020071    0.0001600
n    -3.6000405    0.4002490   -0.4055347  0.00    0.0205058    0.0170785   -0.0089480
h    -4.0036486    1.5633503    1.3422027  0.00   -0.0007789   -0.0004089    0.0012801
h    -3.0222297   -0.2081698    0.2417964  0.00    0.0087573   -0.0087272    0.0149192
h    -4.5223867   -0.1077049   -0.5711576  0.00   -0.0266866   -0.0137206   -0.0111839
o    -1.3256107    2.0787388    0.6079810  0.00    0.0055003   -0.0016173    0.0023633
o    -2.6004495    3.8464348   -0.4031560  0.00   -0.0323338   -0.0010432    0.0188147
h    -1.6512094    4.1074525   -0.7146542  0.00    0.0302456    0.0051486   -0.0211695
    13
 Energy =       0.0546691493
c    -3.8309633    1.7042347    0.2302805  0.00   -0.0016662    0.0002931    0.0027439
c    -2.5391853    2.5205051    0.1427216  0.00   -0.0003310   -0.0008899    0.0001403
c    -5.0236132    2.4276605   -0.4206398  0.00   -0.0000221    0.0006693   -0.0006373
h    -4.8345990    2.5505063   -1.5109343  0.00    0.0004557    0.0001961   -0.0007463
h    -5.1570323    3.4403613    0.0232881  0.00   -0.0005865    0.0014766    0.0006495
h    -5.9629990    1.8505345   -0.2775069  0.00   -0.0015915   -0.0010105    0.0001971
n    -3.6681512    0.3944200   -0.4244267  0.00    0.0121484    0.0105732   -0.0053354
h    -4.0380744    1.5673603    1.3177689  0.00   -0.0003104   -0.0004645    0.0003979
h    -3.0250939   -0.1973267    0.1672085  0.00    0.0056166   -0.0047898    0.0087379
h    -4.5928537   -0.1179662   -0.4741679  0.00   -0.0164584   -0.0080519   -0.0057781
o    -1.3427485    1.9865921    0.6163312  0.00    0.0032166   -0.0012592    0.0012678
o    -2.5417583    3.8126608   -0.3799789  0.00   -0.0222935   -0.0021931    0.0098489
h    -1.5730142    4.1007638   -0.5559010  0.00    0.0218223    0.0054506   -0.0114862
    13
 Energy =       0.0529100671
c    -3.8574760    1.7031678    0.2045043  0.00   -0.0008088   -0.0003059    0.0028332
c    -2.5300164    2.4624471    0.1465783  0.00   -0.0009219   -0.0000643   -0.0003898
c    -5.0111699    2.4860099   -0.4434193  0.00   -0.0004988    0.0003050   -0.0011210
h    -4.8142114    2.6057927   -1.5318600  0.00   -0.0000862    0.0000247    0.0000600
h    -5.0981523    3.5003692    0.0056008  0.00   -0.0001544    0.0007366    0.0001599
h    -5.9751470    1.9507428   -0.3093039  0.00   -0.0007186   -0.0003967    0.0000257
n    -3.7610907    0.3983424   -0.4693756  0.00    0.0077269    0.0129782   -0.0114252
h    -4.0772939    1.5576053    1.2879716  0.00    0.0000661   -0.0005797   -0.0000935
h    -3.0166131   -0.1771283    0.0147414  0.00    0.0112727   -0.0063092    0.0087247
h    -4.6729736   -0.1260848   -0.3473127  0.00   -0.0183975   -0.0072509    0.0010029
o    -1.3802095    1.8907944    0.6887936  0.00    0.0036393   -0.0023079    0.0016914
o    -2.4570817    3.7445841   -0.3957272  0.00   -0.0199328   -0.0015256    0.0003980
h    -1.4786507    4.0436640   -0.3971479  0.00    0.0188141    0.0046957   -0.0018663
    13
 Energy =       0.0523703072
c    -3.8699839    1.7053778    0.1995899  0.00   -0.0001066    0.0001121   -0.0003290
c    -2.5274027    2.4360082    0.1597557  0.00   -0.0007612   -0.0010280    0.0002503
c    -5.0018031    2.5175348   -0.4455769  0.00   -0.0000906   -0.0000558    0.0001092
h    -4.7949193    2.6455612   -1.5315370  0.00    0.0000001    0.0000474   -0.0001066
h    -5.0714928    3.5273182    0.0145558  0.00    0.0000415   -0.0000077   -0.0000040
h    -5.9757233    1.9988376   -0.3246383  0.00    0.0000135   -0.0000570    0.0000016
n    -3.8014735    0.4055031   -0.4850660  0.00   -0.0013189   -0.0027667    0.0019059
h    -4.0991719    1.5561957    1.2808700  0.00    0.0000262    0.0000444    0.0000559
h    -3.0394471   -0.1709035   -0.0549608  0.00   -0.0020625    0.0008028   -0.0005888
h    -4.6876777   -0.1224939   -0.3179189  0.00    0.0033997    0.0018099   -0.0010694
o    -1.4137608    1.8668693    0.7724248  0.00    0.0017628   -0.0016348    0.0011466
o    -2.4054620    3.6893249   -0.4378310  0.00    0.0014012    0.0038931   -0.0009466
h    -1.4417681    3.9851730   -0.3756237  0.00   -0.0023051   -0.0011597   -0.0004250
    13
 Energy =       0.0523688338
c    -3.8778354    1.7102287    0.1997239  0.00   -0.0001544    0.0000153   -0.0002627
c    -2.5237517    2.4202198    0.1686740  0.00   -0.0007343   -0.0010127    0.0001830
c    -4.9903160    2.5344410   -0.4642237  0.00   -0.0001765    0.0001333    0.0000941
h    -4.7696876    2.6506714   -1.5489406  0.00    0.0000486    0.0000836   -0.0002492
h    -5.0497243    3.5489448   -0.0128816  0.00   -0.0000125    0.0000988    0.0000040
h    -5.9734361    2.0315141   -0.3497554  0.00   -0.0001548   -0.0001189    0.0000468
n    -3.8217267    0.4038655   -0.4738664  0.00   -0.0010326   -0.0023599    0.0015101
h    -4.1210333    1.5731407    1.2796946  0.00   -0.0000505   -0.0000213    0.0002028
h    -3.0729044   -0.1807343   -0.0310109  0.00   -0.0016396    0.0004964   -0.0004099
h    -4.7180393   -0.1092353   -0.3117838  0.00    0.0028146    0.0014891   -0.0009022
o    -1.4246072    1.8377721    0.7950251  0.00    0.0018627   -0.0016512    0.0012048
o    -2.3772465    3.6686180   -0.4338199  0.00    0.0010829    0.0038154   -0.0010485
h    -1.4097778    3.9508601   -0.3627920  0.00   -0.0018537   -0.0009678   -0.0003731
    13
 Energy =       0.0523425329
c    -3.8771592    1.6979806    0.1913722  0.00    0.0001771    0.0012606    0.0003135
c    -2.5243373    2.4108983    0.1836064  0.00   -0.0005192   -0.0004598    0.0001167
c    -4.9943580    2.5499640   -0.4297763  0.00   -0.0006066    0.0000114    0.0001210
h    -4.7810692    2.7118835   -1.5111234  0.00    0.0001473    0.0002770   -0.0012266
h    -5.0507027    3.5454304    0.0645621  0.00   -0.0000979    0.0010505    0.0004378
h    -5.9764546    2.0417857   -0.3299672  0.00   -0.0002022   -0.0002198    0.0000856
n    -3.8232410    0.4213530   -0.5398564  0.00   -0.0012686   -0.0030321   -0.0004375
h    -4.1139701    1.5130595    1.2667234  0.00   -0.0001845   -0.0001861    0.0013045
h    -3.0662978   -0.1793260   -0.1315255  0.00   -0.0005463   -0.0005739    0.0000812
h    -4.7158557   -0.1027013   -0.3894539  0.00    0.0021230    0.0008942   -0.0006441
o    -1.4326546    1.8247262    0.8188059  0.00    0.0015784   -0.0013546    0.0010126
o    -2.3701294    3.6609660   -0.4127429  0.00    0.0006981    0.0030476   -0.0008852
h    -1.4038566    3.9442868   -0.3265810  0.00   -0.0012984   -0.0007150   -0.0002795
    13
 Energy =       0.0523079172
c    -3.8708232    1.6972340    0.1966053  0.00    0.0001884    0.0001783    0.0003730
c    -2.5194001    2.4115911    0.1572371  0.00   -0.0001560   -0.0011864    0.0004347
c    -5.0061985    2.5526116   -0.3845805  0.00   -0.0006935    0.0001254    0.0001135
h    -4.8237390    2.7233345   -1.4699440  0.00    0.0001297    0.0001358   -0.0008691
h    -5.0492706    3.5432249    0.1191677  0.00   -0.0000928    0.0004317    0.0002276
h    -5.9847216    2.0424541   -0.2615761  0.00   -0.0003474   -0.0001072    0.0000422
n    -3.8371455    0.4283092   -0.5473515  0.00   -0.0003807    0.0005392   -0.0017221
h    -4.0769538    1.5023032    1.2761939  0.00   -0.0001555   -0.0000618    0.0009036
h    -3.0518965   -0.1659292   -0.1819433  0.00    0.0015544   -0.0012207    0.0008001
h    -4.7169466   -0.1075806   -0.3552483  0.00   -0.0008527   -0.0003400    0.0002598
o    -1.4234916    1.8460532    0.8021329  0.00    0.0006397   -0.0007366    0.0005024
o    -2.3680503    3.6391506   -0.4846557  0.00    0.0003938    0.0023276   -0.0009271
h    -1.4014490    3.9275499   -0.4119941  0.00   -0.0002273   -0.0000853   -0.0001387
    13
 Energy =       0.0522912462
c    -3.8708054    1.6914092    0.1939441  0.00   -0.0001242    0.0005583   -0.0001065
c    -2.5236531    2.4129543    0.1718825  0.00   -0.0005480   -0.0000300   -0.0000985
c    -5.0090755    2.5561425   -0.3644712  0.00    0.0000365   -0.0000406    0.0000287
h    -4.8297149    2.7514443   -1.4456015  0.00    0.0000208    0.0000264   -0.0001224
h    -5.0534947    3.5349387    0.1610213  0.00    0.0000060    0.0001870    0.0000638
h    -5.9853673    2.0402778   -0.2509253  0.00    0.0000267   -0.0000280    0.0000217
n    -3.8316774    0.4418383   -0.5810709  0.00    0.0001709   -0.0005093   -0.0001974
h    -4.0757234    1.4683901    1.2677436  0.00   -0.0000338   -0.0000425    0.0002122
h    -3.0436680   -0.1562778   -0.2323310  0.00   -0.0001728    0.0000333   -0.0000481
h    -4.7076885   -0.1036375   -0.4019051  0.00    0.0000141   -0.0001085    0.0000080
o    -1.4425485    1.8728953    0.8626526  0.00    0.0011616   -0.0008842    0.0008749
o    -2.3597743    3.6166243   -0.5091329  0.00   -0.0009846    0.0008533   -0.0007966
h    -1.3968952    3.9133072   -0.4177628  0.00    0.0004267   -0.0000153    0.0001602
    13
 Energy =       0.0522882804
c    -3.8681656    1.6868047    0.1920767  0.00    0.0000661    0.0001123    0.0000636
c    -2.5240661    2.4138062    0.1726019  0.00    0.0000585    0.0000150   -0.0000026
c    -5.0133789    2.5564961   -0.3443720  0.00   -0.0001188    0.0000159    0.0000403
h    -4.8418798    2.7702627   -1.4233865  0.00    0.0000257    0.0000419   -0.0001794
h    -5.0579401    3.5261911    0.1975513  0.00   -0.0000312    0.0001349    0.0000629
h    -5.9870933    2.0352352   -0.2330561  0.00   -0.0000202   -0.0000095    0.0000156
n    -3.8293561    0.4505497   -0.6036762  0.00   -0.0000297   -0.0000928   -0.0002216
h    -4.0651424    1.4452535    1.2633499  0.00   -0.0000320   -0.0000326    0.0001757
h    -3.0369579   -0.1504858   -0.2695777  0.00    0.0001494   -0.0001547    0.0000527
h    -4.7025309   -0.1007156   -0.4284058  0.00   -0.0000315   -0.0000378    0.0000193
o    -1.4444633    1.8811374    0.8693532  0.00   -0.0000762    0.0000478   -0.0000680
o    -2.3602905    3.6128746   -0.5153070  0.00    0.0000704   -0.0000406    0.0000546
h    -1.3988213    3.9128967   -0.4231082  0.00   -0.0000304    0.0000005   -0.0000131
    13
 Energy =       0.0522881190
c    -3.8681700    1.6866815    0.1921377  0.00   -0.0000004    0.0000015   -0.0000009
c    -2.5243342    2.4141127    0.1733763  0.00   -0.0000070   -0.0000051    0.0000012
c    -5.0135073    2.5564625   -0.3433693  0.00   -0.0000003   -0.0000000    0.0000003
h    -4.8421553    2.7711796   -1.4220518  0.00    0.0000001    0.0000001   -0.0000004
h    -5.0581541    3.5255390    0.1993557  0.00    0.0000001    0.0000005    0.0000002
h    -5.9871004    2.0349201   -0.2325022  0.00   -0.0000001   -0.0000001    0.0000002
n    -3.8290711    0.4513654   -0.6047314  0.00    0.0000005   -0.0000007   -0.0000009
h    -4.0650797    1.4440328    1.2630114  0.00   -0.0000000   -0.0000001    0.0000006
h    -3.0367677   -0.1497698   -0.2709998  0.00    0.0000001   -0.0000000    0.0000000
h    -4.7022319   -0.1001515   -0.4303321  0.00   -0.0000005   -0.0000004    0.0000000
o    -1.4461139    1.8841540    0.8744587  0.00    0.0000114   -0.0000101    0.0000104
o    -2.3592956    3.6105804   -0.5188143  0.00   -0.0000054    0.0000149   -0.0000116
h    -1.3981052    3.9111998   -0.4254956  0.00    0.0000016   -0.0000003    0.0000008
    13
 Energy =       0.0522881187
c    -3.8681686    1.6866858    0.1921331  0.00   -0.0000000    0.0000000   -0.0000000
c    -2.5243238    2.4141016    0.1733437  0.00   -0.0000000   -0.0000000    0.0000000
c    -5.0134994    2.5564581   -0.3434021  0.00   -0.0000000    0.0000000    0.0000000
h    -4.8421422    2.7711471   -1.4220886  0.00   -0.0000000    0.0000000    0.0000000
h    -5.0581438    3.5255482    0.1992981  0.00    0.0000000    0.0000000    0.0000000
h    -5.9870958    2.0349240   -0.2325258  0.00   -0.0000000   -0.0000000    0.0000000
n    -3.8290865    0.4513424   -0.6046935  0.00    0.0000000   -0.0000000   -0.0000000
h    -4.0650768    1.4440767    1.2630152  0.00    0.0000000   -0.0000000    0.0000000
h    -3.0367834   -0.1497871   -0.2709507  0.00    0.0000000   -0.0000000   -0.0000000
h    -4.7022485   -0.1001626   -0.4302648  0.00   -0.0000000   -0.0000000   -0.0000000
o    -1.4460535    1.8840472    0.8742573  0.00    0.0000000   -0.0000000    0.0000000
o    -2.3593321    3.6106631   -0.5186768  0.00   -0.0000000    0.0000000   -0.0000000
h    -1.3981318    3.9112621   -0.4254016  0.00    0.0000000   -0.0000000    0.0000000
