    13
 Energy =       0.0961143722
c    -3.7133889    1.6950595    0.3173519  0.00   -0.1179192    0.0629324    0.0087599
c    -2.4962693    2.6345192    0.2419999  0.00    0.3702594   -0.0363572    0.1181261
c    -4.9565486    2.3924193   -0.2155699  0.00    0.0434553    0.0427890    0.0036509
h    -5.8072983    1.7014095   -0.2223689  0.00    0.0079743    0.0130837   -0.0001595
h    -4.8071186    2.7393792   -1.2437896  0.00   -0.0025655   -0.0007549    0.0193155
h    -5.2375685    3.2516891    0.4029209  0.00   -0.0007246   -0.0129541   -0.0107209
n    -3.4097890    0.4519539   -0.4549189  0.00    0.0802619   -0.0548670   -0.0112712
h    -3.8575589    1.4177196    1.3669296  0.00    0.0064532   -0.0101724   -0.0251294
h    -2.5963493    0.6418898   -1.0496997  0.00   -0.0247239    0.0128854    0.0422907
h    -3.0749291   -0.2623099    0.1989099  0.00   -0.0111568    0.0297139   -0.0230825
o    -1.4040496    2.4172293    0.7380088  0.00   -0.2598648    0.0471846   -0.1272502
o    -2.7835192    3.7545589   -0.4737969  0.00   -0.0685464   -0.0564979    0.0090759
h    -2.5521993    4.5104687    0.1222010  0.00   -0.0229030   -0.0369856   -0.0036052
    13
 Energy =       0.0739048250
c    -3.6737930    1.6976111    0.2962383  0.00   -0.0727176    0.0412554    0.0046880
c    -2.4757618    2.6413613    0.1716915  0.00    0.2324471   -0.0232867    0.0749983
c    -4.9506550    2.3886960   -0.1658122  0.00    0.0309463    0.0274700    0.0020275
h    -5.8175804    1.7079104   -0.0636158  0.00   -0.0000182    0.0050901    0.0007975
h    -4.8599684    2.6805314   -1.2280846  0.00    0.0003138    0.0002669    0.0087228
h    -5.1551929    3.2952041    0.4316525  0.00    0.0000121   -0.0048110   -0.0040913
n    -3.4466497    0.4601976   -0.4955453  0.00    0.0478883   -0.0327302   -0.0083925
h    -3.7583303    1.4327269    1.3656503  0.00    0.0041772   -0.0057919   -0.0133877
h    -2.6380094    0.6048254   -1.1259204  0.00   -0.0134485    0.0083410    0.0254260
h    -3.1559038   -0.3041584    0.1393247  0.00   -0.0058446    0.0148974   -0.0131020
o    -1.3310439    2.3991899    0.6937014  0.00   -0.1629894    0.0294528   -0.0790620
o    -2.7362120    3.8040463   -0.5033246  0.00   -0.0476811   -0.0660693   -0.0297594
h    -2.6974863    4.5378442    0.2122223  0.00   -0.0130854    0.0059156    0.0311348
    13
 Energy =       0.0666094904
c    -3.6821523    1.6992830    0.3008436  0.00   -0.0626103    0.0356052    0.0038507
c    -2.4924531    2.6490849    0.1651975  0.00    0.2000837   -0.0198291    0.0653329
c    -4.9678785    2.3798702   -0.1525931  0.00    0.0269395    0.0238064    0.0017799
h    -5.8309137    1.6964227   -0.0312123  0.00   -0.0001594    0.0042799    0.0007140
h    -4.8898015    2.6598392   -1.2201002  0.00    0.0002951    0.0002837    0.0074046
h    -5.1644283    3.2953001    0.4359248  0.00    0.0001514   -0.0039914   -0.0034731
n    -3.4642215    0.4595560   -0.4867223  0.00    0.0411855   -0.0281395   -0.0072636
h    -3.7572151    1.4424758    1.3745178  0.00    0.0036046   -0.0049873   -0.0114633
h    -2.6522074    0.5914309   -1.1187523  0.00   -0.0114852    0.0071908    0.0218866
h    -3.1862552   -0.3085452    0.1521318  0.00   -0.0050242    0.0127170   -0.0112216
o    -1.3273179    2.3978832    0.6749052  0.00   -0.1403052    0.0254100   -0.0683270
o    -2.7430091    3.8111216   -0.5195845  0.00   -0.0460004   -0.0747605   -0.0422783
h    -2.5387332    4.5722637    0.1536220  0.00   -0.0066751    0.0224146    0.0430581
    13
 Energy =       0.0571453348
c    -3.6842788    1.7071567    0.3069387  0.00   -0.0441159    0.0254996    0.0025466
c    -2.5030264    2.6604281    0.1435131  0.00    0.1403606   -0.0136568    0.0473886
c    -4.9868800    2.3740560   -0.1213850  0.00    0.0194773    0.0171828    0.0013880
h    -5.8413662    1.6835963    0.0280388  0.00   -0.0004652    0.0027863    0.0005735
h    -4.9348633    2.6429148   -1.1955184  0.00    0.0002554    0.0003205    0.0048912
h    -5.1712650    3.2971098    0.4621733  0.00    0.0002415   -0.0026953   -0.0023847
n    -3.4957159    0.4623662   -0.4747051  0.00    0.0283300   -0.0194714   -0.0053370
h    -3.7356742    1.4644700    1.3885519  0.00    0.0025715   -0.0034429   -0.0076697
h    -2.6770038    0.5628442   -1.1103185  0.00   -0.0074579    0.0050716    0.0151213
h    -3.2495653   -0.3166332    0.1697363  0.00   -0.0034039    0.0081508   -0.0075014
o    -1.3057091    2.3890333    0.6384068  0.00   -0.0984138    0.0175218   -0.0490356
o    -2.7312587    3.8241384   -0.5555732  0.00   -0.0382625   -0.0685850   -0.0433234
h    -2.3799801    4.5945058    0.0483193  0.00    0.0008830    0.0313180    0.0433427
    13
 Energy =       0.0509179325
c    -3.6903603    1.7278268    0.3207605  0.00   -0.0297454    0.0183154    0.0018485
c    -2.5020597    2.6627287    0.1026301  0.00    0.0899145   -0.0072762    0.0323399
c    -4.9999631    2.3843654   -0.1059460  0.00    0.0136577    0.0108770    0.0013558
h    -5.8542454    1.7030935    0.0911975  0.00   -0.0011094    0.0010380    0.0006250
h    -4.9680790    2.6069609   -1.1939465  0.00    0.0003016    0.0004504    0.0019498
h    -5.1635713    3.3352462    0.4424985  0.00    0.0001815   -0.0007267   -0.0009716
n    -3.5431928    0.4504714   -0.4141155  0.00    0.0159293   -0.0134320   -0.0043702
h    -3.7240848    1.5337616    1.4162744  0.00    0.0015739   -0.0021854   -0.0035936
h    -2.7170728    0.4899805   -1.0542257  0.00   -0.0025606    0.0029146    0.0080045
h    -3.3349020   -0.3167626    0.2627731  0.00   -0.0019220    0.0035294   -0.0036797
o    -1.2747109    2.3564813    0.5663149  0.00   -0.0622526    0.0107625   -0.0327931
o    -2.7031179    3.8260552   -0.6136487  0.00   -0.0313129   -0.0587668   -0.0394966
h    -2.2212270    4.5857773   -0.0923885  0.00    0.0073445    0.0344997    0.0387813
    13
 Energy =       0.0478750569
c    -3.6883771    1.7432910    0.3306843  0.00   -0.0209889    0.0145391    0.0021445
c    -2.4817086    2.6384743    0.0407274  0.00    0.0589059   -0.0029579    0.0226458
c    -5.0039053    2.4281715   -0.0384193  0.00    0.0086866    0.0068186    0.0010333
h    -5.8656636    1.7722589    0.2139181  0.00   -0.0024218   -0.0001023    0.0006718
h    -5.0219968    2.6303603   -1.1325876  0.00    0.0002303    0.0002000   -0.0002149
h    -5.1117860    3.3937361    0.5018358  0.00    0.0000133    0.0008258    0.0003175
n    -3.6249632    0.4499621   -0.3888906  0.00    0.0076727   -0.0107379   -0.0039871
h    -3.6719221    1.5717508    1.4328337  0.00    0.0009422   -0.0006939   -0.0006452
h    -2.8015528    0.4257131   -1.0382840  0.00    0.0008793    0.0013897    0.0033860
h    -3.4646701   -0.3242653    0.2964531  0.00   -0.0008394    0.0002877   -0.0016830
o    -1.2312440    2.2833014    0.4509658  0.00   -0.0379434    0.0064752   -0.0223842
o    -2.6590930    3.8000067   -0.6899168  0.00   -0.0269844   -0.0502361   -0.0347244
h    -2.0697041    4.5332254   -0.2511416  0.00    0.0118477    0.0341920    0.0334397
    13
 Energy =       0.0475931008
c    -3.6813742    1.7430731    0.3327543  0.00   -0.0175897    0.0149066    0.0036372
c    -2.4589132    2.6014392   -0.0040783  0.00    0.0529330   -0.0025904    0.0206264
c    -4.9933129    2.4810905    0.0484129  0.00    0.0052235    0.0057300    0.0007767
h    -5.8637472    1.8491393    0.3327556  0.00   -0.0031600   -0.0002409    0.0006200
h    -5.0630186    2.7052829   -1.0409159  0.00   -0.0001680    0.0002028   -0.0017946
h    -5.0388940    3.4394612    0.6136527  0.00   -0.0002439    0.0025231    0.0016309
n    -3.7027407    0.4620848   -0.4148100  0.00    0.0055967   -0.0121293   -0.0059921
h    -3.6110746    1.5498366    1.4309271  0.00    0.0011993   -0.0000351    0.0012818
h    -2.8993142    0.4091527   -1.0885040  0.00    0.0019252    0.0006197    0.0020882
h    -3.5641318   -0.3350943    0.2498104  0.00   -0.0003604   -0.0010426   -0.0011872
o    -1.2044655    2.2123894    0.3735190  0.00   -0.0325978    0.0058033   -0.0201183
o    -2.6190225    3.7531133   -0.7554386  0.00   -0.0243314   -0.0459547   -0.0324137
h    -1.9965772    4.4750175   -0.3499071  0.00    0.0115736    0.0322075    0.0308448
    13
 Energy =       0.0465055227
c    -3.6874855    1.7313156    0.3172254  0.00   -0.0177207    0.0153157    0.0057992
c    -2.4811265    2.6424737    0.0568717  0.00    0.0532698   -0.0049378    0.0220138
c    -5.0138118    2.4251049   -0.0148967  0.00    0.0041831    0.0048306    0.0004954
h    -5.8738195    1.7574412    0.2214070  0.00   -0.0046661   -0.0010525    0.0008602
h    -5.0426821    2.6648217   -1.1034329  0.00   -0.0001160    0.0001081   -0.0027443
h    -5.1192519    3.3730869    0.5632122  0.00   -0.0004554    0.0039252    0.0027366
n    -3.6270034    0.4642877   -0.4565087  0.00    0.0030070   -0.0152093   -0.0067090
h    -3.6624251    1.5190583    1.4147924  0.00    0.0010008    0.0004602    0.0025903
h    -2.7947142    0.4577381   -1.0995057  0.00    0.0043204    0.0001944   -0.0001014
h    -3.4815508   -0.3401071    0.1980642  0.00   -0.0002975   -0.0013135   -0.0011498
o    -1.2239894    2.2659183    0.4409216  0.00   -0.0313476    0.0060152   -0.0196749
o    -2.6591169    3.8410902   -0.6188185  0.00   -0.0228981   -0.0401649   -0.0344192
h    -2.0296094    4.5437567   -0.1911539  0.00    0.0117203    0.0318286    0.0303030
    13
 Energy =       0.0456613614
c    -3.7092952    1.7272762    0.3001493  0.00   -0.0161466    0.0128090    0.0055325
c    -2.4780473    2.6258975    0.1110963  0.00    0.0489446   -0.0070962    0.0219949
c    -5.0121208    2.4446489   -0.0756994  0.00    0.0032027    0.0044813    0.0008239
h    -5.8902966    1.7848829    0.1152217  0.00   -0.0052661   -0.0015823    0.0009819
h    -4.9928402    2.7032553   -1.1609652  0.00   -0.0001838    0.0004210   -0.0037842
h    -5.1281470    3.3844506    0.5133519  0.00   -0.0003626    0.0037043    0.0026660
n    -3.6349403    0.4750222   -0.4952645  0.00   -0.0001659   -0.0125516   -0.0071802
h    -3.7341676    1.4935027    1.3943739  0.00    0.0009526    0.0001085    0.0037520
h    -2.7662829    0.4607071   -1.0910274  0.00    0.0063805    0.0005144   -0.0017569
h    -3.5474242   -0.3461310    0.1515849  0.00   -0.0002035   -0.0033263    0.0010900
o    -1.2324617    2.1843713    0.4764543  0.00   -0.0263935    0.0035314   -0.0170765
o    -2.6198547    3.8778612   -0.4786970  0.00   -0.0237788   -0.0325199   -0.0364974
h    -1.9507082    4.5302414   -0.0324008  0.00    0.0130202    0.0315063    0.0294539
    13
 Energy =       0.0440259625
c    -3.6872146    1.7193324    0.2941252  0.00   -0.0122213    0.0088366    0.0059588
c    -2.5152926    2.6955751    0.0985474  0.00    0.0375367   -0.0122034    0.0216687
c    -5.0377490    2.3533758   -0.0720063  0.00    0.0010837    0.0046042   -0.0005555
h    -5.8717091    1.6366062    0.1188032  0.00   -0.0061112   -0.0027460    0.0012119
h    -5.0398441    2.6213996   -1.1544238  0.00   -0.0000996    0.0006160   -0.0032523
h    -5.2116228    3.2815182    0.5229201  0.00   -0.0007617    0.0045155    0.0027502
n    -3.5448587    0.4735114   -0.5014495  0.00   -0.0031622   -0.0099610   -0.0068721
h    -3.6908723    1.4832981    1.3875472  0.00    0.0007800   -0.0002161    0.0032182
h    -2.6886833    0.5160273   -1.1154409  0.00    0.0076446    0.0005013   -0.0030169
h    -3.3886711   -0.3408075    0.1441615  0.00    0.0004826   -0.0059911    0.0027533
o    -1.2178801    2.2870518    0.3430193  0.00   -0.0107718   -0.0030280   -0.0111221
o    -2.7595687    3.9947152   -0.3661588  0.00   -0.0283685   -0.0106952   -0.0393549
h    -2.0426204    4.6243825    0.0285334  0.00    0.0139687    0.0257671    0.0266128
    13
 Energy =       0.0417265805
c    -3.6838241    1.7146544    0.2781806  0.00   -0.0099457    0.0073206    0.0057424
c    -2.5374583    2.7286813    0.1418594  0.00    0.0199182   -0.0064243    0.0126090
c    -5.0424556    2.3204004   -0.0986319  0.00    0.0010231    0.0032028   -0.0005649
h    -5.8594728    1.5788809    0.0624764  0.00   -0.0050576   -0.0024609    0.0010447
h    -5.0315985    2.6104560   -1.1748239  0.00    0.0000257    0.0004451   -0.0026823
h    -5.2502456    3.2310570    0.5111463  0.00   -0.0006797    0.0039011    0.0024209
n    -3.4910135    0.4997419   -0.5521521  0.00   -0.0156483   -0.0015434   -0.0094768
h    -3.7039506    1.4461583    1.3639412  0.00    0.0003228   -0.0001186    0.0030306
h    -2.5547601    0.5287317   -1.0534269  0.00    0.0188618    0.0020212   -0.0099875
h    -3.4592298   -0.3493259    0.0779917  0.00   -0.0000921   -0.0139541    0.0117570
o    -1.2432598    2.3733754    0.5017724  0.00    0.0016815   -0.0035955   -0.0051151
o    -2.7909796    4.0189423   -0.3343850  0.00   -0.0225879   -0.0089482   -0.0289620
h    -2.0483385    4.6442325    0.0042299  0.00    0.0121782    0.0201542    0.0201841
    13
 Energy =       0.0395144163
c    -3.7057806    1.7114755    0.2770957  0.00   -0.0056416    0.0041416    0.0028447
c    -2.5588688    2.7294406    0.2195373  0.00    0.0088756   -0.0025339    0.0053414
c    -5.0457822    2.3141285   -0.1620232  0.00   -0.0001547    0.0013985   -0.0001380
h    -5.8628180    1.5644369   -0.0550487  0.00   -0.0039118   -0.0020109    0.0007365
h    -4.9817598    2.6221313   -1.2314605  0.00    0.0000385    0.0004510   -0.0029545
h    -5.2913671    3.2112808    0.4513918  0.00   -0.0004290    0.0025708    0.0019263
n    -3.4671161    0.5134416   -0.5599670  0.00   -0.0092155   -0.0007876   -0.0061758
h    -3.7845485    1.4256448    1.3562971  0.00    0.0000359   -0.0000043    0.0035185
h    -2.5397452    0.5780003   -1.0628196  0.00    0.0108919    0.0006448   -0.0057405
h    -3.4016731   -0.3358829    0.0596816  0.00   -0.0001822   -0.0083049    0.0065030
o    -1.2876692    2.3730627    0.6605255  0.00    0.0051210   -0.0022347   -0.0013135
o    -2.7813964    4.0250500   -0.2473220  0.00   -0.0165076   -0.0079683   -0.0173151
h    -1.9880615    4.6137760    0.0222901  0.00    0.0110796    0.0146379    0.0127671
    13
 Energy =       0.0387172517
c    -3.6717182    1.7107149    0.2738581  0.00   -0.0008602    0.0017745    0.0013137
c    -2.5716804    2.7744378    0.1882659  0.00    0.0043340   -0.0013126    0.0018030
c    -5.0549974    2.2729942   -0.0809424  0.00   -0.0021487    0.0015461    0.0008405
h    -5.8345284    1.4871002    0.0345529  0.00   -0.0028107   -0.0017454    0.0008138
h    -5.0508926    2.6206667   -1.1413354  0.00    0.0002326    0.0011605   -0.0037187
h    -5.3089368    3.1382011    0.5727941  0.00   -0.0010931    0.0022478    0.0014198
n    -3.4274096    0.5514074   -0.6123610  0.00   -0.0160242    0.0101620   -0.0103104
h    -3.6815280    1.3890184    1.3470467  0.00   -0.0003486   -0.0007314    0.0046110
h    -2.4384540    0.5736984   -0.9990995  0.00    0.0189458    0.0029594   -0.0085640
h    -3.5032930   -0.3415677   -0.0435268  0.00   -0.0018151   -0.0196461    0.0144172
o    -1.2868913    2.4752345    0.6327542  0.00    0.0042905   -0.0017471    0.0001357
o    -2.8397484    4.0495850   -0.3073655  0.00   -0.0139310   -0.0059580   -0.0107908
h    -2.0265086    4.6444953   -0.1364630  0.00    0.0112287    0.0112905    0.0080294
    13
 Energy =       0.0377590782
c    -3.6395379    1.7135120    0.2783765  0.00    0.0004391   -0.0003715    0.0002141
c    -2.5856603    2.8173845    0.1468014  0.00    0.0021279   -0.0014448    0.0005869
c    -5.0582616    2.2266580   -0.0051118  0.00   -0.0029436    0.0015936    0.0011681
h    -5.8019738    1.4109773    0.1337573  0.00   -0.0024164   -0.0016613    0.0007357
h    -5.1149620    2.5876968   -1.0596833  0.00    0.0001014    0.0013191   -0.0035916
h    -5.3137956    3.0732266    0.6703447  0.00   -0.0009977    0.0014350    0.0008452
n    -3.3937907    0.5750011   -0.6301479  0.00   -0.0110158    0.0072978   -0.0066793
h    -3.5826976    1.3808463    1.3467328  0.00   -0.0001864   -0.0011687    0.0043760
h    -2.3865024    0.5667810   -0.9545352  0.00    0.0130383    0.0020734   -0.0058937
h    -3.5358138   -0.3265881   -0.0974930  0.00   -0.0010850   -0.0133643    0.0098122
o    -1.2845461    2.5794211    0.5819704  0.00    0.0045371   -0.0015544    0.0009453
o    -2.9051202    4.0649753   -0.3876176  0.00   -0.0110756   -0.0029013   -0.0074078
h    -2.0939247    4.6760942   -0.2952161  0.00    0.0094767    0.0087473    0.0048890
    13
 Energy =       0.0368535668
c    -3.5973830    1.7186274    0.2784895  0.00    0.0017214   -0.0019817   -0.0003862
c    -2.6005563    2.8662657    0.0897147  0.00    0.0008825   -0.0014094   -0.0003529
c    -5.0523618    2.1748297    0.0861137  0.00   -0.0042258    0.0017144    0.0020400
h    -5.7540027    1.3285636    0.2585344  0.00   -0.0026009   -0.0020178    0.0008668
h    -5.1858057    2.5448103   -0.9596839  0.00   -0.0002602    0.0017675   -0.0044965
h    -5.3011698    3.0032250    0.7854633  0.00   -0.0010780    0.0010177    0.0006836
n    -3.3559057    0.6044126   -0.6572724  0.00   -0.0134597    0.0127927   -0.0083955
h    -3.4577151    1.3757032    1.3370035  0.00    0.0003623   -0.0017958    0.0054021
h    -2.3210743    0.5365224   -0.8805309  0.00    0.0178079    0.0016000   -0.0052590
h    -3.6121304   -0.3049996   -0.1784620  0.00   -0.0037445   -0.0171875    0.0111433
o    -1.2782073    2.6983667    0.4959473  0.00    0.0059864   -0.0014354    0.0016868
o    -2.9883125    4.0823560   -0.4731699  0.00   -0.0099314   -0.0005468   -0.0057843
h    -2.1919622    4.7173031   -0.4539692  0.00    0.0085400    0.0074820    0.0028514
    13
 Energy =       0.0357708351
c    -3.5577024    1.7260659    0.2799786  0.00    0.0010872   -0.0016186   -0.0002087
c    -2.6235085    2.9123488    0.0458494  0.00   -0.0004594   -0.0010928   -0.0004734
c    -5.0351609    2.1231629    0.1691598  0.00   -0.0018562    0.0007091    0.0010648
h    -5.6919825    1.2498954    0.3695908  0.00   -0.0010826   -0.0009759    0.0003410
h    -5.2389563    2.4951816   -0.8621143  0.00   -0.0001976    0.0008448   -0.0020054
h    -5.2774139    2.9349034    0.8884809  0.00   -0.0004009    0.0001842    0.0001256
n    -3.3156028    0.6358273   -0.6784223  0.00   -0.0057187    0.0063191   -0.0034931
h    -3.3465989    1.3785269    1.3215926  0.00    0.0002927   -0.0010774    0.0019656
h    -2.2772430    0.5094256   -0.8114587  0.00    0.0077149    0.0008182   -0.0016210
h    -3.6656933   -0.2655810   -0.2638529  0.00   -0.0020600   -0.0071273    0.0047483
o    -1.2881513    2.8169197    0.4269982  0.00    0.0032440   -0.0006892    0.0011072
o    -3.0776166    4.0894620   -0.5449018  0.00   -0.0050013   -0.0000649   -0.0017605
h    -2.3009560    4.7398477   -0.6127224  0.00    0.0044381    0.0037705    0.0002096
    13
 Energy =       0.0354810142
c    -3.5259671    1.7316402    0.2776270  0.00    0.0005227   -0.0004263   -0.0000257
c    -2.6385752    2.9431653    0.0088473  0.00   -0.0000972   -0.0004458   -0.0002247
c    -5.0162715    2.0886654    0.2334812  0.00   -0.0005907    0.0001694    0.0005987
h    -5.6406188    1.2007762    0.4662274  0.00   -0.0004978   -0.0004566    0.0001420
h    -5.2773018    2.4524208   -0.7867943  0.00   -0.0002764    0.0003291   -0.0009409
h    -5.2453749    2.8956964    0.9621472  0.00   -0.0000468   -0.0000030    0.0001065
n    -3.2890519    0.6572091   -0.6981864  0.00   -0.0017273    0.0042699   -0.0021251
h    -3.2607296    1.3839065    1.3052342  0.00    0.0002540   -0.0004484    0.0006862
h    -2.2551590    0.4751582   -0.7645515  0.00    0.0037045   -0.0000092    0.0000611
h    -3.7167599   -0.2326425   -0.3411691  0.00   -0.0020925   -0.0039525    0.0019425
o    -1.2947095    2.9006069    0.3643648  0.00    0.0011634   -0.0001131    0.0003286
o    -3.1444241    4.0910355   -0.5940147  0.00   -0.0007035    0.0007744   -0.0004856
h    -2.3916432    4.7583483   -0.7050350  0.00    0.0003876    0.0003120   -0.0000635
    13
 Energy =       0.0354648317
c    -3.5239609    1.7320879    0.2776230  0.00    0.0000013   -0.0000044    0.0000001
c    -2.6405070    2.9451762    0.0069814  0.00   -0.0000036   -0.0000066    0.0000008
c    -5.0140330    2.0861939    0.2369346  0.00    0.0000001    0.0000025    0.0000029
h    -5.6354108    1.1980286    0.4735988  0.00   -0.0000084   -0.0000079   -0.0000004
h    -5.2784306    2.4466105   -0.7826333  0.00    0.0000002    0.0000058   -0.0000097
h    -5.2426427    2.8947524    0.9639996  0.00    0.0000011    0.0000015    0.0000020
n    -3.2868650    0.6576975   -0.6982674  0.00   -0.0000204    0.0000048   -0.0000150
h    -3.2561880    1.3859953    1.3042950  0.00   -0.0000010   -0.0000031    0.0000040
h    -2.2556872    0.4724923   -0.7635644  0.00    0.0000112    0.0000116   -0.0000039
h    -3.7164428   -0.2295711   -0.3455301  0.00    0.0000083   -0.0000142    0.0000206
o    -1.2972835    2.9076838    0.3628490  0.00    0.0000153   -0.0000065    0.0000040
o    -3.1496781    4.0896221   -0.5980735  0.00   -0.0000128    0.0000106   -0.0000046
h    -2.3994570    4.7592169   -0.7100345  0.00    0.0000088    0.0000058   -0.0000007
    13
 Energy =       0.0354648017
c    -3.5238109    1.7320838    0.2776191  0.00   -0.0000000    0.0000001    0.0000000
c    -2.6405410    2.9453317    0.0072149  0.00   -0.0000005   -0.0000007    0.0000002
c    -5.0139129    2.0861126    0.2372502  0.00   -0.0000000   -0.0000000    0.0000000
h    -5.6351866    1.1979214    0.4740386  0.00   -0.0000000   -0.0000000   -0.0000000
h    -5.2785437    2.4465362   -0.7822474  0.00   -0.0000000    0.0000000   -0.0000000
h    -5.2424267    2.8946338    0.9643838  0.00   -0.0000000    0.0000000   -0.0000000
n    -3.2866897    0.6580598   -0.6986592  0.00   -0.0000004    0.0000015   -0.0000008
h    -3.2558814    1.3856741    1.3041396  0.00    0.0000000   -0.0000000    0.0000001
h    -2.2556100    0.4720429   -0.7630499  0.00    0.0000012    0.0000000    0.0000000
h    -3.7174004   -0.2290610   -0.3469578  0.00   -0.0000008   -0.0000015    0.0000007
o    -1.2977044    2.9086073    0.3645863  0.00    0.0000018   -0.0000005    0.0000006
o    -3.1494775    4.0891207   -0.5992575  0.00   -0.0000013    0.0000010   -0.0000008
h    -2.3994015    4.7589230   -0.7108826  0.00    0.0000002    0.0000000    0.0000000
    13
 Energy =       0.0354648017
c    -3.5238107    1.7320837    0.2776192  0.00   -0.0000000    0.0000000   -0.0000000
c    -2.6405414    2.9453321    0.0072159  0.00   -0.0000000   -0.0000000    0.0000000
c    -5.0139127    2.0861124    0.2372515  0.00   -0.0000000   -0.0000000   -0.0000000
h    -5.6351861    1.1979210    0.4740396  0.00   -0.0000000   -0.0000000   -0.0000000
h    -5.2785442    2.4465368   -0.7822456  0.00    0.0000000   -0.0000000   -0.0000000
h    -5.2424261    2.8946329    0.9643859  0.00   -0.0000000    0.0000000   -0.0000000
n    -3.2866899    0.6580608   -0.6986603  0.00   -0.0000000   -0.0000000   -0.0000000
h    -3.2558807    1.3856729    1.3041392  0.00   -0.0000000    0.0000000    0.0000000
h    -2.2556111    0.4720430   -0.7630516  0.00    0.0000000    0.0000000    0.0000000
h    -3.7174007   -0.2290594   -0.3469609  0.00    0.0000000   -0.0000000    0.0000000
o    -1.2977076    2.9086113    0.3645942  0.00    0.0000000   -0.0000000    0.0000000
o    -3.1494753    4.0891177   -0.5992629  0.00   -0.0000000    0.0000000   -0.0000000
h    -2.3994000    4.7589210   -0.7108861  0.00    0.0000000    0.0000000   -0.0000000
