    13
 Energy =       0.1138671524
c    -3.7133889    1.6950595    0.3173519  0.00   -0.1101923    0.0643661    0.0097031
c    -2.4962693    2.6345192    0.2419999  0.00    0.3657236   -0.0033655    0.1398972
c    -4.9565486    2.3924193   -0.2155699  0.00    0.0523627    0.0310431   -0.0011906
h    -5.8072983    1.7014095   -0.2223689  0.00    0.0123557    0.0083797   -0.0025430
h    -4.8071186    2.7393792   -1.2437896  0.00   -0.0032290   -0.0030584    0.0202663
h    -5.2375685    3.2516891    0.4029209  0.00   -0.0005756   -0.0137205   -0.0107424
n    -3.4097890    0.4519539   -0.4549189  0.00    0.0253940   -0.0691877   -0.0100235
h    -3.8575589    1.4177196    1.3669296  0.00    0.0057029   -0.0117699   -0.0255718
h    -3.2072391   -0.2948399    0.2179739  0.00   -0.0179051    0.0290856   -0.0193366
h    -4.2689788    0.1396900   -0.9176007  0.00    0.0226582    0.0218966    0.0247949
o    -1.4040496    2.4172293    0.7380088  0.00   -0.2620115    0.0448338   -0.1308205
o    -2.7835192    3.7545589   -0.4737969  0.00   -0.0676707   -0.0625558    0.0084504
h    -2.5521993    4.5104687    0.1222010  0.00   -0.0226129   -0.0359469   -0.0028833
    13
 Energy =       0.0939123797
c    -3.6926166    1.6984126    0.3066798  0.00   -0.0712677    0.0414809    0.0051072
c    -2.4872044    2.6341751    0.1756890  0.00    0.2353507    0.0001809    0.0921162
c    -4.9525018    2.3822563   -0.2138575  0.00    0.0433752    0.0164126    0.0005563
h    -5.8363139    1.7225531   -0.0636158  0.00   -0.0013573   -0.0027486    0.0011299
h    -4.8378300    2.5972978   -1.2987236  0.00    0.0020491   -0.0006490    0.0031187
h    -5.1415575    3.3441384    0.3140031  0.00    0.0000013    0.0026878   -0.0006370
n    -3.4288188    0.4326022   -0.4308771  0.00    0.0177448   -0.0450372   -0.0076498
h    -3.8073996    1.4743619    1.3811502  0.00    0.0036363   -0.0074318   -0.0145664
h    -3.2516246   -0.3150815    0.2609201  0.00   -0.0117435    0.0178803   -0.0118390
h    -4.2838532    0.1322164   -0.9276470  0.00    0.0133073    0.0146418    0.0153768
o    -1.3428991    2.3880082    0.6911197  0.00   -0.1688359    0.0285278   -0.0840924
o    -2.7418359    3.7912466   -0.5111734  0.00   -0.0493307   -0.0692890   -0.0272963
h    -2.6970707    4.5290693    0.1956736  0.00   -0.0129296    0.0033435    0.0286758
    13
 Energy =       0.0879486236
c    -3.7079312    1.7071031    0.3201036  0.00   -0.0637693    0.0378518    0.0046053
c    -2.5047880    2.6402820    0.1678311  0.00    0.2100188    0.0002570    0.0831967
c    -4.9679597    2.3718005   -0.2285109  0.00    0.0388133    0.0147205    0.0004706
h    -5.8514177    1.7152853   -0.0646134  0.00   -0.0012582   -0.0025653    0.0010388
h    -4.8465310    2.5576125   -1.3185519  0.00    0.0018439   -0.0004684    0.0023655
h    -5.1590651    3.3493438    0.2702997  0.00    0.0000561    0.0029631   -0.0003507
n    -3.4402363    0.4182793   -0.3744112  0.00    0.0163251   -0.0407292   -0.0082574
h    -3.8290672    1.5216492    1.4027995  0.00    0.0031956   -0.0066955   -0.0122818
h    -3.2832751   -0.3108281    0.3449265  0.00   -0.0102837    0.0151443   -0.0096837
h    -4.2839997    0.1072146   -0.8868408  0.00    0.0115836    0.0130232    0.0135537
o    -1.3418915    2.3842095    0.6669628  0.00   -0.1506648    0.0256126   -0.0754106
o    -2.7470460    3.7901188   -0.5400547  0.00   -0.0491382   -0.0799423   -0.0408219
h    -2.5383176    4.5591859    0.1194007  0.00   -0.0067224    0.0208283    0.0415755
    13
 Energy =       0.0822942589
c    -3.7206068    1.7285148    0.3405545  0.00   -0.0533956    0.0344139    0.0043861
c    -2.5124152    2.6460854    0.1440761  0.00    0.1734486    0.0004666    0.0699602
c    -4.9760945    2.3610156   -0.2629044  0.00    0.0318338    0.0123971    0.0004566
h    -5.8609521    1.7122431   -0.0783415  0.00   -0.0011608   -0.0023985    0.0009757
h    -4.8381684    2.4918816   -1.3606686  0.00    0.0016322   -0.0001073    0.0003658
h    -5.1743635    3.3640240    0.1827161  0.00   -0.0002752    0.0040242    0.0003386
n    -3.4536731    0.3947342   -0.2671864  0.00    0.0150937   -0.0359545   -0.0122702
h    -3.8546928    1.6189420    1.4359446  0.00    0.0023284   -0.0055981   -0.0072904
h    -3.3372997   -0.2953414    0.5036796  0.00   -0.0078595    0.0093708   -0.0044344
h    -4.2786346    0.0643881   -0.8026397  0.00    0.0088039    0.0105249    0.0106708
o    -1.3278869    2.3722070    0.6272864  0.00   -0.1243962    0.0211731   -0.0631507
o    -2.7313798    3.7849530   -0.5954308  0.00   -0.0422047   -0.0720777   -0.0395056
h    -2.4353586    4.5676091    0.0122551  0.00   -0.0038485    0.0237656    0.0394974
    13
 Energy =       0.0803667231
c    -3.7106051    1.7067800    0.3234641  0.00   -0.0503267    0.0357591    0.0051287
c    -2.5136517    2.6426364    0.1502466  0.00    0.1660580    0.0002880    0.0670033
c    -4.9893095    2.3718424   -0.1982779  0.00    0.0286390    0.0123336    0.0009951
h    -5.8668700    1.7125414   -0.0162777  0.00   -0.0012300   -0.0023178    0.0011130
h    -4.8922215    2.5632307   -1.2938862  0.00    0.0016151    0.0003954   -0.0021967
h    -5.1707852    3.3505605    0.3088920  0.00   -0.0009253    0.0057887    0.0012902
n    -3.4570307    0.4129437   -0.3758220  0.00    0.0159400   -0.0360350   -0.0173041
h    -3.8094574    1.5258708    1.4167816  0.00    0.0019914   -0.0056460   -0.0038117
h    -3.3050975   -0.3271068    0.3449265  0.00   -0.0065568    0.0052635   -0.0008084
h    -4.2986676    0.1123901   -0.9050568  0.00    0.0077917    0.0093793    0.0094267
o    -1.3252053    2.3699868    0.6343380  0.00   -0.1189588    0.0202924   -0.0603780
o    -2.7426080    3.7996733   -0.5593698  0.00   -0.0405996   -0.0686795   -0.0387309
h    -2.4200168    4.5699071    0.0493828  0.00   -0.0034381    0.0231783    0.0382729
    13
 Energy =       0.0731643663
c    -3.7039000    1.6912894    0.3111761  0.00   -0.0341532    0.0281316    0.0043931
c    -2.5169053    2.6339223    0.1267019  0.00    0.1208355    0.0008170    0.0498404
c    -5.0175001    2.3814164   -0.0976295  0.00    0.0176403    0.0100613    0.0020125
h    -5.8841778    1.7147476    0.1065737  0.00   -0.0014572   -0.0015615    0.0010742
h    -4.9883047    2.6282429   -1.1886921  0.00    0.0010618    0.0010171   -0.0052562
h    -5.1631744    3.3349036    0.4676451  0.00   -0.0014614    0.0063299    0.0022609
n    -3.4946772    0.4358474   -0.4653654  0.00    0.0137961   -0.0274174   -0.0170625
h    -3.7408891    1.4564295    1.4023638  0.00    0.0014901   -0.0043366    0.0007239
h    -3.3238652   -0.3515668    0.2037288  0.00   -0.0039648    0.0005320    0.0019833
h    -4.3513476    0.1762562   -0.9987758  0.00    0.0046948    0.0057721    0.0055380
o    -1.3011340    2.3387054    0.5893801  0.00   -0.0858053    0.0140880   -0.0442901
o    -2.7397457    3.8098553   -0.5611512  0.00   -0.0381060   -0.0639059   -0.0403426
h    -2.2759051    4.5612071   -0.0166145  0.00    0.0054293    0.0304723    0.0391250
    13
 Energy =       0.0682506309
c    -3.6992599    1.6874725    0.3103375  0.00   -0.0209924    0.0202477    0.0041616
c    -2.5026539    2.6051628    0.0707676  0.00    0.0782050    0.0015522    0.0341709
c    -5.0301699    2.4106697    0.0114609  0.00    0.0082366    0.0068753    0.0021805
h    -5.8943312    1.7534969    0.2539226  0.00   -0.0019882   -0.0010199    0.0008322
h    -5.0700469    2.6899982   -1.0722080  0.00    0.0003451    0.0010274   -0.0063409
h    -5.1181729    3.3485882    0.6133357  0.00   -0.0014811    0.0060139    0.0029755
n    -3.5739927    0.4476133   -0.5039142  0.00    0.0121745   -0.0200918   -0.0138132
h    -3.6670868    1.4325427    1.3993028  0.00    0.0012181   -0.0023862    0.0033411
h    -3.4163202   -0.3695797    0.1333974  0.00   -0.0022838   -0.0012729    0.0020597
h    -4.4516462    0.2417873   -1.0334649  0.00    0.0009356    0.0028341    0.0019258
o    -1.2587329    2.2670086    0.4885524  0.00   -0.0534501    0.0082610   -0.0298018
o    -2.7019607    3.7853759   -0.6242055  0.00   -0.0331403   -0.0550904   -0.0366214
h    -2.1171520    4.5111198   -0.1679432  0.00    0.0122209    0.0330496    0.0349300
    13
 Energy =       0.0679980557
c    -3.6974770    1.6921689    0.3190150  0.00   -0.0195177    0.0195357    0.0062136
c    -2.4781671    2.5603273    0.0053565  0.00    0.0709372    0.0002648    0.0316989
c    -5.0171802    2.4616448    0.0831168  0.00    0.0058125    0.0059523    0.0018588
h    -5.8926103    1.8355968    0.3691032  0.00   -0.0032123   -0.0014303    0.0009886
h    -5.0995285    2.7382720   -0.9991973  0.00    0.0001586    0.0008435   -0.0067175
h    -5.0429046    3.4040276    0.6857259  0.00   -0.0014726    0.0069096    0.0039066
n    -3.6612684    0.4399186   -0.4873421  0.00    0.0135527   -0.0212028   -0.0142683
h    -3.6176700    1.4481909    1.4088761  0.00    0.0010924   -0.0015904    0.0044239
h    -3.5104046   -0.3784735    0.1499616  0.00   -0.0021361   -0.0014120    0.0017553
h    -4.5696867    0.2665579   -0.9789635  0.00   -0.0014672    0.0016171    0.0002838
o    -1.2286289    2.1883782    0.3905286  0.00   -0.0465712    0.0078763   -0.0271860
o    -2.6511266    3.7159778   -0.7401434  0.00   -0.0293109   -0.0491389   -0.0353821
h    -2.0348732    4.4386691   -0.3266964  0.00    0.0121346    0.0317750    0.0324244
    13
 Energy =       0.0665382922
c    -3.7022736    1.6836910    0.3053023  0.00   -0.0182789    0.0176840    0.0073554
c    -2.4933851    2.5915264    0.0607934  0.00    0.0666129   -0.0036224    0.0316062
c    -5.0343264    2.4227761    0.0420903  0.00    0.0048130    0.0051675    0.0018010
h    -5.9024325    1.7689890    0.2885399  0.00   -0.0039240   -0.0018510    0.0011530
h    -5.0893679    2.7203532   -1.0361809  0.00    0.0002022    0.0007778   -0.0067657
h    -5.1018898    3.3523285    0.6621146  0.00   -0.0014006    0.0071603    0.0042358
n    -3.6072786    0.4521290   -0.5289926  0.00    0.0146524   -0.0203801   -0.0139602
h    -3.6552233    1.4156179    1.3917296  0.00    0.0008562   -0.0012780    0.0049336
h    -3.4761321   -0.3794432    0.0959303  0.00   -0.0019634   -0.0017039    0.0020941
h    -4.4866396    0.2766779   -1.0734827  0.00   -0.0036285    0.0004700   -0.0014203
o    -1.2400042    2.2096039    0.4337249  0.00   -0.0424552    0.0068657   -0.0247390
o    -2.6779285    3.8039303   -0.5942849  0.00   -0.0276268   -0.0393020   -0.0368472
h    -2.0346446    4.4930764   -0.1679432  0.00    0.0121408    0.0300122    0.0305531
    13
 Energy =       0.0654329241
c    -3.7226862    1.6766731    0.2936542  0.00   -0.0160761    0.0138451    0.0066064
c    -2.4855593    2.5641312    0.1140442  0.00    0.0565750   -0.0058883    0.0296790
c    -5.0328875    2.4448173    0.0041772  0.00    0.0038015    0.0045092    0.0018741
h    -5.9192848    1.7999376    0.2073656  0.00   -0.0042531   -0.0022453    0.0011744
h    -5.0484268    2.7709395   -1.0670874  0.00    0.0000219    0.0010417   -0.0069545
h    -5.1036918    3.3596457    0.6441447  0.00   -0.0010847    0.0064344    0.0038514
n    -3.6258173    0.4624703   -0.5628665  0.00    0.0175426   -0.0129085   -0.0121483
h    -3.7162131    1.3838459    1.3749858  0.00    0.0008488   -0.0014355    0.0053127
h    -3.5740886   -0.3906246    0.0498806  0.00   -0.0013306   -0.0057906    0.0053506
h    -4.4725079    0.3390946   -1.1763944  0.00   -0.0086334   -0.0003978   -0.0052418
o    -1.2405666    2.1018680    0.4481949  0.00   -0.0326232    0.0024187   -0.0199370
o    -2.6297395    3.8356318   -0.4415678  0.00   -0.0289944   -0.0289571   -0.0386564
h    -1.9300567    4.4628260   -0.0091901  0.00    0.0142056    0.0293740    0.0290893
    13
 Energy =       0.0647800106
c    -3.7118394    1.6775767    0.2854934  0.00   -0.0138639    0.0113117    0.0056115
c    -2.5016335    2.5986573    0.0885508  0.00    0.0433640   -0.0070068    0.0274508
c    -5.0474745    2.4098560    0.0192040  0.00    0.0027123    0.0042057    0.0016252
h    -5.9132545    1.7406664    0.2314299  0.00   -0.0040515   -0.0022150    0.0011277
h    -5.0866403    2.7422435   -1.0486695  0.00    0.0000465    0.0010464   -0.0062073
h    -5.1336574    3.3184235    0.6648615  0.00   -0.0009714    0.0056780    0.0033103
n    -3.5992843    0.4702023   -0.5760869  0.00    0.0174016   -0.0078214   -0.0113067
h    -3.6812175    1.3816833    1.3649562  0.00    0.0007391   -0.0013807    0.0048167
h    -3.4743524   -0.3810325    0.0318638  0.00   -0.0006401   -0.0084038    0.0070998
h    -4.4682670    0.3056291   -1.1491343  0.00   -0.0100205   -0.0004308   -0.0061263
o    -1.2203781    2.1268865    0.2894418  0.00   -0.0174669   -0.0044111   -0.0150446
o    -2.7023878    3.9103678   -0.3589634  0.00   -0.0318591   -0.0164241   -0.0394191
h    -1.9611395    4.5100963    0.0363938  0.00    0.0146101    0.0258519    0.0270619
    13
 Energy =       0.0623444571
c    -3.6978163    1.6699873    0.2853882  0.00   -0.0119603    0.0090155    0.0056120
c    -2.5188221    2.6337523    0.1157225  0.00    0.0250076   -0.0030851    0.0186018
c    -5.0578839    2.3612361    0.0360442  0.00    0.0020068    0.0044830    0.0016505
h    -5.8992818    1.6557209    0.2288624  0.00   -0.0041158   -0.0024606    0.0012664
h    -5.1079131    2.7224062   -1.0212738  0.00    0.0002048    0.0010970   -0.0055045
h    -5.1750467    3.2487525    0.7051489  0.00   -0.0009878    0.0054153    0.0031233
n    -3.5438355    0.4838079   -0.5970519  0.00    0.0233925   -0.0001296   -0.0083885
h    -3.6580450    1.3539432    1.3584189  0.00    0.0004481   -0.0012227    0.0041710
h    -3.5154791   -0.3889626   -0.0014318  0.00   -0.0000270   -0.0126748    0.0112524
h    -4.3560827    0.3703607   -1.2685616  0.00   -0.0173267   -0.0024093   -0.0131275
o    -1.2299210    2.2352978    0.4481949  0.00   -0.0014169   -0.0077786   -0.0082861
o    -2.7443767    3.9244080   -0.3791816  0.00   -0.0285363   -0.0123581   -0.0328826
h    -1.9970222    4.5405461   -0.0309383  0.00    0.0133110    0.0221080    0.0225117
    13
 Energy =       0.0597527435
c    -3.6728627    1.6667430    0.2912924  0.00   -0.0067993    0.0042494    0.0033189
c    -2.5375598    2.6746240    0.0986491  0.00    0.0130987   -0.0019360    0.0099106
c    -5.0681544    2.3051989    0.1019866  0.00   -0.0000911    0.0041754    0.0019914
h    -5.8721113    1.5582760    0.2968379  0.00   -0.0036827   -0.0024399    0.0013527
h    -5.1655331    2.6976111   -0.9403328  0.00    0.0001804    0.0014998   -0.0049271
h    -5.2018031    3.1655661    0.8004315  0.00   -0.0010899    0.0042181    0.0023010
n    -3.5069105    0.4999572   -0.6081508  0.00    0.0202075    0.0044358   -0.0045764
h    -3.5827501    1.3374049    1.3572029  0.00    0.0002677   -0.0013016    0.0038971
h    -3.5558807   -0.3876321   -0.0372931  0.00    0.0001880   -0.0122183    0.0103770
h    -4.2701243    0.4394690   -1.3403147  0.00   -0.0158489   -0.0029073   -0.0130926
o    -1.2399549    2.3505890    0.4875754  0.00    0.0038212   -0.0066135   -0.0034160
o    -2.8020575    3.9393318   -0.4388519  0.00   -0.0246640   -0.0100067   -0.0238782
h    -2.0258238    4.5641174   -0.1896915  0.00    0.0144123    0.0188448    0.0167416
    13
 Energy =       0.0590643963
c    -3.6378045    1.6680355    0.3032798  0.00   -0.0066570    0.0027013    0.0020743
c    -2.5404676    2.7013861    0.0263655  0.00    0.0126991   -0.0024682    0.0090126
c    -5.0623030    2.2642097    0.1932493  0.00   -0.0021924    0.0043032    0.0031755
h    -5.8328074    1.4915706    0.4260761  0.00   -0.0046602   -0.0032144    0.0017289
h    -5.2287349    2.6600926   -0.8409660  0.00   -0.0002922    0.0023658   -0.0067541
h    -5.1835742    3.1164899    0.9034122  0.00   -0.0012562    0.0040603    0.0023646
n    -3.4997791    0.4913447   -0.5858886  0.00    0.0258369    0.0108231   -0.0045346
h    -3.4699475    1.3551520    1.3674092  0.00    0.0008695   -0.0016508    0.0067717
h    -3.6597928   -0.3931130   -0.0210602  0.00   -0.0013055   -0.0198938    0.0148199
h    -4.2152978    0.4973766   -1.3720849  0.00   -0.0199780   -0.0020899   -0.0180328
o    -1.2182726    2.4294680    0.3760759  0.00    0.0065948   -0.0065623   -0.0024929
o    -2.8606548    3.9385252   -0.5480829  0.00   -0.0251457   -0.0077988   -0.0243523
h    -2.0920901    4.5907185   -0.3484446  0.00    0.0154869    0.0194245    0.0162192
    13
 Energy =       0.0567235316
c    -3.6151348    1.6671936    0.3125374  0.00   -0.0037469    0.0007779    0.0008383
c    -2.5581388    2.7307274    0.0073532  0.00    0.0068381   -0.0027688    0.0051686
c    -5.0578331    2.2212211    0.2600867  0.00   -0.0024293    0.0031647    0.0028041
h    -5.7960057    1.4213014    0.4992336  0.00   -0.0034601   -0.0025103    0.0013832
h    -5.2703709    2.6334020   -0.7576582  0.00   -0.0003259    0.0020669   -0.0052468
h    -5.1809866    3.0526698    0.9921408  0.00   -0.0010771    0.0028653    0.0016438
n    -3.4810428    0.5050900   -0.5900705  0.00    0.0204540    0.0105055   -0.0020255
h    -3.4001817    1.3464658    1.3643277  0.00    0.0007049   -0.0013679    0.0052810
h    -3.7158173   -0.3785208   -0.0560462  0.00   -0.0014081   -0.0163296    0.0119808
h    -4.1460833    0.5655723   -1.4133920  0.00   -0.0157217   -0.0015240   -0.0150899
o    -1.2316164    2.5231776    0.3850142  0.00    0.0068138   -0.0051636   -0.0005550
o    -2.9129501    3.9322373   -0.6169879  0.00   -0.0206430   -0.0059551   -0.0172834
h    -2.1353647    4.5907189   -0.5071977  0.00    0.0140014    0.0162388    0.0111009
    13
 Energy =       0.0548503959
c    -3.5906353    1.6655154    0.3221328  0.00   -0.0020584   -0.0001895   -0.0000279
c    -2.5742868    2.7565246   -0.0157993  0.00    0.0036426   -0.0037211    0.0033789
c    -5.0468952    2.1822400    0.3345919  0.00   -0.0027380    0.0022453    0.0028183
h    -5.7542200    1.3597050    0.5861018  0.00   -0.0027002   -0.0020654    0.0011509
h    -5.3103574    2.6061567   -0.6656032  0.00   -0.0005235    0.0019715   -0.0045341
h    -5.1626744    2.9955572    1.0866098  0.00   -0.0009676    0.0020699    0.0012538
n    -3.4700954    0.5183952   -0.5968021  0.00    0.0182244    0.0107042   -0.0001483
h    -3.3243227    1.3355845    1.3585437  0.00    0.0007656   -0.0012721    0.0046690
h    -3.7849621   -0.3599122   -0.0983961  0.00   -0.0023295   -0.0151794    0.0105876
h    -4.0834352    0.6403106   -1.4511550  0.00   -0.0132418   -0.0005852   -0.0140524
o    -1.2450796    2.6160081    0.3837898  0.00    0.0071472   -0.0043248    0.0007249
o    -2.9644558    3.9141157   -0.6987221  0.00   -0.0172465   -0.0032372   -0.0131255
h    -2.1901062    4.5810555   -0.6659508  0.00    0.0120257    0.0135838    0.0073048
    13
 Energy =       0.0531967408
c    -3.5668713    1.6622533    0.3302496  0.00   -0.0008446   -0.0003410   -0.0005620
c    -2.5914174    2.7797768   -0.0343779  0.00    0.0010074   -0.0046130    0.0023392
c    -5.0306474    2.1468593    0.4125905  0.00   -0.0026966    0.0013430    0.0026725
h    -5.7089694    1.3056864    0.6780210  0.00   -0.0019352   -0.0015272    0.0008765
h    -5.3463327    2.5810638   -0.5671314  0.00   -0.0007107    0.0017478   -0.0037743
h    -5.1315139    2.9425844    1.1843133  0.00   -0.0008152    0.0014034    0.0009890
n    -3.4665466    0.5357013   -0.6128372  0.00    0.0153350    0.0093057    0.0010894
h    -3.2495694    1.3168061    1.3462807  0.00    0.0007901   -0.0011842    0.0039977
h    -3.8558893   -0.3341648   -0.1575799  0.00   -0.0030223   -0.0130063    0.0084789
h    -4.0298356    0.7224301   -1.4874590  0.00   -0.0102100    0.0003295   -0.0120911
o    -1.2658632    2.7131948    0.3965567  0.00    0.0076497   -0.0036184    0.0019105
o    -3.0120796    3.8834769   -0.7845814  0.00   -0.0138616   -0.0004328   -0.0097924
h    -2.2459904    4.5555881   -0.8247039  0.00    0.0093140    0.0105937    0.0038662
    13
 Energy =       0.0518603384
c    -3.5427856    1.6558544    0.3345911  0.00    0.0001178    0.0003969   -0.0007718
c    -2.6089059    2.7991740   -0.0523955  0.00   -0.0011493   -0.0048866    0.0016694
c    -5.0065993    2.1151004    0.5006899  0.00   -0.0025457    0.0005305    0.0024279
h    -5.6573116    1.2592357    0.7839065  0.00   -0.0012550   -0.0009045    0.0006017
h    -5.3801347    2.5606619   -0.4526061  0.00   -0.0009324    0.0014623   -0.0031147
h    -5.0797735    2.8926350    1.2933093  0.00   -0.0006474    0.0009545    0.0009580
n    -3.4766426    0.5581224   -0.6431830  0.00    0.0121397    0.0064275    0.0015906
h    -3.1698936    1.2856779    1.3220338  0.00    0.0008824   -0.0011590    0.0035206
h    -3.9392110   -0.2988717   -0.2396143  0.00   -0.0034104   -0.0102627    0.0058267
h    -3.9912262    0.8184974   -1.5266131  0.00   -0.0070114    0.0012547   -0.0095777
o    -1.2955856    2.8162574    0.4198049  0.00    0.0080915   -0.0028025    0.0029511
o    -3.0536773    3.8374315   -0.8771252  0.00   -0.0100315    0.0021339   -0.0071447
h    -2.2997791    4.5114801   -0.9834570  0.00    0.0057516    0.0068551    0.0010628
    13
 Energy =       0.0509769534
c    -3.5181887    1.6441334    0.3308418  0.00    0.0012204    0.0020968   -0.0003850
c    -2.6251133    2.8107647   -0.0764984  0.00   -0.0029541   -0.0037541    0.0007498
c    -4.9692442    2.0890153    0.6061557  0.00   -0.0024723   -0.0000820    0.0019443
h    -5.5939966    1.2235682    0.9143501  0.00   -0.0007673   -0.0002057    0.0003780
h    -5.4106770    2.5500544   -0.3094716  0.00   -0.0011794    0.0010998   -0.0025359
h    -4.9927596    2.8467439    1.4210513  0.00   -0.0004277    0.0008936    0.0013409
n    -3.5130697    0.5864220   -0.6929533  0.00    0.0077551    0.0014388    0.0005836
h    -3.0800948    1.2368308    1.2756051  0.00    0.0011644   -0.0011555    0.0032492
h    -4.0504372   -0.2481872   -0.3466124  0.00   -0.0028491   -0.0064081    0.0023367
h    -3.9827585    0.9319801   -1.5693715  0.00   -0.0035448    0.0019130   -0.0059282
o    -1.3386779    2.9262933    0.4524176  0.00    0.0079634   -0.0016326    0.0036553
o    -3.0823736    3.7690700   -0.9839630  0.00   -0.0052621    0.0038091   -0.0049048
h    -2.3441351    4.4445675   -1.1422102  0.00    0.0013535    0.0019868   -0.0004839
    13
 Energy =       0.0506432995
c    -3.5051466    1.6307132    0.3159155  0.00    0.0009286    0.0012121    0.0005086
c    -2.6305779    2.8061273   -0.1021341  0.00   -0.0024584   -0.0001778   -0.0007615
c    -4.9303555    2.0804616    0.6848846  0.00   -0.0008247   -0.0001323    0.0000436
h    -5.5422445    1.2137676    1.0124920  0.00   -0.0000848    0.0001193   -0.0000027
h    -5.4206032    2.5610006   -0.1923698  0.00   -0.0002733    0.0001294   -0.0005018
h    -4.8986277    2.8209640    1.5145153  0.00   -0.0000677    0.0005561    0.0007149
n    -3.5703909    0.6085838   -0.7406363  0.00   -0.0005262   -0.0019204   -0.0012705
h    -3.0197597    1.1880930    1.2175633  0.00    0.0003642   -0.0001173    0.0007537
h    -4.1523333   -0.2004277   -0.4213379  0.00    0.0004816    0.0005444   -0.0006995
h    -4.0243411    1.0107090   -1.5959432  0.00    0.0002447   -0.0002030    0.0003215
o    -1.3875918    3.0049496    0.4952207  0.00    0.0038482   -0.0003054    0.0019097
o    -3.0716882    3.6990125   -1.0755938  0.00   -0.0013277    0.0011012   -0.0013096
h    -2.3478658    4.3873018   -1.2332352  0.00   -0.0003044   -0.0008063    0.0002935
    13
 Energy =       0.0505985829
c    -3.5027561    1.6251105    0.3053657  0.00    0.0008727    0.0004456    0.0008443
c    -2.6223266    2.7888307   -0.1338040  0.00    0.0001822   -0.0002995    0.0002923
c    -4.9043904    2.0981454    0.7306229  0.00   -0.0008314   -0.0002251    0.0001827
h    -5.5207422    1.2395772    1.0717020  0.00   -0.0001791   -0.0000648    0.0000302
h    -5.4170408    2.5971751   -0.1231877  0.00   -0.0003820    0.0001977   -0.0004193
h    -4.8277926    2.8285231    1.5662804  0.00   -0.0000059    0.0005292    0.0006744
n    -3.6263532    0.6141604   -0.7563897  0.00    0.0008937   -0.0009573   -0.0006002
h    -2.9930077    1.1647834    1.1841564  0.00    0.0003512   -0.0000507    0.0004600
h    -4.2100822   -0.1876126   -0.4198612  0.00   -0.0003025   -0.0003581    0.0001688
h    -4.1065361    1.0314707   -1.5911142  0.00   -0.0006294    0.0002369   -0.0010606
o    -1.4010138    3.0193188    0.4914793  0.00    0.0004924   -0.0003144    0.0004630
o    -3.0453961    3.6503263   -1.1427919  0.00   -0.0005431    0.0006733   -0.0009344
h    -2.3240886    4.3414474   -1.3031168  0.00    0.0000812    0.0001873   -0.0001010
    13
 Energy =       0.0505931800
c    -3.5021780    1.6243337    0.3039746  0.00   -0.0000034    0.0000053   -0.0000051
c    -2.6240827    2.7900844   -0.1337060  0.00   -0.0000983   -0.0000364   -0.0000396
c    -4.9017795    2.0952980    0.7338833  0.00   -0.0000042    0.0000028    0.0000041
h    -5.5164176    1.2356780    1.0749823  0.00   -0.0000015   -0.0000007    0.0000013
h    -5.4165995    2.5959040   -0.1170061  0.00   -0.0000017    0.0000027   -0.0000075
h    -4.8231072    2.8234017    1.5703050  0.00   -0.0000024    0.0000038    0.0000026
n    -3.6280716    0.6170035   -0.7596673  0.00    0.0000158   -0.0000074    0.0000009
h    -2.9904356    1.1613398    1.1795770  0.00    0.0000008   -0.0000055    0.0000099
h    -4.2129735   -0.1846594   -0.4257827  0.00   -0.0000026   -0.0000059    0.0000028
h    -4.1067867    1.0378978   -1.5925827  0.00   -0.0000061    0.0000030   -0.0000118
o    -1.4104755    3.0321923    0.5016319  0.00    0.0001631    0.0000083    0.0000927
o    -3.0436194    3.6441741   -1.1494299  0.00   -0.0000809    0.0000183   -0.0000534
h    -2.3249994    4.3386085   -1.3068384  0.00    0.0000214    0.0000119    0.0000029
    13
 Energy =       0.0505931330
c    -3.5021498    1.6242775    0.3038692  0.00   -0.0000000    0.0000001    0.0000000
c    -2.6241969    2.7901978   -0.1336305  0.00   -0.0000032   -0.0000016   -0.0000005
c    -4.9016058    2.0951295    0.7343157  0.00   -0.0000000    0.0000000    0.0000000
h    -5.5161616    1.2354076    1.0753027  0.00   -0.0000000   -0.0000000   -0.0000000
h    -5.4166588    2.5960125   -0.1162592  0.00   -0.0000000    0.0000000   -0.0000002
h    -4.8226721    2.8229308    1.5709738  0.00   -0.0000001    0.0000001    0.0000000
n    -3.6283603    0.6173108   -0.7600756  0.00    0.0000002   -0.0000001   -0.0000000
h    -2.9901656    1.1609699    1.1791525  0.00   -0.0000000   -0.0000001    0.0000002
h    -4.2134009   -0.1843372   -0.4264128  0.00    0.0000000   -0.0000001    0.0000000
h    -4.1070482    1.0385843   -1.5928080  0.00   -0.0000000    0.0000001   -0.0000001
o    -1.4122065    3.0342590    0.5038222  0.00    0.0000060   -0.0000001    0.0000037
o    -3.0425816    3.6428052   -1.1510189  0.00   -0.0000034    0.0000014   -0.0000032
h    -2.3243179    4.3377087   -1.3078902  0.00    0.0000006    0.0000002    0.0000001
    13
 Energy =       0.0505931330
c    -3.5021487    1.6242753    0.3038651  0.00   -0.0000000    0.0000000    0.0000000
c    -2.6242001    2.7902007   -0.1336290  0.00   -0.0000000   -0.0000000   -0.0000000
c    -4.9015998    2.0951245    0.7343295  0.00   -0.0000000    0.0000000    0.0000000
h    -5.5161530    1.2353998    1.0753144  0.00   -0.0000000   -0.0000000   -0.0000000
h    -5.4166607    2.5960158   -0.1162355  0.00   -0.0000000    0.0000000   -0.0000000
h    -4.8226570    2.8229169    1.5709944  0.00   -0.0000000    0.0000000    0.0000000
n    -3.6283702    0.6173200   -0.7600893  0.00    0.0000000   -0.0000000   -0.0000000
h    -2.9901567    1.1609574    1.1791382  0.00   -0.0000000   -0.0000000    0.0000000
h    -4.2134146   -0.1843277   -0.4264327  0.00    0.0000000   -0.0000000    0.0000000
h    -4.1070588    1.0386053   -1.5928154  0.00    0.0000000    0.0000000   -0.0000000
o    -1.4122626    3.0343255    0.5038914  0.00    0.0000000   -0.0000000    0.0000000
o    -3.0425478    3.6427615   -1.1510686  0.00   -0.0000000    0.0000000   -0.0000000
h    -2.3242963    4.3376813   -1.3079214  0.00    0.0000000    0.0000000    0.0000000
