    27
 Energy =       3.5406857624
c    -1.4235396    2.6054793   -0.0667700  0.00   -0.0461014    0.0385096    0.0023107
c    -1.3072796    1.2134697   -0.1072300  0.00   -0.0853732   -0.0325518    0.0017822
c    -0.0178900    0.6711998   -0.1697000  0.00   -0.0892371   -0.1880992   -0.0000743
c    -0.2940599    3.4190890   -0.0891300  0.00   -0.0203151    0.0692154    0.0015861
c     0.9872197    2.8590292   -0.1560400  0.00    1.5835481   -0.0007492   -0.5138287
c     1.1340797    1.4562096   -0.1970299  0.00    0.4121643    0.2953917   -0.0670403
n     0.3879399   -0.6395298   -0.2140799  0.00    0.1444250    0.1099876   -0.0053868
c     2.2666594    0.5727398   -0.2659299  0.00    0.2212739    0.1949458   -0.0251311
c     1.7555995   -0.7123598   -0.2706899  0.00   -0.1001597   -0.0971882    0.0041349
h    -0.2400399   -1.4313496   -0.2047299  0.00    0.0363247    0.0475231    0.0000609
c     3.7030089    1.0223397   -0.3320099  0.00   -0.8429840    1.3908085   -0.1411325
c     4.2197688    1.4064496   -1.7267995  0.00   -0.0054941    0.0136713    0.1959049
h     4.3261788    0.2093419    0.0639454  0.00   -0.0094358    0.0117122   -0.0006646
h     3.8370289    1.8640295    0.3610799  0.00   -0.9381838    0.5661787   -0.7360811
c     3.6319390    2.7753292   -2.1168494  0.00    0.0178399    0.1902905   -0.3200582
n     3.8331589    0.4251339   -2.8019292  0.00   -0.0149212    0.0001219   -0.1154562
h     5.3112285    1.5100896   -1.7329195  0.00   -0.0191571   -0.0120929   -0.0178358
h     3.2153791    0.9204687   -3.4531490  0.00    0.0366752    0.0188889    0.0449963
h     4.6719087    0.2293189   -3.3596190  0.00   -0.0262070    0.0141110    0.0215329
h    -2.4108593    3.0588691   -0.0157800  0.00   -0.0009644    0.0002113    0.0003283
h    -2.1896094    0.5822398   -0.0890100  0.00   -0.0036419    0.0036968    0.0002741
h    -0.4052699    4.5000487   -0.0535400  0.00    0.0001684   -0.0000163    0.0013569
h     1.8590495    3.5066790   -0.1715100  0.00   14.2822816   -6.9610955  -13.5308913
h     2.2327294   -1.6813195   -0.3062999  0.00   -0.0413440   -0.0122236    0.0036917
o     3.8981789    3.3994790   -3.1304891  0.00   -0.0650964   -0.1500205    0.2410439
o     2.7558992    3.2202791   -1.1760297  0.00  -11.7173674    3.2872210   12.8993056
h     2.7624492    2.5232393   -0.4698389  0.00   -2.7087173    1.2015520    2.0552715
    27
 Energy =       3.3950152702
c    -1.4376515    2.6122731   -0.0107884  0.00   -0.0437256    0.0365208    0.0021594
c    -1.3297171    1.2199742   -0.0627800  0.00   -0.0808376   -0.0308226    0.0017006
c    -0.0487314    0.6666445   -0.1373848  0.00   -0.0850285   -0.1760572    0.0002640
c    -0.3076446    3.4249502   -0.0426280  0.00   -0.0194002    0.0654280    0.0015412
c     0.9694219    2.8650589   -0.1284129  0.00    1.4970410    0.0019832   -0.4862656
c     1.1007415    1.4406674   -0.1731982  0.00    0.3895374    0.2805545   -0.0629710
n     0.3441425   -0.6506908   -0.2350497  0.00    0.1365941    0.1029017   -0.0051669
c     2.2404775    0.5415655   -0.2989843  0.00    0.2104060    0.1842368   -0.0251090
c     1.7165637   -0.7351562   -0.3258081  0.00   -0.0940945   -0.0922419    0.0036849
h    -0.2938606   -1.4371297   -0.2335184  0.00    0.0342438    0.0448168    0.0000613
c     3.7140087    1.0009108   -0.3598609  0.00   -0.7912275    1.3083803   -0.1341337
c     4.2591873    1.4339080   -1.7298339  0.00   -0.0048454    0.0152748    0.1862810
h     4.3360110    0.1807380    0.0246355  0.00   -0.0089859    0.0109462   -0.0005894
h     3.7996451    1.8289500    0.3810394  0.00   -0.8885261    0.5370758   -0.6942713
c     3.6345120    2.7801321   -2.1289565  0.00    0.0167291    0.1810281   -0.3016297
n     3.9606659    0.4415877   -2.8231642  0.00   -0.0187701   -0.0037802   -0.1090469
h     5.3460033    1.5883016   -1.6861790  0.00   -0.0157015   -0.0108945   -0.0167412
h     3.3312573    0.9033617   -3.4895638  0.00    0.0337984    0.0180866    0.0416675
h     4.8306618    0.3154078   -3.3613430  0.00   -0.0203847    0.0126505    0.0178394
h    -2.4230998    3.0688118    0.0483369  0.00   -0.0009507    0.0002186    0.0003083
h    -2.2166319    0.5949270   -0.0502463  0.00   -0.0034734    0.0034468    0.0002424
h    -0.4177688    4.5062292   -0.0119258  0.00    0.0001846    0.0000063    0.0013007
h     1.8376964    3.4921927   -0.1945294  0.00   13.5135410   -6.5768911  -12.8103418
h     2.1896213   -1.7051912   -0.3977960  0.00   -0.0386896   -0.0121375    0.0033934
o     3.8968745    3.4127195   -3.1495203  0.00   -0.0616214   -0.1417579    0.2279081
o     2.7392735    3.2121978   -1.2037036  0.00  -11.0979232    3.1147854   12.2129040
h     2.7291964    2.4826511   -0.4709138  0.00   -2.5578895    1.1262415    1.9450103
    27
 Energy =       3.3760446566
c    -1.4498219    2.6160595    0.0532687  0.00   -0.0430929    0.0360349    0.0021413
c    -1.3527221    1.2217165   -0.0122052  0.00   -0.0794917   -0.0303690    0.0017436
c    -0.0792393    0.6548962   -0.0983764  0.00   -0.0842178   -0.1700271    0.0007253
c    -0.3176686    3.4278247    0.0110137  0.00   -0.0192654    0.0641663    0.0016097
c     0.9557594    2.8666262   -0.0945844  0.00    1.4647864    0.0032112   -0.4773182
c     1.0694746    1.4178168   -0.1413361  0.00    0.3833304    0.2772155   -0.0618826
n     0.3022108   -0.6639861   -0.2625490  0.00    0.1345730    0.0990540   -0.0053034
c     2.2179217    0.5026523   -0.3295064  0.00    0.2081169    0.1819551   -0.0261183
c     1.6770213   -0.7652556   -0.3800471  0.00   -0.0919733   -0.0907450    0.0034150
h    -0.3462962   -1.4427647   -0.2772292  0.00    0.0334332    0.0437036    0.0000714
c     3.7266448    0.9805034   -0.3945018  0.00   -0.7684017    1.2710787   -0.1319580
c     4.2998499    1.4705773   -1.7349432  0.00   -0.0045147    0.0176159    0.1838269
h     4.3529423    0.1562956   -0.0255092  0.00   -0.0088384    0.0105901   -0.0005530
h     3.7467433    1.7800577    0.4052977  0.00   -0.8718634    0.5280748   -0.6779878
c     3.6375367    2.7909664   -2.1426219  0.00    0.0166827    0.1786414   -0.2951456
n     4.0944458    0.4778700   -2.8521343  0.00   -0.0235980   -0.0083293   -0.1072580
h     5.3766442    1.6753091   -1.6398955  0.00   -0.0128864   -0.0099960   -0.0162171
h     3.4542834    0.9073758   -3.5302527  0.00    0.0323178    0.0178948    0.0401188
h     4.9894149    0.4303900   -3.3701556  0.00   -0.0148592    0.0119784    0.0146414
h    -2.4328047    3.0769702    0.1199968  0.00   -0.0009735    0.0002364    0.0003021
h    -2.2457026    0.6049990   -0.0087279  0.00   -0.0034768    0.0033004    0.0002214
h    -0.4261850    4.5095142    0.0341909  0.00    0.0002234    0.0000496    0.0013067
h     1.8162841    3.4669657   -0.2224008  0.00   13.2552545   -6.4363308  -12.5752891
h     2.1374482   -1.7389603   -0.4917644  0.00   -0.0375275   -0.0127082    0.0032108
o     3.8858480    3.4351547   -3.1632418  0.00   -0.0606252   -0.1390163    0.2236236
o     2.7201061    3.1951641   -1.2334406  0.00  -10.9012140    3.0584515   11.9927487
h     2.6907171    2.4312543   -0.4704217  0.00   -2.5018984    1.0942692    1.9053244
    27
 Energy =       3.1762783493
c    -1.4669291    2.6416974    0.0155096  0.00   -0.0404237    0.0337275    0.0029184
c    -1.3766791    1.2517593   -0.0476033  0.00   -0.0760371   -0.0298387    0.0027186
c    -0.1079989    0.6878536   -0.1739446  0.00   -0.0771884   -0.1504977    0.0008486
c    -0.3286407    3.4388040   -0.0452595  0.00   -0.0181704    0.0602578    0.0024623
c     0.9375298    2.8642065   -0.1745381  0.00    1.3895902   -0.0018759   -0.4555182
c     1.0470579    1.4466562   -0.2404308  0.00    0.3657479    0.2665614   -0.0601198
n     0.2595294   -0.6472756   -0.2193077  0.00    0.1270993    0.0855372   -0.0047522
c     2.1675264    0.5310080   -0.3669677  0.00    0.1952452    0.1731182   -0.0234393
c     1.6298577   -0.7403233   -0.3818350  0.00   -0.0858328   -0.0843876    0.0020794
h    -0.3917380   -1.4277864   -0.1587436  0.00    0.0283057    0.0374678   -0.0003088
c     3.6619391    0.9485686   -0.3674595  0.00   -0.7124622    1.1578044   -0.1280454
c     4.3099557    1.4245077   -1.6870625  0.00   -0.0016376    0.0226947    0.1787707
h     4.2513704    0.1113672    0.0385430  0.00   -0.0073987    0.0084394   -0.0012068
h     3.8244251    1.8357603    0.3169977  0.00   -0.8099010    0.4997310   -0.6291816
c     3.6304843    2.7335994   -2.1509549  0.00    0.0140632    0.1687017   -0.2779382
n     4.2279843    0.4162055   -2.8063016  0.00   -0.0271400   -0.0150132   -0.1033794
h     5.3716183    1.6750645   -1.5092247  0.00   -0.0082476   -0.0069336   -0.0125690
h     3.5767803    0.7904478   -3.5079328  0.00    0.0300751    0.0183615    0.0357213
h     5.1481680    0.4710926   -3.2958476  0.00   -0.0031746    0.0141340    0.0096651
h    -2.4442293    3.1088537    0.1248499  0.00   -0.0019929    0.0004400    0.0013745
h    -2.2692948    0.6343064    0.0126362  0.00   -0.0051669    0.0022988    0.0009148
h    -0.4238376    4.5210934    0.0123086  0.00   -0.0001932    0.0006398    0.0019992
h     1.8102669    3.4782189   -0.2350186  0.00   12.5626392   -6.0831879  -11.9288976
h     2.0988017   -1.7156964   -0.4489357  0.00   -0.0362144   -0.0138703    0.0016579
o     3.9316731    3.3424883   -3.1906857  0.00   -0.0564245   -0.1301802    0.2095088
o     2.7165173    3.1988205   -1.2506261  0.00  -10.3538844    2.9002882   11.3861864
h     2.7087180    2.4646947   -0.5142423  0.00   -2.3912756    1.0655817    1.7885303
    27
 Energy =       3.0764611534
c    -1.4607503    2.6371424   -0.0634282  0.00   -0.0394531    0.0336941    0.0028199
c    -1.3534212    1.2502099   -0.0928079  0.00   -0.0740902   -0.0296822    0.0028729
c    -0.0774336    0.7021707   -0.2067723  0.00   -0.0757453   -0.1361742   -0.0004236
c    -0.3285935    3.4375949   -0.1254362  0.00   -0.0180536    0.0587531    0.0025625
c     0.9416594    2.8677274   -0.2326234  0.00    1.3438300   -0.0039663   -0.4434479
c     1.0744760    1.4742688   -0.2838384  0.00    0.3591297    0.2633925   -0.0593877
n     0.3066075   -0.6315579   -0.1248217  0.00    0.1262283    0.0746863   -0.0038032
c     2.1875594    0.5775560   -0.3399946  0.00    0.1924863    0.1711000   -0.0241111
c     1.6724889   -0.7030981   -0.3094404  0.00   -0.0832919   -0.0811776    0.0016356
h    -0.3289628   -1.4211436    0.0000096  0.00    0.0255894    0.0334934    0.0002462
c     3.6488288    0.9755829   -0.3338960  0.00   -0.6891946    1.1114674   -0.1226262
c     4.2651034    1.3820978   -1.6936215  0.00   -0.0010240    0.0245243    0.1740326
h     4.2327848    0.1434410    0.0919054  0.00   -0.0072751    0.0079589   -0.0011076
h     3.8859586    1.8914033    0.2767168  0.00   -0.7866849    0.4878250   -0.6087671
c     3.6219100    2.7196818   -2.1507064  0.00    0.0145391    0.1643696   -0.2700169
n     4.0869173    0.3544252   -2.7872400  0.00   -0.0320713   -0.0202543   -0.1006788
h     5.3476787    1.5884265   -1.5697293  0.00   -0.0054334   -0.0059647   -0.0119919
h     3.4544298    0.7673439   -3.4873701  0.00    0.0280350    0.0186121    0.0339825
h     5.0038552    0.3166481   -3.2914948  0.00    0.0032123    0.0133176    0.0060854
h    -2.4420203    3.0974487    0.0390739  0.00   -0.0019921    0.0004694    0.0013430
h    -2.2360673    0.6215694   -0.0015711  0.00   -0.0054319    0.0017232    0.0009651
h    -0.4284293    4.5193279   -0.0661184  0.00   -0.0001570    0.0006486    0.0020427
h     1.8307222    3.5175828   -0.2148329  0.00   12.2282120   -5.9052555  -11.6176877
h     2.1628765   -1.6707556   -0.3300143  0.00   -0.0349480   -0.0148940    0.0016329
o     3.9469311    3.3147369   -3.1959739  0.00   -0.0549586   -0.1265498    0.2036938
o     2.7371544    3.2287447   -1.2325418  0.00  -10.0929374    2.8244681   11.0969317
h     2.7485927    2.5274171   -0.5255090  0.00   -2.3185196    1.0334149    1.7332029
    27
 Energy =       2.9804554489
c    -1.4639204    2.6243839   -0.1040950  0.00   -0.0380704    0.0331124    0.0026755
c    -1.3443039    1.2395486   -0.0982931  0.00   -0.0713627   -0.0291213    0.0028142
c    -0.0653157    0.6998200   -0.2032080  0.00   -0.0728575   -0.1261780   -0.0017621
c    -0.3386772    3.4302181   -0.1815160  0.00   -0.0174360    0.0569381    0.0025134
c     0.9338454    2.8670221   -0.2776327  0.00    1.2918326   -0.0043178   -0.4274208
c     1.0806107    1.4792555   -0.3027724  0.00    0.3470672    0.2549953   -0.0574561
n     0.3313348   -0.6257194   -0.0284613  0.00    0.1221941    0.0675958   -0.0025785
c     2.1952230    0.5929543   -0.3279862  0.00    0.1862821    0.1654705   -0.0234060
c     1.6919881   -0.6899662   -0.2581329  0.00   -0.0793666   -0.0775104    0.0009969
h    -0.2925183   -1.4162524    0.1587627  0.00    0.0228188    0.0296567    0.0009352
c     3.6492090    0.9891215   -0.3351927  0.00   -0.6649398    1.0715115   -0.1176934
c     4.2483602    1.3755582   -1.7089760  0.00   -0.0009529    0.0238991    0.1677699
h     4.2375040    0.1607578    0.0932306  0.00   -0.0070303    0.0076478   -0.0010414
h     3.9013984    1.9082113    0.2560592  0.00   -0.7586793    0.4704957   -0.5871505
c     3.6160262    2.7197958   -2.1643550  0.00    0.0141181    0.1583616   -0.2603283
n     4.0415418    0.3404544   -2.7889410  0.00   -0.0316672   -0.0200613   -0.0969554
h     5.3357765    1.5704786   -1.6030976  0.00   -0.0049933   -0.0056617   -0.0115238
h     3.4179648    0.7611581   -3.4937469  0.00    0.0269181    0.0180528    0.0327046
h     4.9563489    0.2679499   -3.2938663  0.00    0.0039299    0.0127501    0.0053815
h    -2.4481789    3.0791280   -0.0058769  0.00   -0.0019475    0.0004802    0.0012975
h    -2.2197396    0.6053834    0.0232492  0.00   -0.0055623    0.0012187    0.0010065
h    -0.4447124    4.5118638   -0.1324644  0.00   -0.0001486    0.0007033    0.0020106
h     1.8349529    3.5381863   -0.2199522  0.00   11.7969923   -5.6947463  -11.2065235
h     2.1943808   -1.6516306   -0.2592901  0.00   -0.0337806   -0.0147294    0.0015926
o     3.9514874    3.3116931   -3.2142474  0.00   -0.0529375   -0.1219698    0.1963112
o     2.7426405    3.2459237   -1.2411756  0.00   -9.7364736    2.7245556   10.7049471
h     2.7576292    2.5506950   -0.5400991  0.00   -2.2339471    0.9968508    1.6708830
    27
 Energy =       2.6908580445
c    -1.4719302    2.5983480   -0.2102270  0.00   -0.0339157    0.0302448    0.0024209
c    -1.3288151    1.2209152   -0.1618788  0.00   -0.0630000   -0.0260143    0.0029522
c    -0.0445967    0.6989161   -0.2341915  0.00   -0.0657283   -0.1084674   -0.0023644
c    -0.3602672    3.4150698   -0.2883501  0.00   -0.0163660    0.0505598    0.0021710
c     0.9173527    2.8679471   -0.3443965  0.00    1.1209431   -0.0108725   -0.3803729
c     1.0907267    1.4914854   -0.3332882  0.00    0.3092128    0.2288762   -0.0522575
n     0.3582567   -0.6171300    0.0200563  0.00    0.1076553    0.0572289   -0.0005849
c     2.2092847    0.6296772   -0.2724689  0.00    0.1670479    0.1464070   -0.0211141
c     1.7314136   -0.6554299   -0.1579589  0.00   -0.0687873   -0.0692713    0.0006161
h    -0.2574287   -1.4161813    0.2126542  0.00    0.0202280    0.0261796    0.0026764
c     3.6553102    1.0185522   -0.2883998  0.00   -0.5906722    0.9452301   -0.1010958
c     4.2176196    1.3572008   -1.6953000  0.00   -0.0008355    0.0222706    0.1473183
h     4.2485363    0.1958955    0.1474127  0.00   -0.0061686    0.0066393   -0.0012244
h     3.9524747    1.9546082    0.2470848  0.00   -0.6714375    0.4178197   -0.5207276
c     3.6113579    2.7171755   -2.1512864  0.00    0.0127105    0.1387731   -0.2295110
n     3.9477875    0.3034667   -2.7392991  0.00   -0.0325533   -0.0201648   -0.0842657
h     5.3151212    1.5264343   -1.6293946  0.00   -0.0031563   -0.0043719   -0.0102973
h     3.3508675    0.7385063   -3.4629016  0.00    0.0230474    0.0169020    0.0280059
h     4.8578590    0.1437244   -3.2390572  0.00    0.0087011    0.0103467    0.0013374
h    -2.4641073    3.0402408   -0.1341464  0.00   -0.0020418    0.0006100    0.0013221
h    -2.1934850    0.5756667   -0.0237451  0.00   -0.0049743    0.0007513    0.0016406
h    -0.4802719    4.4956674   -0.2521045  0.00   -0.0002580    0.0007673    0.0016590
h     1.8483202    3.5903457   -0.1893319  0.00   10.4794851   -5.0440233   -9.9431227
h     2.2668595   -1.5990963   -0.1005369  0.00   -0.0283131   -0.0149573    0.0016168
o     3.9785573    3.2991045   -3.2163230  0.00   -0.0461224   -0.1071670    0.1720705
o     2.7608530    3.2892114   -1.2220849  0.00   -8.6437710    2.4187118    9.5035743
h     2.7831999    2.6056711   -0.5326138  0.00   -1.9709297    0.8869918    1.4775568
    27
 Energy =       2.3017276116
c    -1.4976135    2.5691139   -0.3266192  0.00   -0.0274945    0.0251137    0.0020103
c    -1.3348253    1.2000931   -0.2324382  0.00   -0.0504457   -0.0213332    0.0029252
c    -0.0520979    0.6889092   -0.2696458  0.00   -0.0533771   -0.0859491   -0.0022844
c    -0.4022345    3.4008592   -0.4060731  0.00   -0.0141807    0.0408894    0.0013578
c     0.8781148    2.8762976   -0.4177563  0.00    0.8837816   -0.0120030   -0.3168354
c     1.0673610    1.4863743   -0.3692415  0.00    0.2461783    0.1845807   -0.0440205
n     0.3477942   -0.6226008    0.0447343  0.00    0.0846295    0.0452137    0.0008846
c     2.2031617    0.6373507   -0.2318707  0.00    0.1353250    0.1167926   -0.0159821
c     1.7390926   -0.6395962   -0.0680730  0.00   -0.0530911   -0.0561113    0.0008687
h    -0.2663841   -1.4297504    0.2285912  0.00    0.0162909    0.0211559    0.0045894
c     3.6868385    1.0283472   -0.2413369  0.00   -0.4757075    0.7685781   -0.0814750
c     4.2290602    1.3671171   -1.6608014  0.00   -0.0010519    0.0184973    0.1177042
h     4.2841739    0.2036746    0.1884969  0.00   -0.0047937    0.0052758   -0.0015082
h     3.9797591    1.9856517    0.2895985  0.00   -0.5474535    0.3443417   -0.4248991
c     3.6340385    2.7325955   -2.1238864  0.00    0.0096819    0.1102863   -0.1835740
n     3.9439615    0.2986634   -2.6765015  0.00   -0.0279482   -0.0166229   -0.0655064
h     5.3287473    1.5316948   -1.6052080  0.00   -0.0024353   -0.0032219   -0.0085701
h     3.3724907    0.7256859   -3.4304932  0.00    0.0178330    0.0145041    0.0211106
h     4.8552730    0.0786972   -3.1528622  0.00    0.0096877    0.0077332   -0.0011179
h    -2.4978324    2.9967561   -0.2778778  0.00   -0.0021003    0.0007109    0.0012326
h    -2.1916750    0.5479998   -0.0812609  0.00   -0.0039379    0.0003741    0.0024160
h    -0.5398812    4.4797568   -0.3901748  0.00   -0.0003945    0.0008718    0.0009246
h     1.8491329    3.6405726   -0.1651981  0.00    8.5868854   -4.1122788   -8.1270267
h     2.3040025   -1.5615564    0.0582162  0.00   -0.0206958   -0.0142949    0.0020505
o     4.0344354    3.3049637   -3.2119129  0.00   -0.0359498   -0.0857005    0.1363870
o     2.7693279    3.3396909   -1.2211536  0.00   -7.0731240    1.9951818    7.7662466
h     2.7766345    2.6186309   -0.5013289  0.00   -1.5961119    0.7074145    1.2120919
    27
 Energy =       2.2424808356
c    -1.4987068    2.5849573   -0.3825823  0.00   -0.0267284    0.0240484    0.0019138
c    -1.3416619    1.2144781   -0.3082072  0.00   -0.0487784   -0.0208298    0.0029012
c    -0.0609132    0.7001328   -0.3240284  0.00   -0.0508336   -0.0814985   -0.0024689
c    -0.4002539    3.4154544   -0.4255262  0.00   -0.0134422    0.0396885    0.0012490
c     0.8781781    2.8886428   -0.4134557  0.00    0.8496304   -0.0111074   -0.3052519
c     1.0616039    1.4955311   -0.3785219  0.00    0.2360893    0.1777186   -0.0427138
n     0.3228059   -0.6262961   -0.0509305  0.00    0.0772169    0.0430698    0.0008981
c     2.1935569    0.6433810   -0.2065028  0.00    0.1313299    0.1125346   -0.0152056
c     1.7229568   -0.6337752   -0.0726088  0.00   -0.0467017   -0.0528991    0.0006709
h    -0.3004973   -1.4411447    0.0698381  0.00    0.0135443    0.0178122    0.0047515
c     3.6887390    1.0271332   -0.1823941  0.00   -0.4570551    0.7383763   -0.0784248
c     4.2356160    1.3525980   -1.6048504  0.00   -0.0009559    0.0176812    0.1132313
h     4.2755224    0.2008960    0.2596173  0.00   -0.0045582    0.0049799   -0.0013695
h     4.0091781    2.0048264    0.3150082  0.00   -0.5250877    0.3315785   -0.4079458
c     3.6489333    2.7225082   -2.0851658  0.00    0.0093349    0.1058650   -0.1763682
n     3.9474965    0.2756086   -2.6090625  0.00   -0.0271107   -0.0161230   -0.0626781
h     5.3365567    1.5112176   -1.5485455  0.00   -0.0023413   -0.0030792   -0.0082128
h     3.3878656    0.6988965   -3.3746327  0.00    0.0170345    0.0140645    0.0201445
h     4.8600237    0.0362218   -3.0735606  0.00    0.0096573    0.0073274   -0.0012887
h    -2.4991270    3.0140049   -0.3524082  0.00   -0.0022409    0.0006428    0.0012016
h    -2.2041894    0.5613742   -0.1946882  0.00   -0.0043850   -0.0000981    0.0024090
h    -0.5357947    4.4944108   -0.3999971  0.00   -0.0003186    0.0009028    0.0009014
h     1.8576219    3.6505767   -0.1356197  0.00    8.2652944   -3.9574642   -7.8216198
h     2.2858009   -1.5548567    0.0689970  0.00   -0.0197834   -0.0138445    0.0020374
o     4.0689210    3.2765969   -3.1801723  0.00   -0.0343363   -0.0823163    0.1307641
o     2.7775865    3.3525049   -1.1984276  0.00   -6.8087174    1.9218765    7.4743399
h     2.7830369    2.6201133   -0.4636496  0.00   -1.5357571    0.6810930    1.1661344
    27
 Energy =       2.1827153527
c    -1.4972193    2.6174931   -0.4892479  0.00   -0.0259376    0.0225459    0.0017987
c    -1.3509393    1.2459653   -0.4236540  0.00   -0.0469766   -0.0198648    0.0028276
c    -0.0749991    0.7229162   -0.4025762  0.00   -0.0481941   -0.0770232   -0.0024418
c    -0.3934541    3.4424004   -0.4902346  0.00   -0.0128542    0.0381618    0.0010722
c     0.8801260    2.9086911   -0.4382413  0.00    0.8008187   -0.0096508   -0.2914613
c     1.0520029    1.5107132   -0.4052359  0.00    0.2212336    0.1685538   -0.0414602
n     0.2863399   -0.6140074   -0.1466847  0.00    0.0668970    0.0418223    0.0000932
c     2.1744407    0.6513107   -0.1663308  0.00    0.1268300    0.1063134   -0.0136085
c     1.6901515   -0.6214755   -0.0551936  0.00   -0.0378592   -0.0491924    0.0010437
h    -0.3476144   -1.4305129   -0.0889150  0.00    0.0106087    0.0144782    0.0045981
c     3.6885551    1.0206266   -0.0898198  0.00   -0.4322864    0.6970625   -0.0744827
c     4.2421817    1.3203510   -1.5193973  0.00   -0.0007119    0.0162988    0.1076112
h     4.2577818    0.1928995    0.3733218  0.00   -0.0042228    0.0044433   -0.0010532
h     4.0566295    2.0332767    0.3462404  0.00   -0.4936506    0.3158395   -0.3847773
c     3.6748506    2.6988540   -2.0366623  0.00    0.0089892    0.0995557   -0.1666291
n     3.9470878    0.2272824   -2.5021477  0.00   -0.0264526   -0.0157790   -0.0584355
h     5.3457359    1.4660278   -1.4629474  0.00   -0.0021908   -0.0028479   -0.0077124
h     3.4099780    0.6439759   -3.2883924  0.00    0.0157705    0.0137167    0.0185494
h     4.8611221   -0.0472219   -2.9447551  0.00    0.0102905    0.0065340   -0.0019009
h    -2.4961043    3.0518715   -0.4888761  0.00   -0.0026422    0.0006425    0.0011531
h    -2.2213528    0.5968244   -0.3492099  0.00   -0.0048967   -0.0005085    0.0023462
h    -0.5234282    4.5218253   -0.4598511  0.00   -0.0002489    0.0009016    0.0008872
h     1.8756682    3.6651210   -0.1081543  0.00    7.8485450   -3.7540230   -7.4253807
h     2.2440679   -1.5424511    0.1231070  0.00   -0.0180403   -0.0135909    0.0021450
o     4.1338809    3.2118592   -3.1436400  0.00   -0.0316173   -0.0775704    0.1222971
o     2.7924728    3.3760267   -1.1839018  0.00   -6.4694177    1.8300927    7.0968767
h     2.7928945    2.6153496   -0.4106773  0.00   -1.4517833    0.6430881    1.1060445
    27
 Energy =       2.1894717778
c    -1.4827101    2.6711039   -0.6163739  0.00   -0.0257580    0.0222023    0.0016938
c    -1.3558587    1.2986994   -0.5312971  0.00   -0.0465021   -0.0192197    0.0027263
c    -0.0887106    0.7586956   -0.4677541  0.00   -0.0477001   -0.0744544   -0.0027524
c    -0.3688150    3.4825278   -0.5963913  0.00   -0.0131812    0.0377122    0.0008816
c     0.8958752    2.9334457   -0.5011183  0.00    0.7692617   -0.0073290   -0.2863246
c     1.0468745    1.5317347   -0.4410302  0.00    0.2118921    0.1641807   -0.0414910
n     0.2436291   -0.5795474   -0.1764966  0.00    0.0621306    0.0409574   -0.0003874
c     2.1496221    0.6606647   -0.1183350  0.00    0.1255701    0.1021746   -0.0118984
c     1.6428409   -0.6019361   -0.0006186  0.00   -0.0333392   -0.0481325    0.0015073
h    -0.4032497   -1.3879488   -0.1424139  0.00    0.0098303    0.0136638    0.0044528
c     3.6812708    1.0069659    0.0061530  0.00   -0.4189264    0.6710296   -0.0727917
c     4.2375097    1.2673112   -1.4377612  0.00   -0.0004120    0.0149169    0.1051092
h     4.2307209    0.1794085    0.4941664  0.00   -0.0040053    0.0039545   -0.0006768
h     4.1113429    2.0568763    0.3576686  0.00   -0.4741703    0.3095144   -0.3711690
c     3.7045781    2.6586373   -2.0094074  0.00    0.0090446    0.0949742   -0.1606542
n     3.9239252    0.1541408   -2.3913248  0.00   -0.0272064   -0.0163755   -0.0549869
h     5.3455996    1.3892844   -1.3869305  0.00   -0.0019175   -0.0025785   -0.0074335
h     3.4206437    0.5657526   -3.2035588  0.00    0.0146274    0.0140813    0.0169601
h     4.8366817   -0.1704199   -2.8047805  0.00    0.0122493    0.0054024   -0.0030693
h    -2.4760633    3.1179785   -0.6476292  0.00   -0.0031454    0.0008739    0.0011070
h    -2.2366481    0.6617900   -0.4726634  0.00   -0.0050492   -0.0005790    0.0022984
h    -0.4858121    4.5637446   -0.5774822  0.00   -0.0003329    0.0010354    0.0008897
h     1.9073170    3.6779772   -0.1143207  0.00    7.6208275   -3.6348548   -7.2145497
h     2.1769982   -1.5252440    0.2287939  0.00   -0.0164318   -0.0143720    0.0024890
o     4.2180192    3.1063284   -3.1279936  0.00   -0.0288167   -0.0742477    0.1151803
o     2.8162728    3.4061318   -1.2049892  0.00   -6.2959046    1.7839494    6.9016975
h     2.8090023    2.6018897   -0.3681885  0.00   -1.3926344    0.6115203    1.0711919
    27
 Energy =       2.1552494570
c    -1.4972780    2.6311825   -0.7236615  0.00   -0.0256102    0.0210925    0.0007731
c    -1.3566579    1.2595003   -0.6449506  0.00   -0.0452250   -0.0178661    0.0021747
c    -0.0858481    0.7310493   -0.5424065  0.00   -0.0456465   -0.0716066   -0.0028998
c    -0.3965481    3.4557280   -0.6441382  0.00   -0.0120580    0.0372550   -0.0001351
c     0.8663676    2.9202303   -0.4949930  0.00    0.7352972   -0.0060547   -0.2759075
c     1.0382053    1.5135558   -0.4691992  0.00    0.2001737    0.1553537   -0.0408273
n     0.2534917   -0.6082419   -0.2600474  0.00    0.0570483    0.0405439   -0.0006495
c     2.1485245    0.6529264   -0.1162646  0.00    0.1197440    0.0963027   -0.0107022
c     1.6474658   -0.6129912   -0.0159361  0.00   -0.0304829   -0.0453741    0.0024175
h    -0.3850076   -1.4254892   -0.2701554  0.00    0.0077017    0.0123983    0.0046082
c     3.6890436    1.0264715    0.0658254  0.00   -0.3996274    0.6420643   -0.0680602
c     4.2642279    1.3052155   -1.3614035  0.00   -0.0000525    0.0140484    0.1009250
h     4.2366640    0.2015632    0.5613680  0.00   -0.0040544    0.0036310    0.0001223
h     4.0944209    2.0886305    0.4357798  0.00   -0.4536389    0.2976451   -0.3555598
c     3.7128368    2.6890119   -1.9383217  0.00    0.0095273    0.0904163   -0.1546437
n     3.9787990    0.1843449   -2.3138252  0.00   -0.0269522   -0.0183663   -0.0482829
h     5.3695993    1.4394591   -1.2917010  0.00   -0.0016928   -0.0032639   -0.0068704
h     3.4119756    0.5693803   -3.0995443  0.00    0.0116095    0.0148423    0.0137025
h     4.8925955   -0.0929185   -2.7614616  0.00    0.0138550    0.0032102   -0.0028833
h    -2.4936442    3.0678345   -0.8010016  0.00   -0.0038774    0.0017345    0.0000542
h    -2.2330359    0.6133624   -0.6314165  0.00   -0.0059487   -0.0003322    0.0018467
h    -0.5246428    4.5359511   -0.6261556  0.00    0.0002625    0.0015113   -0.0001836
h     1.8861980    3.6942746   -0.0520984  0.00    7.3201708   -3.4885008   -6.9262725
h     2.1807305   -1.5266691    0.2519734  0.00   -0.0157200   -0.0140775    0.0036304
o     4.2302876    3.1416125   -3.0566409  0.00   -0.0269859   -0.0723448    0.1103954
o     2.7915269    3.4240890   -1.1522451  0.00   -6.0458544    1.7151700    6.6254162
h     2.7805584    2.6069290   -0.2994560  0.00   -1.3319628    0.5905674    1.0278114
    27
 Energy =       2.1301231776
c    -1.5088443    2.5844817   -0.8320100  0.00   -0.0256074    0.0199362   -0.0003170
c    -1.3526722    1.2140015   -0.7563155  0.00   -0.0441807   -0.0166694    0.0015420
c    -0.0790919    0.6989647   -0.6119245  0.00   -0.0436918   -0.0692422   -0.0030498
c    -0.4253920    3.4232517   -0.6916612  0.00   -0.0109951    0.0369403   -0.0011729
c     0.8339843    2.9028472   -0.4857291  0.00    0.7056455   -0.0048161   -0.2664570
c     1.0307466    1.4922610   -0.4944747  0.00    0.1898931    0.1472511   -0.0403748
n     0.2698886   -0.6399068   -0.3346266  0.00    0.0530498    0.0400995   -0.0007142
c     2.1496781    0.6425616   -0.1173896  0.00    0.1141938    0.0905412   -0.0096216
c     1.6566034   -0.6271865   -0.0327579  0.00   -0.0285074   -0.0430196    0.0032723
h    -0.3570794   -1.4659107   -0.3833819  0.00    0.0059375    0.0113899    0.0048339
c     3.6948082    1.0457497    0.1202999  0.00   -0.3822755    0.6155197   -0.0637702
c     4.2918662    1.3505313   -1.2863383  0.00    0.0003222    0.0136551    0.0970080
h     4.2425076    0.2232957    0.6208040  0.00   -0.0041043    0.0033788    0.0008749
h     4.0653432    2.1158396    0.5216755  0.00   -0.4355235    0.2875405   -0.3413638
c     3.7181782    2.7241107   -1.8665237  0.00    0.0102672    0.0863515   -0.1493875