    27
 Energy =       0.2822783682
c    -1.4235396    2.6054793   -0.0667700  0.00   -0.0463394    0.0383511    0.0026707
c    -1.3072796    1.2134697   -0.1072300  0.00   -0.0851777   -0.0325800    0.0019719
c    -0.0178900    0.6711998   -0.1697000  0.00   -0.0887495   -0.1883353   -0.0008389
c    -0.2940599    3.4190890   -0.0891300  0.00   -0.0225469    0.0690413    0.0027201
c     0.9872197    2.8590292   -0.1560400  0.00    0.0117220    0.0644774   -0.0001190
c     1.1340797    1.4562096   -0.1970299  0.00    0.0523701    0.0502937    0.0025248
n     0.3879399   -0.6395298   -0.2140799  0.00    0.1422463    0.1101093   -0.0033481
c     2.2666594    0.5727398   -0.2659299  0.00    0.1490131   -0.0840397    0.0098212
c     1.7555995   -0.7123598   -0.2706899  0.00   -0.1010820   -0.0973328    0.0042814
h    -0.2400399   -1.4313496   -0.2047299  0.00    0.0367987    0.0477789   -0.0005297
c     3.7030089    1.0223397   -0.3320099  0.00    0.0574390    0.0097230   -0.0107838
c     4.2197688    1.4064496   -1.7267995  0.00   -0.0454609   -0.0974636    0.1001308
h     4.3261788    0.2093419    0.0639454  0.00    0.0148621    0.0232250   -0.0136511
h     3.8370289    1.8640295    0.3610799  0.00   -0.0047664   -0.0139604   -0.0051471
c     5.7571784    1.4848496   -1.6848495  0.00    0.2620164    0.0965514   -0.2763098
n     3.7117889    2.7395892   -2.2095194  0.00    0.0322359    0.0793885   -0.0805744
h     3.9553389    0.6476998   -2.4727493  0.00   -0.0001873    0.0289397    0.0007582
h     4.5251087    3.3576390   -2.2967393  0.00   -0.0072580   -0.0587511    0.0083812
h     3.3908290    2.6178193   -3.1764891  0.00    0.0163229   -0.0012888    0.0329955
h    -2.4108593    3.0588691   -0.0157800  0.00   -0.0007903    0.0002408    0.0000899
h    -2.1896094    0.5822398   -0.0890100  0.00   -0.0035902    0.0037164    0.0001002
h    -0.4052699    4.5000487   -0.0535400  0.00    0.0008369    0.0001603    0.0004698
h     1.8590495    3.5066790   -0.1715100  0.00   -0.0024389    0.0037160    0.0022404
h     2.2327294   -1.6813195   -0.3062999  0.00   -0.0405539   -0.0111736    0.0024378
o     6.4836182    1.6959995   -2.6417192  0.00   -0.1755674   -0.0391915    0.2309174
o     6.2252182    1.2879696   -0.4228049  0.00   -0.1121450   -0.0134662   -0.0020589
h     6.8273481    0.5023579   -0.4925239  0.00   -0.0392092    0.0118700   -0.0091508
    27
 Energy =       0.2389895220
c    -1.3982060    2.5532840   -0.1490538  0.00   -0.0317189    0.0264534    0.0018726
c    -1.2800129    1.1720859   -0.1807835  0.00   -0.0589377   -0.0226424    0.0013575
c    -0.0064508    0.6342972   -0.2463836  0.00   -0.0610260   -0.1289791   -0.0019767
c    -0.2743759    3.3610780   -0.1750855  0.00   -0.0156769    0.0476263    0.0019822
c     0.9950301    2.8019605   -0.2374158  0.00    0.0085685    0.0446890   -0.0001930
c     1.1261784    1.4152237   -0.2765930  0.00    0.0354049    0.0355297    0.0018954
n     0.3816972   -0.6986050   -0.2423296  0.00    0.0975083    0.0742976   -0.0006066
c     2.2460666    0.5627444   -0.3241263  0.00    0.1021160   -0.0582261    0.0064649
c     1.7689516   -0.7219608   -0.3122436  0.00   -0.0708569   -0.0646287    0.0019383
h    -0.2406777   -1.5082696   -0.2078003  0.00    0.0253557    0.0324823    0.0001301
c     3.6878499    1.0048827   -0.3184484  0.00    0.0396657    0.0050080   -0.0069006
c     4.2327869    1.4910174   -1.6731062  0.00   -0.0295832   -0.0684931    0.0700695
h     4.3067906    0.1542529    0.0195287  0.00    0.0123693    0.0141172   -0.0092707
h     3.8151950    1.7953840    0.4462953  0.00   -0.0025562   -0.0071626   -0.0006584
c     5.7597332    1.5886756   -1.5876120  0.00    0.1827902    0.0682359   -0.1943955
n     3.6803648    2.8259552   -2.0652037  0.00    0.0210089    0.0572619   -0.0513428
h     4.0110885    0.7606352   -2.4730364  0.00    0.0001569    0.0173520   -0.0013507
h     4.4683174    3.4909076   -2.1379862  0.00   -0.0031555   -0.0398023    0.0056081
h     3.2980962    2.7593280   -3.0252538  0.00    0.0091331    0.0002880    0.0178845
h    -2.3854603    3.0063439   -0.0966269  0.00   -0.0005477    0.0001638    0.0000608
h    -2.1588738    0.5366525   -0.1476137  0.00   -0.0025702    0.0024917    0.0001112
h    -0.3842535    4.4423484   -0.1428311  0.00    0.0005747    0.0001144    0.0003268
h     1.8718172    3.4429320   -0.2498742  0.00   -0.0007184    0.0022579    0.0006115
h     2.3101338   -1.6606437   -0.3053253  0.00   -0.0264998   -0.0099103    0.0016945
o     6.5174436    1.8060605   -2.5829209  0.00   -0.1220345   -0.0279668    0.1608740
o     6.2544781    1.3611387   -0.3315603  0.00   -0.0965066    0.0266978    0.0044352
h     6.6934349    0.4388696   -0.3852580  0.00   -0.0122635   -0.0272555   -0.0106223
    27
 Energy =       0.2250882368
c    -1.4025800    2.5687490   -0.1612594  0.00   -0.0273488    0.0228596    0.0016332
c    -1.2816995    1.1904372   -0.1696013  0.00   -0.0507385   -0.0197413    0.0011023
c    -0.0124283    0.6549788   -0.2345067  0.00   -0.0525031   -0.1099538   -0.0023155
c    -0.2818246    3.3762182   -0.2082995  0.00   -0.0133675    0.0411271    0.0018047
c     0.9843765    2.8183199   -0.2690376  0.00    0.0073844    0.0386832   -0.0000324
c     1.1123435    1.4360442   -0.2835488  0.00    0.0303475    0.0308061    0.0016917
n     0.3744785   -0.6831547   -0.1840357  0.00    0.0840007    0.0628556    0.0001242
c     2.2297029    0.5955466   -0.3136186  0.00    0.0880894   -0.0498891    0.0054026
c     1.7669471   -0.6899688   -0.2753308  0.00   -0.0610114   -0.0552985    0.0012070
h    -0.2439695   -1.4986863   -0.1173499  0.00    0.0213785    0.0272445    0.0003362
c     3.6690251    1.0451577   -0.2990327  0.00    0.0322700    0.0038465   -0.0060935
c     4.2385278    1.4397081   -1.6745814  0.00   -0.0223283   -0.0610363    0.0606974
h     4.2833844    0.2224502    0.1215400  0.00    0.0126391    0.0093847   -0.0063458
h     3.7766479    1.8930076    0.4100542  0.00   -0.0022391   -0.0037672    0.0016643
c     5.7614144    1.5589031   -1.5659958  0.00    0.1578905    0.0576448   -0.1666891
n     3.6651438    2.7352843   -2.1626845  0.00    0.0164720    0.0558228   -0.0400688
h     4.0406300    0.6442001   -2.4221134  0.00   -0.0000800    0.0122136   -0.0035763
h     4.4345326    3.4249449   -2.2353421  0.00   -0.0022206   -0.0336824    0.0046999
h     3.3397827    2.6005749   -3.1425799  0.00    0.0056435   -0.0005699    0.0090414
h    -2.3902218    3.0209168   -0.1093979  0.00   -0.0004750    0.0001451    0.0000524
h    -2.1580745    0.5528172   -0.1143369  0.00   -0.0023874    0.0019428    0.0001158
h    -0.3929218    4.4579473   -0.1954332  0.00    0.0005194    0.0002987    0.0002877
h     1.8621275    3.4579427   -0.3026873  0.00   -0.0003301    0.0020820    0.0004508
h     2.3291196   -1.6164300   -0.2474197  0.00   -0.0226835   -0.0089822    0.0014329
o     6.5325056    1.7933067   -2.5685337  0.00   -0.1048806   -0.0237948    0.1385836
o     6.2636661    1.3454134   -0.3078991  0.00   -0.0874330    0.0314021    0.0045680
h     6.7965070    0.4719497   -0.3756161  0.00   -0.0066081   -0.0316438   -0.0097746
    27
 Energy =       0.2235691632
c    -1.4049669    2.5823857   -0.1644069  0.00   -0.0267098    0.0222940    0.0015763
c    -1.2845478    1.2045493   -0.1380824  0.00   -0.0491935   -0.0197926    0.0010895
c    -0.0176508    0.6670211   -0.2117187  0.00   -0.0502773   -0.1035004   -0.0029071
c    -0.2848828    3.3877386   -0.2487855  0.00   -0.0125494    0.0402323    0.0017405
c     0.9793504    2.8277551   -0.3168224  0.00    0.0072772    0.0379284   -0.0000211
c     1.1054388    1.4460143   -0.3008915  0.00    0.0296784    0.0303647    0.0016056
n     0.3703927   -0.6689492   -0.0878985  0.00    0.0803214    0.0581728    0.0007962
c     2.2211939    0.6060559   -0.3235116  0.00    0.0860008   -0.0471877    0.0051493
c     1.7602404   -0.6780729   -0.2378574  0.00   -0.0575151   -0.0528194    0.0006898
h    -0.2459443   -1.4818842    0.0414032  0.00    0.0188371    0.0238345    0.0007911
c     3.6609335    1.0547057   -0.3145831  0.00    0.0310097    0.0036857   -0.0058076
c     4.2438379    1.4154178   -1.6939413  0.00   -0.0212250   -0.0593619    0.0587743
h     4.2697051    0.2410907    0.1320470  0.00    0.0123886    0.0087701   -0.0059703
h     3.7664745    1.9190588    0.3750955  0.00   -0.0021703   -0.0034134    0.0018289
c     5.7657226    1.5402483   -1.5698946  0.00    0.1529283    0.0556273   -0.1613390
n     3.6707009    2.6971587   -2.2174330  0.00    0.0157227    0.0548833   -0.0383212
h     4.0547157    0.6001452   -2.4225088  0.00   -0.0000654    0.0115126   -0.0037321
h     4.4359479    3.3922408   -2.2874742  0.00   -0.0021284   -0.0325584    0.0045341
h     3.3690398    2.5410188   -3.2025200  0.00    0.0051996   -0.0006380    0.0079394
h    -2.3914415    3.0362540   -0.1053059  0.00   -0.0005253    0.0000948    0.0000559
h    -2.1595227    0.5686058   -0.0414630  0.00   -0.0029605    0.0012514    0.0001998
h    -0.3951292    4.4698329   -0.2598366  0.00    0.0005912    0.0006031    0.0002700
h     1.8572130    3.4656641   -0.3794914  0.00   -0.0000141    0.0023404    0.0004182
h     2.3261321   -1.6016808   -0.1878738  0.00   -0.0221564   -0.0091371    0.0014425
o     6.5490742    1.7796468   -2.5660319  0.00   -0.1014388   -0.0229966    0.1341445
o     6.2601542    1.3319524   -0.3067696  0.00   -0.0848854    0.0309356    0.0045924
h     6.8149612    0.4726053   -0.3720917  0.00   -0.0061403   -0.0311254   -0.0095398
    27
 Energy =       0.2202448229
c    -1.4046116    2.5662222   -0.1707060  0.00   -0.0263956    0.0219541    0.0015446
c    -1.2833417    1.1881780   -0.1764446  0.00   -0.0482786   -0.0199918    0.0011111
c    -0.0150691    0.6540160   -0.2403368  0.00   -0.0486636   -0.0987790   -0.0029883
c    -0.2841999    3.3744842   -0.2187244  0.00   -0.0119344    0.0397893    0.0016782
c     0.9813396    2.8174669   -0.2774477  0.00    0.0072868    0.0375672   -0.0000505
c     1.1082103    1.4360911   -0.2895285  0.00    0.0293798    0.0302458    0.0015420
n     0.3685415   -0.6899125   -0.1846951  0.00    0.0773389    0.0547166    0.0008838
c     2.2247361    0.5991859   -0.3147988  0.00    0.0849778   -0.0452720    0.0050026
c     1.7655587   -0.6878595   -0.2737405  0.00   -0.0545368   -0.0510406    0.0005491
h    -0.2511854   -1.5103611   -0.1173499  0.00    0.0165790    0.0208186    0.0009573
c     3.6638502    1.0496979   -0.2932849  0.00    0.0303208    0.0036074   -0.0056295
c     4.2406200    1.4363178   -1.6683431  0.00   -0.0205972   -0.0582847    0.0575893
h     4.2766688    0.2294158    0.1363344  0.00    0.0122150    0.0084419   -0.0057753
h     3.7675293    1.9024785    0.4112363  0.00   -0.0021162   -0.0032125    0.0019087
c     5.7622624    1.5588455   -1.5522208  0.00    0.1498523    0.0544545   -0.1580475
n     3.6630426    2.7258117   -2.1663859  0.00    0.0153403    0.0541690   -0.0372838
h     4.0489806    0.6335130   -2.4107681  0.00   -0.0000549    0.0111285   -0.0037691
h     4.4282724    3.4210843   -2.2388880  0.00   -0.0020869   -0.0318813    0.0044349
h     3.3425705    2.5838044   -3.1480098  0.00    0.0049475   -0.0006432    0.0073408
h    -2.3926960    3.0176505   -0.1198785  0.00   -0.0005904    0.0000471    0.0000590
h    -2.1599316    0.5484795   -0.1195573  0.00   -0.0035131    0.0006490    0.0002421
h    -0.3954114    4.4567004   -0.2079324  0.00    0.0006654    0.0008554    0.0002612
h     1.8595318    3.4576956   -0.3113528  0.00    0.0002997    0.0025988    0.0003975
h     2.3337716   -1.6108834   -0.2392862  0.00   -0.0218937   -0.0092316    0.0014672
o     6.5383709    1.8017510   -2.5558432  0.00   -0.0993654   -0.0225178    0.1313682
o     6.2654618    1.3495463   -0.2926956  0.00   -0.0836061    0.0309550    0.0045955
h     6.8442706    0.5071591   -0.3679999  0.00   -0.0055704   -0.0311438   -0.0093889
    27
 Energy =       0.2134853283
c    -1.4059841    2.5466781   -0.1864438  0.00   -0.0247008    0.0204340    0.0014388
c    -1.2825981    1.1703687   -0.2220302  0.00   -0.0448699   -0.0190713    0.0011027
c    -0.0144385    0.6399193   -0.2751605  0.00   -0.0445838   -0.0894119   -0.0024645
c    -0.2865881    3.3566039   -0.1987852  0.00   -0.0107349    0.0372433    0.0015120
c     0.9791182    2.8026000   -0.2464559  0.00    0.0069455    0.0352037   -0.0001136
c     1.1062444    1.4237146   -0.2847295  0.00    0.0275261    0.0285079    0.0013793
n     0.3659845   -0.7091866   -0.2828328  0.00    0.0702544    0.0489043    0.0004191
c     2.2225824    0.5930753   -0.3087797  0.00    0.0795062   -0.0411578    0.0045935
c     1.7691942   -0.6953789   -0.3101587  0.00   -0.0487940   -0.0466871    0.0007310
h    -0.2546868   -1.5351734   -0.2761030  0.00    0.0135942    0.0169107    0.0008126
c     3.6608725    1.0458573   -0.2676499  0.00    0.0282302    0.0033767   -0.0051773
c     4.2385669    1.4527450   -1.6360926  0.00   -0.0189917   -0.0540720    0.0534397
h     4.2763168    0.2216325    0.1520282  0.00    0.0114740    0.0077845   -0.0053552
h     3.7589145    1.8901478    0.4480822  0.00   -0.0019499   -0.0028931    0.0018448
c     5.7585069    1.5775391   -1.5203235  0.00    0.1389395    0.0503485   -0.1465978
n     3.6522710    2.7432664   -2.1163138  0.00    0.0141881    0.0503716   -0.0344419
h     4.0508796    0.6569208   -2.3879154  0.00   -0.0000422    0.0102345   -0.0035355
h     4.4126248    3.4449924   -2.1909619  0.00   -0.0019026   -0.0295377    0.0041042
h     3.3171920    2.6091374   -3.0946477  0.00    0.0045145   -0.0005782    0.0065866
h    -2.3956244    2.9956751   -0.1448078  0.00   -0.0006306   -0.0000007    0.0000582
h    -2.1593402    0.5277304   -0.2034974  0.00   -0.0038322    0.0000744    0.0002403
h    -0.3992744    4.4384302   -0.1678174  0.00    0.0007012    0.0010220    0.0002418
h     1.8572985    3.4441561   -0.2516799  0.00    0.0005996    0.0026997    0.0003614
h     2.3454410   -1.6139074   -0.2863463  0.00   -0.0204421   -0.0087657    0.0014311
o     6.5321097    1.8329297   -2.5320843  0.00   -0.0921296   -0.0208274    0.1217545
o     6.2710758    1.3730606   -0.2627190  0.00   -0.0817184    0.0337982    0.0049771
h     6.9204841    0.5830446   -0.3544221  0.00   -0.0011509   -0.0339114   -0.0093430
    27
 Energy =       0.2012097981
c    -1.4094399    2.5199570   -0.2184059  0.00   -0.0202172    0.0165484    0.0011856
c    -1.2814456    1.1483676   -0.2802662  0.00   -0.0364686   -0.0158568    0.0010621
c    -0.0159604    0.6231798   -0.3206520  0.00   -0.0358134   -0.0712469   -0.0012300
c    -0.2934840    3.3304328   -0.1953275  0.00   -0.0083814    0.0304696    0.0011398
c     0.9704548    2.7802634   -0.2291018  0.00    0.0058920    0.0288213   -0.0002388
c     1.0969284    1.4074458   -0.2912125  0.00    0.0224967    0.0235079    0.0009984
n     0.3620098   -0.7302175   -0.3784178  0.00    0.0555523    0.0385801   -0.0006149
c     2.2111942    0.5896130   -0.3084647  0.00    0.0649816   -0.0326202    0.0035604
c     1.7716510   -0.6989855   -0.3497879  0.00   -0.0383362   -0.0374067    0.0012112
h    -0.2562164   -1.5614198   -0.4243671  0.00    0.0096867    0.0118907    0.0003837
c     3.6480856    1.0454237   -0.2352334  0.00    0.0233218    0.0028769   -0.0042120
c     4.2403791    1.4606220   -1.5937614  0.00   -0.0152908   -0.0437368    0.0434316
h     4.2628454    0.2221331    0.1893886  0.00    0.0097599    0.0064174   -0.0044346
h     3.7333231    1.8882756    0.4841607  0.00   -0.0015921   -0.0022859    0.0015688
c     5.7558303    1.6015818   -1.4630549  0.00    0.1122380    0.0398226   -0.1188571
n     3.6327043    2.7368873   -2.0741115  0.00    0.0109738    0.0406485   -0.0278309
h     4.0722859    0.6586084   -2.3452523  0.00   -0.0000262    0.0081127   -0.0029768
h     4.3760666    3.4599702   -2.1497631  0.00   -0.0011623   -0.0235946    0.0032897
h     3.2932660    2.5957749   -3.0508915  0.00    0.0036234   -0.0004543    0.0052795
h    -2.4008605    2.9658690   -0.1875529  0.00   -0.0006108   -0.0000399    0.0000525
h    -2.1560283    0.5025863   -0.2973173  0.00   -0.0036101   -0.0003800    0.0001976
h    -0.4087643    4.4113466   -0.1465009  0.00    0.0006514    0.0010140    0.0001929
h     1.8480506    3.4222543   -0.2056575  0.00    0.0008315    0.0024451    0.0002865
h     2.3671094   -1.6058328   -0.3316858  0.00   -0.0165382   -0.0073233    0.0012934
o     6.5352018    1.8864382   -2.4851801  0.00   -0.0742952   -0.0164189    0.0984539
o     6.2800614    1.4142059   -0.2042837  0.00   -0.0855191    0.0444793    0.0073915
h     7.0618947    0.7417978   -0.3159479  0.00    0.0178524   -0.0442700   -0.0105840
    27
 Energy =       0.1924315725
c    -1.4112965    2.4889683   -0.2474820  0.00   -0.0157179    0.0127725    0.0009361
c    -1.2759249    1.1222857   -0.3238290  0.00   -0.0282707   -0.0123700    0.0009369
c    -0.0124602    0.6039664   -0.3547988  0.00   -0.0277652   -0.0550784   -0.0006448
c    -0.3007612    3.3014906   -0.2013419  0.00   -0.0063314    0.0236799    0.0008329
c     0.9620397    2.7568626   -0.2249467  0.00    0.0047190    0.0223920   -0.0002789
c     1.0907327    1.3901361   -0.3016536  0.00    0.0174396    0.0183357    0.0006783
n     0.3672801   -0.7517852   -0.4306819  0.00    0.0426097    0.0296938   -0.0008168
c     2.2043033    0.5864757   -0.3132607  0.00    0.0503962   -0.0249132    0.0026195
c     1.7812360   -0.7024237   -0.3788156  0.00   -0.0296397   -0.0289052    0.0011750
h    -0.2458910   -1.5880539   -0.4986862  0.00    0.0072592    0.0088379    0.0002119
c     3.6386831    1.0479358   -0.2137512  0.00    0.0182113    0.0022841   -0.0033303
c     4.2465812    1.4664331   -1.5635512  0.00   -0.0117427   -0.0344542    0.0340111
h     4.2534654    0.2289106    0.2203874  0.00    0.0079496    0.0050581   -0.0035111
h     3.7095727    1.8929767    0.5050838  0.00   -0.0012614   -0.0016908    0.0013051
c     5.7556721    1.6469991   -1.4114802  0.00    0.0866041    0.0297386   -0.0917914
n     3.6026831    2.7149095   -2.0603045  0.00    0.0069265    0.0316077   -0.0213114
h     4.1127349    0.6487761   -2.3070786  0.00   -0.0000285    0.0056909   -0.0027135
h     4.3175171    3.4699973   -2.1363935  0.00   -0.0000243   -0.0172047    0.0024713
h     3.2709890    2.5530597   -3.0376777  0.00    0.0026101   -0.0004640    0.0037099
h    -2.4048770    2.9304250   -0.2243026  0.00   -0.0005264   -0.0000374    0.0000446
h    -2.1463457    0.4724104   -0.3608679  0.00   -0.0029678   -0.0004327    0.0001589
h    -0.4206830    4.3812741   -0.1420347  0.00    0.0005392    0.0008600    0.0001466
h     1.8372902    3.4006582   -0.1832358  0.00    0.0008015    0.0019817    0.0002181
h     2.3970163   -1.5963333   -0.3654858  0.00   -0.0126726   -0.0058528    0.0010662
o     6.5407300    1.9657161   -2.4410671  0.00   -0.0568755   -0.0119332    0.0759506
o     6.2889969    1.4839573   -0.1497022  0.00   -0.0734976    0.0408602    0.0070094
h     7.1378589    0.9005509   -0.2616897  0.00    0.0212559   -0.0404565   -0.0090840
    27
 Energy =       0.1881508643
c    -1.4141669    2.4491988   -0.2631004  0.00   -0.0131745    0.0106583    0.0007853
c    -1.2688348    1.0862283   -0.3521685  0.00   -0.0236124   -0.0103997    0.0008258
c    -0.0044109    0.5769060   -0.3775751  0.00   -0.0232088   -0.0459055   -0.0004185
c    -0.3102645    3.2669985   -0.1989903  0.00   -0.0051686    0.0198413    0.0006708
c     0.9539893    2.7306147   -0.2169144  0.00    0.0040317    0.0187583   -0.0002793
c     1.0898066    1.3682284   -0.3070744  0.00    0.0145780    0.0153563    0.0005172
n     0.3823995   -0.7782445   -0.4671652  0.00    0.0353728    0.0246341   -0.0007978
c     2.2063198    0.5773204   -0.3184819  0.00    0.0420718   -0.0205616    0.0021563
c     1.7983338   -0.7128994   -0.4032956  0.00   -0.0247359   -0.0241395    0.0010610
h    -0.2241086   -1.6196069   -0.5496012  0.00    0.0059336    0.0071703    0.0001391
c     3.6371212    1.0482004   -0.2033369  0.00    0.0150041    0.0018594   -0.0028138
c     4.2502563    1.4820092   -1.5458244  0.00   -0.0098933   -0.0293996    0.0287341
h     4.2574901    0.2321348    0.2291768  0.00    0.0067905    0.0042093   -0.0029718
h     3.6958026    1.8898481    0.5209451  0.00   -0.0010679   -0.0013244    0.0011565
c     5.7519405    1.7091574   -1.3783166  0.00    0.0720401    0.0241229   -0.0763809
n     3.5681953    2.7045402   -2.0516132  0.00    0.0043182    0.0265043   -0.0176886
h     4.1506600    0.6555328   -2.2862954  0.00   -0.0000174    0.0041753   -0.0025568
h     4.2541901    3.4882092   -2.1278415  0.00    0.0007169   -0.0132858    0.0019766
h     3.2431923    2.5265406   -3.0290465  0.00    0.0020468   -0.0004535    0.0028516
h    -2.4107181    2.8840757   -0.2443096  0.00   -0.0004793   -0.0000246    0.0000388
h    -2.1340179    0.4308220   -0.4040719  0.00   -0.0025837   -0.0004533    0.0001316
h    -0.4373429    4.3453444   -0.1298996  0.00    0.0004694    0.0007984    0.0001239
h     1.8249427    3.3788455   -0.1610762  0.00    0.0007684    0.0017260    0.0001812
h     2.4293784   -1.5965857   -0.3976712  0.00   -0.0104798   -0.0050271    0.0009106
o     6.5361616    2.0613984   -2.4103157  0.00   -0.0467227   -0.0093935    0.0630323
o     6.2896859    1.5724575   -0.1131589  0.00   -0.0650561    0.0373140    0.0065886
h     7.1811418    1.0593040   -0.2216254  0.00    0.0220582   -0.0367600   -0.0079738
    27
 Energy =       0.1860782632
c    -1.4174293    2.4017827   -0.2656725  0.00   -0.0117543    0.0094988    0.0006972
c    -1.2596977    1.0420048   -0.3661358  0.00   -0.0209886   -0.0093077    0.0007442
c     0.0077580    0.5440115   -0.3899902  0.00   -0.0206376   -0.0406963   -0.0003217
c    -0.3214421    3.2276540   -0.1887600  0.00   -0.0045254    0.0177023    0.0005860
c     0.9461612    2.7021964   -0.2053288  0.00    0.0036453    0.0167307   -0.0002690
c     1.0928560    1.3433307   -0.3077441  0.00    0.0129512    0.0136627    0.0004349
n     0.4056722   -0.8084715   -0.4920402  0.00    0.0313011    0.0217264   -0.0007546
c     2.2150930    0.5655095   -0.3232940  0.00    0.0373585   -0.0181112    0.0019326
c     1.8223621   -0.7269471   -0.4233084  0.00   -0.0219421   -0.0214737    0.0009673
h    -0.1926026   -1.6555493   -0.5844669  0.00    0.0051804    0.0062144    0.0001012
c     3.6414604    1.0495889   -0.2011571  0.00    0.0129523    0.0015707   -0.0025197
c     4.2510390    1.5042142   -1.5386405  0.00   -0.0089348   -0.0268693    0.0258096
h     4.2724138    0.2374060    0.2238893  0.00    0.0061295    0.0036306   -0.0026327
h     3.6891248    1.8856960    0.5306840  0.00   -0.0009710   -0.0010771    0.0010939
c     5.7436727    1.7828289   -1.3610110  0.00    0.0637551    0.0210118   -0.0677493
n     3.5286329    2.7004005   -2.0496180  0.00    0.0023412    0.0237219   -0.0157034
h     4.1852522    0.6725195   -2.2779972  0.00    0.0000082    0.0031311   -0.0025004
h     4.1845534    3.5109692   -2.1255859  0.00    0.0013313   -0.0106760    0.0016610
h     3.2105714    2.5083440   -3.0270429  0.00    0.0017101   -0.0004581    0.0023309
h    -2.4177501    2.8279864   -0.2480147  0.00   -0.0004701   -0.0000012    0.0000358
h    -2.1185879    0.3795154   -0.4285382  0.00   -0.0023682   -0.0004716    0.0001127
h    -0.4579135    4.3042449   -0.1106659  0.00    0.0004211    0.0007999    0.0001149
h     1.8112944    3.3570698   -0.1395366  0.00    0.0007497    0.0015931    0.0001634
h     2.4666582   -1.6012771   -0.4271845  0.00   -0.0092091   -0.0046025    0.0008135
o     6.5215640    2.1662332   -2.3940911  0.00   -0.0407498   -0.0079298    0.0556521
o     6.2835141    1.6772601   -0.0923596  0.00   -0.0593771    0.0347879    0.0063839
h     7.2029124    1.2180571   -0.1950374  0.00    0.0220932   -0.0341077   -0.0071841
    27
 Energy =       0.1852595091
c    -1.4201134    2.3491655   -0.2568391  0.00   -0.0110164    0.0089042    0.0006500
c    -1.2483929    0.9923131   -0.3669444  0.00   -0.0195939   -0.0087380    0.0006907
c     0.0233697    0.5073881   -0.3929397  0.00   -0.0192560   -0.0378565   -0.0002807
c    -0.3329020    3.1850778   -0.1724462  0.00   -0.0042012    0.0165848    0.0005452
c     0.9392362    2.6725091   -0.1914909  0.00    0.0034547    0.0156596   -0.0002581
c     1.0991717    1.3167292   -0.3044329  0.00    0.0120577    0.0127469    0.0003927
n     0.4349427   -0.8410759   -0.5061928  0.00    0.0290825    0.0201046   -0.0007239
c     2.2289161    0.5526010   -0.3274665  0.00    0.0348068   -0.0168013    0.0018376
c     1.8516955   -0.7427549   -0.4385769  0.00   -0.0203847   -0.0200543    0.0009052
h    -0.1540524   -1.6944545   -0.6045982  0.00    0.0047559    0.0056674    0.0000789
c     3.6502794    1.0527699   -0.2055993  0.00    0.0116065    0.0013752   -0.0023517
c     4.2490805    1.5302676   -1.5404800  0.00   -0.0084780   -0.0259259    0.0242787
h     4.2956629    0.2460627    0.2086712  0.00    0.0058240    0.0032054   -0.0024078
h     3.6881171    1.8827054    0.5341612  0.00   -0.0009365   -0.0009072    0.0010819
c     5.7306855    1.8639863   -1.3572651  0.00    0.0591972    0.0193523   -0.0633168
n     3.4844260    2.6984160   -2.0548059  0.00    0.0005959    0.0223454   -0.0147066
h     4.2166354    0.6953369   -2.2791739  0.00    0.0000483    0.0023374   -0.0025196
h     4.1085789    3.5348667   -2.1305529  0.00    0.0019202   -0.0087495    0.0014446
h     3.1738177    2.4930041   -3.0321555  0.00    0.0014936   -0.0004833    0.0019793
h    -2.4247226    2.7651716   -0.2373799  0.00   -0.0004972    0.0000309    0.0000350
h    -2.1002964    0.3215796   -0.4355138  0.00   -0.0022642   -0.0004933    0.0001001
h    -0.4802162    4.2596833   -0.0865914  0.00    0.0003840    0.0008397    0.0001137
h     1.7975868    3.3355701   -0.1200013  0.00    0.0007506    0.0015366    0.0001572
h     2.5082162   -1.6079805   -0.4529503  0.00   -0.0084753   -0.0044246    0.0007565
o     6.4979981    2.2746585   -2.3919419  0.00   -0.0372788   -0.0070831    0.0516205
o     6.2707675    1.7961722   -0.0850568  0.00   -0.0555791    0.0333009    0.0065440
h     7.2086552    1.3768102   -0.1800849  0.00    0.0219836   -0.0324741   -0.0066465
    27
 Energy =       0.1852952184
c    -1.4211460    2.2939019   -0.2381422  0.00   -0.0107447    0.0086758    0.0006311
c    -1.2348462    0.9397420   -0.3559008  0.00   -0.0190307   -0.0085150    0.0006625
c     0.0418653    0.4687920   -0.3872363  0.00   -0.0186724   -0.0366010   -0.0002652
c    -0.3430362    3.1409684   -0.1513379  0.00   -0.0040887    0.0161526    0.0005325
c     0.9342087    2.6423527   -0.1761207  0.00    0.0034074    0.0152235   -0.0002509
c     1.1084840    1.2893297   -0.2976187  0.00    0.0116552    0.0123566    0.0003726
n     0.4683257   -0.8748418   -0.5102897  0.00    0.0280690    0.0193457   -0.0007140
c     2.2466432    0.5391446   -0.3308195  0.00    0.0336957   -0.0162523    0.0018210
c     1.8846860   -0.7595123   -0.4490594  0.00   -0.0196342   -0.0194605    0.0008741
h    -0.1109460   -1.7348431   -0.6109118  0.00    0.0045402    0.0053813    0.0000640
c     3.6626863    1.0572488   -0.2156285  0.00    0.0107200    0.0012364   -0.0022538
c     4.2445042    1.5580078   -1.5501940  0.00   -0.0083410   -0.0261092    0.0236527
h     4.3253250    0.2576073    0.1855564  0.00    0.0057921    0.0028755   -0.0022544
h     3.6921726    1.8809660    0.5317838  0.00   -0.0009453   -0.0007922    0.0011036
c     5.7128539    1.9496882   -1.3654769  0.00    0.0570982    0.0186207   -0.0618885
n     3.4361077    2.6958209   -2.0668663  0.00   -0.0011225    0.0219095   -0.0143874
h     4.2449289    0.7211478   -2.2881039  0.00    0.0001044    0.0016813   -0.0025977
h     4.0266599    3.5572682   -2.1427942  0.00    0.0025244   -0.0071846    0.0012861
h     3.1333488    2.4771601   -3.0439779  0.00    0.0013482   -0.0005275    0.0017212
h    -2.4302165    2.6988970   -0.2143716  0.00   -0.0005574    0.0000675    0.0000362
h    -2.0795106    0.2601472   -0.4265540  0.00   -0.0022452   -0.0005228    0.0000921
h    -0.5017853    4.2134754   -0.0591979  0.00    0.0003552    0.0009029    0.0001175
h     1.7853378    3.3144721   -0.1029715  0.00    0.0007751    0.0015357    0.0001592
h     2.5524635   -1.6158933   -0.4745890  0.00   -0.0080930   -0.0044121    0.0007289
o     6.4665027    2.3821053   -2.4032939  0.00   -0.0354817   -0.0066329    0.0498444
o     6.2508503    1.9278627   -0.0897322  0.00   -0.0531304    0.0327817    0.0072467
h     7.2006753    1.5355634   -0.1747994  0.00    0.0220020   -0.0317366   -0.0063344
    27
 Energy =       0.1815666985
c    -1.4516057    2.2386091   -0.3186121  0.00   -0.0090585    0.0066614    0.0005154
c    -1.2437220    0.8918739   -0.4658066  0.00   -0.0153145   -0.0073596    0.0005861
c     0.0377042    0.4397531   -0.4798229  0.00   -0.0150378   -0.0291584    0.0000246
c    -0.3878514    3.0970206   -0.1860631  0.00   -0.0027271    0.0132919    0.0004762
c     0.8949326    2.6162732   -0.1924002  0.00    0.0031150    0.0124717   -0.0001576
c     1.0881248    1.2710802   -0.3429799  0.00    0.0094681    0.0098842    0.0002565
n     0.4830057   -0.8973396   -0.6270431  0.00    0.0210777    0.0148866   -0.0009121
c     2.2342710    0.5410645   -0.3606335  0.00    0.0261055   -0.0124728    0.0013435
c     1.8978124   -0.7587761   -0.5198540  0.00   -0.0150041   -0.0156653    0.0008806
h    -0.0813002   -1.7639335   -0.7669180  0.00    0.0028126    0.0029567   -0.0001781
c     3.6400805    1.0718460   -0.1785166  0.00    0.0090895    0.0008160   -0.0009863
c     4.2710076    1.6024843   -1.4803630  0.00   -0.0068134   -0.0199359    0.0177303
h     4.2900266    0.2672258    0.2336899  0.00    0.0047200    0.0021850   -0.0016881
h     3.6364548    1.8810557    0.5859576  0.00   -0.0006154   -0.0001480    0.0015310
c     5.7346774    1.9827547   -1.2391109  0.00    0.0446147    0.0137926   -0.0501104