    13
 Energy =       0.1434060749
c    -3.7133889    1.6950595    0.3173519  0.00   -0.0469167    0.0535923    0.1614956
c    -2.4962693    2.6345192    0.2419999  0.00    0.2001847    0.1167735   -0.3153065
c    -4.9565486    2.3924193   -0.2155699  0.00    0.0155388   -0.0032059   -0.0020850
h    -5.2099685    3.2528291    0.4143399  0.00    0.0030546   -0.0138288   -0.0104525
h    -5.8205883    1.7190695   -0.2147749  0.00    0.0126008    0.0117019   -0.0021077
h    -4.8083986    2.7651692   -1.2348596  0.00   -0.0062782   -0.0029371    0.0189536
n    -3.4097890    0.4519539   -0.4549189  0.00    0.0455734   -0.0400759   -0.0564628
h    -3.8575589    1.4177196    1.3669296  0.00    0.1092834    0.0974269    0.0427658
h    -4.2340588    0.2238779   -1.0206697  0.00    0.0218524    0.0309206    0.0218580
h    -2.6878492    0.6694128   -1.1486897  0.00   -0.0286566    0.0125478    0.0380719
o    -1.9513094    3.0041591   -0.7839488  0.00   -0.1318336   -0.0961064    0.2479082
o    -2.1005994    3.0267291    1.4825496  0.00   -0.0692411   -0.0546851    0.0082244
h    -2.6645092    2.5096893    2.1108994  0.00   -0.1251619   -0.1121238   -0.1528632
    13
 Energy =       0.0982914020
c    -3.6873576    1.6854691    0.2786286  0.00   -0.0092960    0.0264655    0.0726361
c    -2.5411817    2.6918577    0.2517730  0.00    0.0757827    0.0478602   -0.1227516
c    -5.0183814    2.3415742   -0.1268928  0.00    0.0032588    0.0034528    0.0006837
h    -5.2704328    3.1677995    0.5677574  0.00   -0.0004784   -0.0041401   -0.0022462
h    -5.8442146    1.6036685   -0.0759650  0.00    0.0020925    0.0022435    0.0006368
h    -4.9671517    2.7595147   -1.1556273  0.00   -0.0027696    0.0017822    0.0025015
n    -3.3898335    0.4973589   -0.5677748  0.00    0.0198624   -0.0216303   -0.0224137
h    -3.7550198    1.3444011    1.3313264  0.00    0.0606955    0.0528314    0.0304684
h    -4.2103642    0.2534526   -1.1565386  0.00    0.0095383    0.0115456    0.0067332
h    -2.6402068    0.7289149   -1.2513496  0.00   -0.0103100    0.0067665    0.0151493
o    -1.9309513    3.0504984   -0.8660131  0.00   -0.0503074   -0.0442816    0.0960958
o    -2.1407478    3.1652798    1.4776963  0.00   -0.0076166    0.0254445   -0.0298297
h    -2.5149930    2.4728182    2.1536182  0.00   -0.0904521   -0.1083403   -0.0476636
    13
 Energy =       0.0859754697
c    -3.6939091    1.6592627    0.2591388  0.00   -0.0017225    0.0188687    0.0456223
c    -2.4862175    2.5968212    0.2417938  0.00    0.0412784    0.0280613   -0.0635632
c    -5.0010399    2.4185941   -0.0590672  0.00   -0.0005384    0.0038243   -0.0035847
h    -5.1422931    3.2694881    0.6494131  0.00   -0.0010210    0.0025259    0.0027576
h    -5.8804349    1.7418950    0.0419609  0.00   -0.0029700   -0.0008685    0.0005286
h    -4.9772393    2.8265932   -1.0940110  0.00   -0.0013550    0.0006284    0.0006382
n    -3.5253590    0.4845107   -0.6435187  0.00    0.0150171   -0.0225117   -0.0097300
h    -3.7342473    1.2831351    1.3055856  0.00    0.0400051    0.0333726    0.0213168
h    -4.3691173    0.3495673   -1.2532198  0.00   -0.0038638    0.0044706   -0.0025416
h    -2.7309808    0.6458724   -1.3078152  0.00   -0.0005029    0.0055308    0.0054722
o    -1.8479512    2.9225182   -0.9086181  0.00   -0.0250759   -0.0241542    0.0500061
o    -2.0486319    3.0853319    1.4571323  0.00   -0.0006392    0.0209052   -0.0202346
h    -2.4734149    2.4790177    2.1718642  0.00   -0.0586118   -0.0706534   -0.0266875
    13
 Energy =       0.0808593568
c    -3.7227469    1.6692118    0.2746610  0.00   -0.0000459    0.0129849    0.0289651
c    -2.4906425    2.5760915    0.2747595  0.00    0.0246251    0.0184370   -0.0385056
c    -4.9924520    2.4447479   -0.1468920  0.00   -0.0030257    0.0032541   -0.0009429
h    -5.1507756    3.3300878    0.5146003  0.00   -0.0014462    0.0029117    0.0027778
h    -5.8914423    1.7923964   -0.0634906  0.00   -0.0025188   -0.0007339    0.0006976
h    -4.9013302    2.8044195   -1.1994780  0.00   -0.0006070    0.0015411   -0.0028216
n    -3.5449891    0.4488256   -0.5610517  0.00    0.0038745   -0.0178861    0.0062359
h    -3.8376396    1.3468146    1.3378686  0.00    0.0263848    0.0218007    0.0186086
h    -4.3350877    0.3345321   -1.2483490  0.00   -0.0086985    0.0028361   -0.0060418
h    -2.6660874    0.5126466   -1.1490621  0.00    0.0143397    0.0034679   -0.0069244
o    -1.8052715    2.8485350   -0.8803493  0.00   -0.0133348   -0.0152221    0.0284890
o    -2.0599409    3.0981145    1.4832349  0.00    0.0008009    0.0158267   -0.0145548
h    -2.5124306    2.5561842    2.2241871  0.00   -0.0403481   -0.0492181   -0.0159829
    13
 Energy =       0.0788441770
c    -3.7106866    1.6726449    0.2904794  0.00    0.0007226    0.0121510    0.0245540
c    -2.4914702    2.5983244    0.2660488  0.00    0.0201523    0.0149342   -0.0318584
c    -4.9834950    2.4182429   -0.1733251  0.00   -0.0031098    0.0032573   -0.0005145
h    -5.1513969    3.3323420    0.4465076  0.00   -0.0013804    0.0035428    0.0030836
h    -5.8790900    1.7650956   -0.0652264  0.00   -0.0023613   -0.0009288    0.0006726
h    -4.8876263    2.7304070   -1.2413890  0.00   -0.0005313    0.0017287   -0.0036031
n    -3.5076499    0.4303263   -0.5046064  0.00    0.0095014   -0.0167510    0.0266001
h    -3.8326471    1.3824186    1.3630212  0.00    0.0228091    0.0185672    0.0167258
h    -4.3678440    0.1956361   -1.0895959  0.00   -0.0269084   -0.0030458   -0.0177737
h    -2.7041632    0.5543260   -1.1963510  0.00    0.0251943    0.0068264   -0.0149328
o    -1.8501769    2.8957707   -0.9125813  0.00   -0.0105141   -0.0122319    0.0228963
o    -2.0474967    3.1490989    1.4583399  0.00    0.0015582    0.0146585   -0.0127066
h    -2.4970937    2.6379742    2.2193170  0.00   -0.0351325   -0.0427085   -0.0131433
    13
 Energy =       0.0771740241
c    -3.6946424    1.6621260    0.2838820  0.00   -0.0001585    0.0107612    0.0224626
c    -2.5170947    2.6419946    0.2682187  0.00    0.0142560    0.0097744   -0.0194939
c    -5.0037940    2.3649000   -0.1460473  0.00   -0.0031072    0.0039782   -0.0002579
h    -5.2001006    3.2593524    0.4939079  0.00   -0.0015432    0.0037338    0.0029190
h    -5.8710193    1.6730030   -0.0407425  0.00   -0.0029090   -0.0014394    0.0008648
h    -4.9338004    2.7034169   -1.2083158  0.00   -0.0002517    0.0018152   -0.0036908
n    -3.4491719    0.4508597   -0.5460767  0.00    0.0080862   -0.0166511    0.0228589
h    -3.7924731    1.3352396    1.3484082  0.00    0.0192898    0.0153405    0.0150862
h    -4.2992724    0.2011829   -1.1349545  0.00   -0.0232044   -0.0028797   -0.0154188
h    -2.6516567    0.6175328   -1.2335501  0.00    0.0228000    0.0058388   -0.0137997
o    -1.9528585    3.0545238   -0.9253897  0.00   -0.0041240   -0.0062738    0.0094146
o    -2.0547816    3.1597949    1.4704453  0.00    0.0012145    0.0125765   -0.0099152
h    -2.4901708    2.6386811    2.2308532  0.00   -0.0303484   -0.0365746   -0.0110299
    13
 Energy =       0.0736786418
c    -3.6885710    1.6675098    0.3040459  0.00   -0.0006535    0.0041840    0.0103495
c    -2.5225480    2.6635657    0.2156190  0.00    0.0040048    0.0019725   -0.0079230
c    -5.0093990    2.3303686   -0.1393511  0.00   -0.0012144    0.0017316    0.0000423
h    -5.2084918    3.2486965    0.4615361  0.00   -0.0006148    0.0023398    0.0018343
h    -5.8649006    1.6325230    0.0051127  0.00   -0.0017471   -0.0012515    0.0003569
h    -4.9558612    2.6217775   -1.2155292  0.00   -0.0001755    0.0012544   -0.0027203
n    -3.4469456    0.4276641   -0.4760730  0.00    0.0038953   -0.0087169    0.0146754
h    -3.7733255    1.3844407    1.3821108  0.00    0.0097102    0.0073506    0.0091248
h    -4.3102533    0.1119124   -1.0002741  0.00   -0.0145226   -0.0027714   -0.0109314
h    -2.7032631    0.5862420   -1.2131792  0.00    0.0130535    0.0034412   -0.0076739
o    -2.0319324    3.0539047   -1.0252793  0.00   -0.0002021   -0.0010701   -0.0007766
o    -1.9928222    3.2365684    1.3709482  0.00    0.0061763    0.0124174   -0.0054883
h    -2.4025226    2.7974342    2.1909518  0.00   -0.0177101   -0.0208815   -0.0008696
    13
 Energy =       0.0737937252
c    -3.6820976    1.6743477    0.3135360  0.00   -0.0013803    0.0031904    0.0093419
c    -2.5272094    2.6777548    0.1468070  0.00    0.0031276    0.0010264   -0.0067980
c    -5.0273652    2.3146322   -0.0897213  0.00   -0.0013593    0.0016934    0.0002318
h    -5.2128994    3.2413437    0.5022261  0.00   -0.0005199    0.0022206    0.0018344
h    -5.8692747    1.6098200    0.1004111  0.00   -0.0024890   -0.0017479    0.0004837
h    -5.0188974    2.5872181   -1.1729983  0.00   -0.0002008    0.0014022   -0.0036005
n    -3.4648471    0.4149568   -0.4433396  0.00    0.0028070   -0.0087012    0.0130701
h    -3.7209909    1.4187172    1.4026009  0.00    0.0085125    0.0061577    0.0096163
h    -4.3307735    0.1074159   -0.9661123  0.00   -0.0131508   -0.0025224   -0.0098260
h    -2.7155826    0.5422321   -1.1802479  0.00    0.0122736    0.0030254   -0.0076048
o    -2.1039222    3.0464621   -1.1274779  0.00    0.0010040    0.0001085   -0.0042198
o    -1.9357738    3.2738251    1.2622144  0.00    0.0080088    0.0137455   -0.0041028
h    -2.3012025    2.8538819    2.1127404  0.00   -0.0166333   -0.0195987    0.0015736
    13
 Energy =       0.0744253077
c    -3.6801301    1.6841362    0.3221672  0.00   -0.0024828    0.0023063    0.0086160
c    -2.5386522    2.6876780    0.0559368  0.00    0.0018175   -0.0007537   -0.0063959
c    -5.0537832    2.3080622   -0.0115103  0.00   -0.0023978    0.0018194    0.0006684
h    -5.2158279    3.2374353    0.5831041  0.00   -0.0005711    0.0022290    0.0020346
h    -5.8773707    1.5953694    0.2299374  0.00   -0.0036121   -0.0023066    0.0008052
h    -5.1075746    2.5721886   -1.0972017  0.00   -0.0003114    0.0016602   -0.0052478
n    -3.5062700    0.4031170   -0.4127460  0.00    0.0018225   -0.0098792    0.0161826
h    -3.6544681    1.4576029    1.4205731  0.00    0.0075096    0.0051119    0.0113260
h    -4.3616539    0.1476205   -0.9826495  0.00   -0.0159648   -0.0031010   -0.0107265
h    -2.7091509    0.4715035   -1.1103734  0.00    0.0159065    0.0032657   -0.0109255
o    -2.2145763    3.0416520   -1.2552275  0.00    0.0023608    0.0017165   -0.0107878
o    -1.8489290    3.2852651    1.1179955  0.00    0.0120910    0.0174342   -0.0019111
h    -2.1424494    2.8709770    2.0006331  0.00   -0.0161680   -0.0195027    0.0063618
    13
 Energy =       0.0735574021
c    -3.6662776    1.6674923    0.3133212  0.00   -0.0031386    0.0019570    0.0057827
c    -2.5357181    2.6965213    0.1107622  0.00   -0.0003000   -0.0025456   -0.0077797
c    -5.0369305    2.2775983   -0.0510520  0.00   -0.0020249    0.0011516    0.0005002
h    -5.2224432    3.2042375    0.5401431  0.00   -0.0004493    0.0018153    0.0016710
h    -5.8585965    1.5576865    0.1701982  0.00   -0.0028273   -0.0017428    0.0006378
h    -5.0675252    2.5418051   -1.1363758  0.00   -0.0002537    0.0011923   -0.0040667
n    -3.4478350    0.4095492   -0.4469338  0.00    0.0014814   -0.0091375    0.0171669
h    -3.6704972    1.4109913    1.4035069  0.00    0.0050426    0.0030725    0.0087403
h    -4.3197089    0.0959233   -0.9597545  0.00   -0.0165854   -0.0029722   -0.0100127
h    -2.7012368    0.5378587   -1.1915748  0.00    0.0167365    0.0031860   -0.0120929
o    -2.1395282    3.0437236   -1.1827534  0.00    0.0018932    0.0014750   -0.0113652
o    -1.9433366    3.3446115    1.2060671  0.00    0.0126733    0.0170441    0.0009193
h    -2.3012025    2.9746093    2.0850844  0.00   -0.0122478   -0.0144956    0.0098990
    13
 Energy =       0.0734037282
c    -3.6879613    1.6787652    0.3186323  0.00   -0.0032856    0.0011812    0.0057052
c    -2.5173726    2.6692214    0.1402284  0.00   -0.0004165   -0.0033517   -0.0102661
c    -5.0272643    2.3267021   -0.1024580  0.00   -0.0031147    0.0025080    0.0008048
h    -5.2022510    3.2695051    0.4671772  0.00   -0.0008250    0.0023934    0.0019446
h    -5.8801678    1.6376606    0.1045596  0.00   -0.0039703   -0.0024266    0.0010842
h    -5.0137216    2.5737178   -1.1936139  0.00   -0.0001909    0.0017047   -0.0055313
n    -3.4803136    0.4063100   -0.4208020  0.00    0.0023281   -0.0102686    0.0197156
h    -3.7391326    1.4368750    1.4124784  0.00    0.0050134    0.0024183    0.0104970
h    -4.3647005    0.0783276   -0.9058271  0.00   -0.0188265   -0.0040480   -0.0115135
h    -2.7524868    0.5284058   -1.1871094  0.00    0.0188114    0.0035803   -0.0139054
o    -2.1114621    3.0333605   -1.1464838  0.00    0.0021150    0.0017243   -0.0127505
o    -1.8918618    3.2617801    1.2515008  0.00    0.0155528    0.0202982    0.0022826
h    -2.2421404    2.8619763    2.1223562  0.00   -0.0131912   -0.0157135    0.0119328
    13
 Energy =       0.0723219934
c    -3.7179153    1.6969264    0.3246670  0.00   -0.0020384   -0.0013233    0.0033948
c    -2.4940332    2.6318008    0.2007721  0.00   -0.0002222   -0.0041227   -0.0117045
c    -5.0026880    2.3921827   -0.1936556  0.00   -0.0052419    0.0051419    0.0012262
h    -5.1683505    3.3585890    0.3391282  0.00   -0.0015479    0.0030211    0.0019664
h    -5.8984617    1.7484207   -0.0160785  0.00   -0.0055440   -0.0030536    0.0018250
h    -4.9156395    2.6078390   -1.2902599  0.00    0.0001737    0.0023877   -0.0078332
n    -3.5144621    0.4090664   -0.3848804  0.00    0.0047944   -0.0086925    0.0228551
h    -3.8504845    1.4753176    1.4177424  0.00    0.0030163    0.0003109    0.0118776
h    -4.4194910    0.0366891   -0.7982363  0.00   -0.0210923   -0.0067677   -0.0125869
h    -2.8438079    0.5375410   -1.2020015  0.00    0.0193913    0.0040173   -0.0157186
o    -2.0585343    3.0262117   -1.0670989  0.00    0.0022487    0.0019481   -0.0123284
o    -1.8383494    3.1388000    1.3388200  0.00    0.0169029    0.0206654    0.0048005
h    -2.1886191    2.7032232    2.1917202  0.00   -0.0108406   -0.0135327    0.0122261
    13
 Energy =       0.0698773132
c    -3.7423990    1.7156137    0.3246803  0.00    0.0004720   -0.0031632   -0.0006781
c    -2.4808334    2.6008478    0.2869491  0.00    0.0002902   -0.0034256   -0.0053102
c    -4.9576949    2.4424622   -0.3018790  0.00   -0.0050256    0.0047556    0.0007830
h    -5.1237419    3.4269423    0.1935630  0.00   -0.0014069    0.0018475    0.0010858
h    -5.8872211    1.8386103   -0.1748316  0.00   -0.0044928   -0.0019187    0.0015902
h    -4.7859718    2.6259586   -1.3931304  0.00    0.0004063    0.0017247   -0.0067595
n    -3.5254511    0.4266844   -0.3639276  0.00    0.0077959   -0.0011982    0.0258386
h    -3.9708498    1.5054473    1.4017299  0.00    0.0000246   -0.0012998    0.0083009
h    -4.4467043   -0.0207333   -0.6491370  0.00   -0.0227252   -0.0097562   -0.0100703
h    -2.9704440    0.5854922   -1.2588522  0.00    0.0168131    0.0051253   -0.0180063
o    -1.9950677    3.0386089   -0.9453216  0.00    0.0018188    0.0015714   -0.0077604
o    -1.8257350    3.0144691    1.4571097  0.00    0.0096035    0.0111076    0.0048333
h    -2.1987224    2.5622039    2.2836861  0.00   -0.0035739   -0.0053705    0.0061532
    13
 Energy =       0.0681224642
c    -3.7640917    1.7382260    0.3211032  0.00    0.0012061   -0.0019697   -0.0011091
c    -2.4849172    2.5895146    0.3589209  0.00   -0.0011609   -0.0029300   -0.0031661
c    -4.9155223    2.4766139   -0.3953769  0.00   -0.0025358    0.0025573    0.0006011
h    -5.0965149    3.4676928    0.0780450  0.00   -0.0005831    0.0005346    0.0005199
h    -5.8608197    1.8907772   -0.3335847  0.00   -0.0029438   -0.0009261    0.0006747
h    -4.6646264    2.6463351   -1.4708535  0.00    0.0003699    0.0006781   -0.0041844
n    -3.5277147    0.4448574   -0.3418198  0.00    0.0044368    0.0004083    0.0118084
h    -4.0715192    1.5459271    1.3782971  0.00   -0.0009470   -0.0011557    0.0040964
h    -4.4388848   -0.0508138   -0.5335518  0.00   -0.0107963   -0.0049603   -0.0043727
h    -3.0609565    0.6082208   -1.2755992  0.00    0.0071255    0.0034029   -0.0079020
o    -1.9641829    3.0837315   -0.8351045  0.00    0.0011289    0.0008590   -0.0046462
o    -1.8306378    2.9002781    1.5578211  0.00    0.0053324    0.0049356    0.0045776
h    -2.2304482    2.4212469    2.3523420  0.00   -0.0006326   -0.0014340    0.0031024
    13
 Energy =       0.0674213578
c    -3.7862634    1.7792185    0.3259249  0.00    0.0025747    0.0014921    0.0008546
c    -2.5114699    2.6295129    0.3984301  0.00   -0.0034311   -0.0025962   -0.0045342
c    -4.8976339    2.4780642   -0.4875718  0.00   -0.0030085    0.0014928   -0.0002861
h    -5.1184242    3.4831681   -0.0600145  0.00   -0.0008461    0.0016657    0.0010653
h    -5.8375014    1.8832885   -0.4688519  0.00   -0.0018841   -0.0000692    0.0000404
h    -4.5808591    2.6160387   -1.5494839  0.00    0.0005361    0.0002976   -0.0035714
n    -3.5108675    0.4566857   -0.2617253  0.00    0.0053755   -0.0023225    0.0050423
h    -4.1527209    1.6419578    1.3730052  0.00   -0.0015443   -0.0005693    0.0036845
h    -4.4038988   -0.0861297   -0.3857333  0.00   -0.0067587   -0.0045612   -0.0025103
h    -3.0880044    0.5813332   -1.2183174  0.00    0.0030820    0.0024191   -0.0042531
o    -2.0154119    3.2145209   -0.7662704  0.00    0.0011868    0.0014374   -0.0070078
o    -1.8180671    2.8224550    1.6015506  0.00    0.0060418    0.0046803    0.0043179
h    -2.1897139    2.2624938    2.3596963  0.00   -0.0013241   -0.0033665    0.0071580
    13
 Energy =       0.0668878888
c    -3.8052498    1.8192514    0.3317684  0.00    0.0021297    0.0029319    0.0015306
c    -2.5341874    2.6712149    0.4189359  0.00   -0.0021942   -0.0009415   -0.0014851
c    -4.8798404    2.4655417   -0.5676899  0.00   -0.0025008    0.0004914   -0.0006854
h    -5.1299898    3.4875603   -0.2000958  0.00   -0.0007568    0.0019703    0.0009097
h    -5.8117275    1.8604327   -0.5686155  0.00   -0.0005145    0.0002321   -0.0001377
h    -4.5120472    2.5589176   -1.6166041  0.00    0.0003190    0.0002052   -0.0023088
n    -3.5057551    0.4642477   -0.1630034  0.00    0.0027124   -0.0038967    0.0024835
h    -4.2152923    1.7473667    1.3686869  0.00   -0.0010347   -0.0001157    0.0028410
h    -4.3856870   -0.1042564   -0.2269802  0.00   -0.0024630   -0.0026511   -0.0011199
h    -3.1032484    0.5237758   -1.1332069  0.00    0.0014739    0.0007715   -0.0034546
o    -2.0682387    3.3296080   -0.7169161  0.00    0.0009179    0.0009304   -0.0042912
o    -1.8045784    2.7778559    1.6068273  0.00    0.0026673    0.0017924    0.0019864
h    -2.1549942    2.1610914    2.3275320  0.00   -0.0007563   -0.0017202    0.0037314
    13
 Energy =       0.0666045188
c    -3.8241667    1.8544223    0.3377256  0.00    0.0012594    0.0021184    0.0009549
c    -2.5531915    2.7051761    0.4340221  0.00   -0.0045967   -0.0015496   -0.0012463
c    -4.8692942    2.4577184   -0.6231559  0.00   -0.0021195    0.0001681   -0.0004494
h    -5.1305741    3.4946782   -0.3097124  0.00   -0.0006554    0.0018038    0.0006570
h    -5.7999136    1.8510907   -0.6266763  0.00   -0.0002003    0.0001287   -0.0000535
h    -4.4680242    2.5064521   -1.6623751  0.00    0.0003517    0.0001689   -0.0020171
n    -3.5138513    0.4773823   -0.0816535  0.00    0.0013014   -0.0037396    0.0016345
h    -4.2636772    1.8348445    1.3647230  0.00   -0.0009743    0.0001071    0.0022705
h    -4.3910341   -0.0951917   -0.1213554  0.00   -0.0007462   -0.0011482   -0.0004708
h    -3.1031235    0.4850544   -1.0495102  0.00    0.0011154    0.0001857   -0.0027801
o    -2.1382634    3.4593986   -0.6648278  0.00    0.0014032    0.0034045   -0.0084310
o    -1.7694403    2.7092096    1.5942573  0.00    0.0049829    0.0026975    0.0037756
h    -2.0862823    2.0223721    2.2691773  0.00   -0.0011214   -0.0043454    0.0061557
    13
 Energy =       0.0663057445
c    -3.8444892    1.8932740    0.3459091  0.00    0.0013527    0.0039907    0.0011373
c    -2.5707078    2.7400552    0.4396892  0.00   -0.0007999   -0.0002625    0.0008738
c    -4.8458971    2.4305439   -0.6986878  0.00   -0.0027032   -0.0001025   -0.0006000
h    -5.1158499    3.4881180   -0.4684655  0.00   -0.0010066    0.0029270    0.0006311
h    -5.7778226    1.8260956   -0.6996769  0.00   -0.0001007    0.0000491    0.0000131
h    -4.4001043    2.4080761   -1.7214921  0.00    0.0008288    0.0000683   -0.0030601
n    -3.5297352    0.4856327    0.0418796  0.00    0.0005833   -0.0061479    0.0030666
h    -4.3215653    1.9528790    1.3557445  0.00   -0.0010355    0.0003096    0.0033303
h    -4.4086665   -0.0846457    0.0281089  0.00   -0.0000755   -0.0007072   -0.0001099
h    -3.0969169    0.4147149   -0.9147858  0.00    0.0019698   -0.0006151   -0.0045188
o    -2.1945065    3.5565675   -0.6231930  0.00    0.0006685    0.0006531   -0.0022251
o    -1.7517586    2.6858824    1.5674895  0.00    0.0005312    0.0000456    0.0009576
h    -2.0528165    1.9654141    2.2081192  0.00   -0.0002130   -0.0002084    0.0005040
    13
 Energy =       0.0661840472
c    -3.8529380    1.9084105    0.3500639  0.00    0.0005198    0.0020424    0.0001717
c    -2.5763335    2.7508164    0.4474187  0.00   -0.0037630   -0.0024229    0.0013327
c    -4.8449422    2.4354150   -0.7062466  0.00   -0.0015595   -0.0000549   -0.0002817
h    -5.1146430    3.4942634   -0.4882948  0.00   -0.0005011    0.0015268    0.0003390
h    -5.7777098    1.8323078   -0.7089867  0.00   -0.0000547    0.0000291    0.0000079
h    -4.3909303    2.4037629   -1.7235613  0.00    0.0004273    0.0000426   -0.0016212
n    -3.5427708    0.4977028    0.0650164  0.00    0.0004039   -0.0032247    0.0016540
h    -4.3344504    1.9816581    1.3553571  0.00   -0.0005462    0.0001990    0.0018093
h    -4.4240089   -0.0690721    0.0566187  0.00   -0.0000598   -0.0003921   -0.0000610
h    -3.1084611    0.4129451   -0.8882935  0.00    0.0010437   -0.0002937   -0.0024064
o    -2.2541532    3.6557368   -0.5658336  0.00    0.0008259    0.0049798   -0.0080277
o    -1.7072618    2.6134148    1.5339998  0.00    0.0036398    0.0004777    0.0040168
h    -1.9822334    1.8452461    2.1333805  0.00   -0.0003761   -0.0029091    0.0030666
    13
 Energy =       0.0660069593
c    -3.8722591    1.9434923    0.3566506  0.00    0.0009573    0.0033489    0.0004343
c    -2.5878907    2.7756371    0.4473844  0.00    0.0005691    0.0000457    0.0006529
c    -4.8152514    2.4054115   -0.7740569  0.00   -0.0021465    0.0000679   -0.0005398
h    -5.0868262    3.4780521   -0.6364897  0.00   -0.0008119    0.0022469    0.0002380
h    -5.7518880    1.8083287   -0.7773292  0.00   -0.0001313    0.0000656    0.0000268
h    -4.3180830    2.3062474   -1.7673172  0.00    0.0009058   -0.0001271   -0.0024116
n    -3.5725162    0.5107939    0.1846885  0.00    0.0003150   -0.0048033    0.0033418
h    -4.3891734    2.0947210    1.3365174  0.00   -0.0010575    0.0004340    0.0027779
h    -4.4613856   -0.0441429    0.1909384  0.00   -0.0001598   -0.0004187    0.0000716
h    -3.1106226    0.3503943   -0.7467127  0.00    0.0019652   -0.0008805   -0.0038509
o    -2.3034568    3.7366475   -0.5167322  0.00    0.0002545   -0.0004840    0.0000320
o    -1.6870826    2.5911386    1.4939525  0.00   -0.0006338   -0.0004172    0.0001794
h    -1.9544008    1.8058860    2.0691447  0.00   -0.0000262    0.0009217   -0.0009524
    13
 Energy =       0.0659252024
c    -3.8860316    1.9558434    0.3549397  0.00    0.0001979    0.0002587    0.0015487
c    -2.6271787    2.8256818    0.4661445  0.00   -0.0002721   -0.0027242    0.0026385
c    -4.7973496    2.3498564   -0.8247828  0.00   -0.0011925   -0.0004955   -0.0008582
h    -5.1040368    3.4166857   -0.7338962  0.00   -0.0003298    0.0008715    0.0002628
h    -5.7165134    1.7255197   -0.8445366  0.00   -0.0006309   -0.0001913   -0.0003697
h    -4.2597414    2.2328470   -1.7924446  0.00    0.0001127   -0.0002978   -0.0005204
n    -3.5459503    0.5284072    0.2447308  0.00    0.0011821   -0.0007582   -0.0001765
h    -4.4415742    2.1279871    1.3070987  0.00    0.0000226    0.0004715    0.0004017
h    -4.4210387   -0.0484086    0.2436862  0.00   -0.0004363   -0.0003177   -0.0001372
h    -3.0524941    0.3459662   -0.6634237  0.00   -0.0000165   -0.0004025   -0.0003500
o    -2.3911001    3.8458453   -0.4536050  0.00    0.0014452    0.0038159   -0.0031082
o    -1.7117870    2.6317569    1.4994271  0.00    0.0003079    0.0008175   -0.0002890
h    -1.9560404    1.8246197    2.0573007  0.00   -0.0003904   -0.0010479    0.0009574
    13
 Energy =       0.0658889003
c    -3.8936772    1.9764568    0.3603387  0.00   -0.0005646    0.0015616   -0.0006240
c    -2.6139143    2.8182476    0.4491851  0.00   -0.0007818   -0.0000107   -0.0005244
c    -4.7850034    2.3535649   -0.8385800  0.00   -0.0001911   -0.0000153    0.0000587
h    -5.0718002    3.4282978   -0.7822177  0.00   -0.0002461    0.0008415    0.0000494
h    -5.7158302    1.7469939   -0.8475049  0.00   -0.0002858   -0.0001957    0.0000559
h    -4.2407253    2.1985222   -1.7973679  0.00    0.0003844   -0.0000695   -0.0007196
n    -3.5909757    0.5367210    0.3011729  0.00    0.0004705   -0.0016841    0.0012669
h    -4.4506190    2.1949433    1.3029190  0.00   -0.0005610    0.0002469    0.0009753
h    -4.4808342   -0.0172687    0.3158651  0.00   -0.0006785   -0.0005914    0.0000730
h    -3.0966128    0.3104875   -0.5974781  0.00    0.0008528   -0.0004400   -0.0014138
o    -2.3977431    3.8617120   -0.4458763  0.00   -0.0001975    0.0008929   -0.0012665
o    -1.6649816    2.5826321    1.4446208  0.00    0.0018148   -0.0003398    0.0019056
h    -1.9081194    1.7712971    1.9955620  0.00   -0.0000161   -0.0001967    0.0001636
    13
 Energy =       0.0658763861
c    -3.8975556    1.9807293    0.3607328  0.00    0.0001475   -0.0002596    0.0001943
c    -2.6210805    2.8259575    0.4544572  0.00    0.0000471   -0.0003908    0.0003546
c    -4.7783996    2.3451891   -0.8492182  0.00   -0.0000720   -0.0000161   -0.0000550
h    -5.0691595    3.4184657   -0.8040404  0.00    0.0000201   -0.0001038    0.0000046
h    -5.7070200    1.7359829   -0.8626661  0.00    0.0000360    0.0000420   -0.0000203
h    -4.2249259    2.1847059   -1.8007986  0.00   -0.0000490    0.0000029    0.0000688
n    -3.5924752    0.5425784    0.3163210  0.00   -0.0000392    0.0002387   -0.0001806
h    -4.4626833    2.2059036    1.2954177  0.00    0.0000903   -0.0000262   -0.0001143
h    -4.4812705   -0.0120506    0.3293368  0.00    0.0001309    0.0001147   -0.0000145
h    -3.0921407    0.3094396   -0.5759138  0.00   -0.0001338    0.0000652    0.0001898
o    -2.4194170    3.8907070   -0.4176720  0.00    0.0001192    0.0003531   -0.0002651
o    -1.6639268    2.5770791    1.4364057  0.00   -0.0002753    0.0000697   -0.0002191
h    -1.9007818    1.7579201    1.9782766  0.00   -0.0000218   -0.0000897    0.0000568
    13
 Energy =       0.0658759302
c    -3.8985788    1.9816790    0.3611713  0.00   -0.0000003    0.0000023    0.0000010
c    -2.6222106    2.8272925    0.4555195  0.00   -0.0000166   -0.0000233    0.0000118
c    -4.7774595    2.3445988   -0.8506514  0.00   -0.0000036   -0.0000004   -0.0000009
h    -5.0689008    3.4178661   -0.8069987  0.00   -0.0000009    0.0000012    0.0000004
h    -5.7057846    1.7348739   -0.8650449  0.00   -0.0000007   -0.0000002   -0.0000004
h    -4.2222120    2.1834849   -1.8011743  0.00    0.0000011   -0.0000001   -0.0000018
n    -3.5935760    0.5431833    0.3190464  0.00    0.0000008   -0.0000017    0.0000034
h    -4.4651492    2.2081545    1.2948267  0.00   -0.0000008    0.0000005    0.0000021
h    -4.4824951   -0.0114477    0.3316362  0.00    0.0000001   -0.0000002   -0.0000004
h    -3.0918377    0.3087507   -0.5722227  0.00    0.0000025   -0.0000011   -0.0000031
o    -2.4251564    3.8976445   -0.4104144  0.00    0.0000011    0.0000406   -0.0000407
o    -1.6611987    2.5739019    1.4328152  0.00    0.0000176   -0.0000081    0.0000204
h    -1.8962770    1.7526252    1.9721299  0.00   -0.0000004   -0.0000095    0.0000082
    13
 Energy =       0.0658759282
c    -3.8986105    1.9817146    0.3611842  0.00   -0.0000000    0.0000000    0.0000000
c    -2.6222504    2.8273402    0.4555602  0.00   -0.0000000   -0.0000000    0.0000000
c    -4.7774116    2.3445680   -0.8507126  0.00   -0.0000000   -0.0000000   -0.0000000
h    -5.0688587    3.4178358   -0.8071370  0.00   -0.0000000    0.0000000    0.0000000
h    -5.7057347    1.7348417   -0.8651304  0.00   -0.0000000    0.0000000    0.0000000
h    -4.2221059    2.1834044   -1.8011902  0.00    0.0000000    0.0000000   -0.0000000
n    -3.5936198    0.5432143    0.3191569  0.00    0.0000000   -0.0000000    0.0000000
h    -4.4652346    2.2082475    1.2947907  0.00   -0.0000000   -0.0000000    0.0000000
h    -4.4825454   -0.0114057    0.3317757  0.00    0.0000000   -0.0000000   -0.0000000
h    -3.0918757    0.3087173   -0.5720891  0.00    0.0000000    0.0000000   -0.0000000
o    -2.4253775    3.8979185   -0.4100822  0.00    0.0000000    0.0000001   -0.0000001
o    -1.6611075    2.5737895    1.4326578  0.00    0.0000000   -0.0000000    0.0000000
h    -1.8961040    1.7524215    1.9718549  0.00   -0.0000000   -0.0000000    0.0000000
