    13
 Energy =       0.0946253661
c    -3.7133889    1.6950595    0.3173519  0.00   -0.0452859   -0.0156708    0.0139928
c    -2.4962693    2.6345192    0.2419999  0.00    0.0822847    0.3767837    0.1119264
c    -4.9565486    2.3924193   -0.2155699  0.00    0.0190947    0.0011549    0.0015052
h    -5.2099685    3.2528291    0.4143399  0.00    0.0016991   -0.0138892   -0.0107984
h    -5.8205883    1.7190695   -0.2147749  0.00    0.0114941    0.0109665   -0.0018977
h    -4.8083986    2.7651692   -1.2348596  0.00   -0.0079663   -0.0015782    0.0178769
n    -3.4097890    0.4519539   -0.4549189  0.00    0.0526443   -0.0503333   -0.0109101
h    -3.8575589    1.4177196    1.3669296  0.00    0.0049593   -0.0121088   -0.0253438
h    -3.2072391   -0.2948399    0.2179739  0.00   -0.0186801    0.0277193   -0.0181592
h    -4.2689788    0.1396900   -0.9176007  0.00    0.0219998    0.0207180    0.0243535
o    -2.4571893    3.7760389    0.6681628  0.00   -0.0069941   -0.2819104   -0.1111728
o    -1.4389296    2.0221094   -0.3549299  0.00   -0.0755681   -0.0523084   -0.0026171
h    -0.6872378    2.6609292   -0.2711979  0.00   -0.0396815   -0.0095433    0.0112441
    13
 Energy =       0.0775155817
c    -3.7289216    1.6811651    0.3404651  0.00   -0.0342627   -0.0124904    0.0121131
c    -2.4770227    2.5691274    0.2952952  0.00    0.0644481    0.2895951    0.0861706
c    -4.9248553    2.4294752   -0.2530148  0.00    0.0160821    0.0024731    0.0049559
h    -5.2166833    3.2557786    0.4145317  0.00    0.0013886   -0.0096403   -0.0063196
h    -5.8049649    1.7707568   -0.3735281  0.00    0.0029457    0.0042630   -0.0026861
h    -4.6763932    2.8668058   -1.2384756  0.00   -0.0041266    0.0016709    0.0073324
n    -3.4543339    0.4253973   -0.4125852  0.00    0.0428260   -0.0379829   -0.0085510
h    -3.9279151    1.4270121    1.3928392  0.00    0.0032708   -0.0100589   -0.0181053
h    -3.2791072   -0.3260901    0.2711395  0.00   -0.0144415    0.0206931   -0.0133973
h    -4.3078244    0.1292051   -0.9073319  0.00    0.0160344    0.0157285    0.0180245
o    -2.4265527    3.7487610    0.7325432  0.00   -0.0055805   -0.2161892   -0.0853837
o    -1.4101073    1.9719914   -0.3148433  0.00   -0.0752682   -0.0582686    0.0003762
h    -0.6974030    2.6832813   -0.3841289  0.00   -0.0133162    0.0102065    0.0054703
    13
 Energy =       0.0707902188
c    -3.7215867    1.6771179    0.3346139  0.00   -0.0300962   -0.0106043    0.0109107
c    -2.4734175    2.5655690    0.2761470  0.00    0.0569474    0.2564293    0.0761992
c    -4.9318254    2.4254895   -0.2288832  0.00    0.0194701   -0.0006864    0.0070065
h    -5.1336361    3.3298895    0.3836762  0.00    0.0009651   -0.0021396   -0.0004231
h    -5.8454949    1.7863575   -0.2147749  0.00   -0.0047438   -0.0019763   -0.0018939
h    -4.7398153    2.7553011   -1.2764735  0.00   -0.0011771    0.0031692   -0.0018039
n    -3.4661250    0.4281010   -0.4321584  0.00    0.0383612   -0.0333551   -0.0077927
h    -3.8981661    1.4203373    1.3922555  0.00    0.0028077   -0.0088962   -0.0157540
h    -3.2929014   -0.3366573    0.2401554  0.00   -0.0127514    0.0180751   -0.0117549
h    -4.3239683    0.1476770   -0.9336750  0.00    0.0138752    0.0140769    0.0156915
o    -2.4340479    3.7588177    0.7216966  0.00   -0.0052462   -0.1913775   -0.0755068
o    -1.3913277    1.9802469   -0.3227946  0.00   -0.0667796   -0.0518973    0.0002651
h    -0.6797724    2.6944198   -0.3768788  0.00   -0.0116322    0.0091822    0.0048563
    13
 Energy =       0.0515429600
c    -3.7049789    1.6784608    0.3282024  0.00   -0.0090842    0.0034725    0.0025728
c    -2.4392843    2.5191565    0.1929889  0.00    0.0134999    0.0510476    0.0159848
c    -4.9346309    2.4322671   -0.2083335  0.00    0.0081532   -0.0030300    0.0044228
h    -5.0572328    3.4025559    0.3363873  0.00    0.0002773    0.0056377    0.0039646
h    -5.8642023    1.8253723   -0.0647548  0.00   -0.0077602   -0.0053262    0.0004506
h    -4.8039509    2.6538151   -1.2989102  0.00    0.0015325    0.0017541   -0.0082257
n    -3.5460675    0.3850919   -0.3777314  0.00    0.0205667   -0.0054306   -0.0051776
h    -3.8392117    1.5072823    1.4230867  0.00    0.0002128   -0.0009441    0.0013631
h    -3.4516545   -0.3866735    0.3243586  0.00   -0.0035082   -0.0019884    0.0011333
h    -4.3888772    0.1529113   -0.9554563  0.00   -0.0032718    0.0036136   -0.0004720
o    -2.4013681    3.8039265    0.6609227  0.00   -0.0014514   -0.0383382   -0.0163311
o    -1.3109380    1.9748142   -0.3958421  0.00   -0.0177015   -0.0140573   -0.0012409
h    -0.5896876    2.6836866   -0.4020121  0.00   -0.0014648    0.0035892    0.0015556
    13
 Energy =       0.0509438015
c    -3.6893883    1.6737704    0.3259692  0.00   -0.0037434    0.0019636    0.0011837
c    -2.4161656    2.4981358    0.1558663  0.00    0.0056232    0.0191002    0.0062064
c    -4.9338905    2.4454269   -0.1549853  0.00    0.0020191   -0.0005893    0.0020549
h    -5.0317028    3.4064750    0.4035867  0.00   -0.0001272    0.0024664    0.0017630
h    -5.8569376    1.8449232    0.0150918  0.00   -0.0033334   -0.0020792    0.0001067
h    -4.8437289    2.6802964   -1.2423896  0.00    0.0007653    0.0007114   -0.0039679
n    -3.5835192    0.3783923   -0.3819566  0.00    0.0198048    0.0072256   -0.0022917
h    -3.7833215    1.5047366    1.4254046  0.00   -0.0001156    0.0002384    0.0015750
h    -3.6104077   -0.4131899    0.3139720  0.00   -0.0011937   -0.0104848    0.0082329
h    -4.3799433    0.2212566   -1.0565270  0.00   -0.0120818   -0.0001934   -0.0087044
o    -2.3640480    3.7998825    0.6195816  0.00   -0.0002974   -0.0141434   -0.0061549
o    -1.2831998    1.9454199   -0.4245952  0.00   -0.0068161   -0.0056125   -0.0006220
h    -0.5558317    2.6471412   -0.4361124  0.00   -0.0005038    0.0013971    0.0006181
    13
 Energy =       0.0507283282
c    -3.6824938    1.6872946    0.3352782  0.00   -0.0033424    0.0034874    0.0025868
c    -2.3808485    2.4515387    0.0865341  0.00    0.0020980    0.0069876    0.0026772
c    -4.9162303    2.4995645   -0.1066008  0.00    0.0008321   -0.0005350    0.0005158
h    -4.9515444    3.4743539    0.4358394  0.00   -0.0002791    0.0026950    0.0019405
h    -5.8536710    1.9401983    0.1162417  0.00   -0.0033572   -0.0018013    0.0002949
h    -4.8655092    2.7091077   -1.2003333  0.00    0.0006072    0.0002698   -0.0026879
n    -3.6706898    0.3690841   -0.3403310  0.00    0.0086125   -0.0006621   -0.0036208
h    -3.7327015    1.5513401    1.4427661  0.00   -0.0004343    0.0007217    0.0022812
h    -3.7189797   -0.4007417    0.3723826  0.00   -0.0005232   -0.0054738    0.0034750
h    -4.4821559    0.2364874   -0.9948196  0.00   -0.0055107   -0.0009412   -0.0042238
o    -2.2554540    3.7693528    0.5126978  0.00    0.0007669   -0.0012632   -0.0012561
o    -1.2888864    1.8370855   -0.5188016  0.00   -0.0018937   -0.0060724   -0.0019243
h    -0.5329201    2.5080011   -0.5779476  0.00    0.0024240    0.0025876   -0.0000586
    13
 Energy =       0.0506084322
c    -3.6801111    1.6825224    0.3303664  0.00   -0.0000157   -0.0000182    0.0000544
c    -2.3842838    2.4516372    0.0873201  0.00   -0.0001436   -0.0001957   -0.0001531
c    -4.9146499    2.4936329   -0.1069868  0.00    0.0000841   -0.0000039    0.0000487
h    -4.9426783    3.4713249    0.4244780  0.00    0.0000028    0.0000474    0.0000746
h    -5.8474034    1.9399615    0.1321280  0.00   -0.0001164   -0.0000916   -0.0000234
h    -4.8771690    2.6935267   -1.2005563  0.00    0.0000456    0.0000360   -0.0001137
n    -3.6693649    0.3686537   -0.3441281  0.00    0.0000291    0.0000313   -0.0000234
h    -3.7283333    1.5429687    1.4356658  0.00   -0.0000078   -0.0000086   -0.0000054
h    -3.7225406   -0.3970500    0.3672648  0.00    0.0000323   -0.0000033    0.0000244
h    -4.4738334    0.2379385   -1.0011123  0.00   -0.0000538   -0.0000057    0.0000133
o    -2.2652006    3.7629390    0.5385902  0.00   -0.0000068    0.0003938    0.0001801
o    -1.2887937    1.8551778   -0.5260508  0.00    0.0000452   -0.0002611   -0.0000319
h    -0.5377227    2.5294338   -0.5740729  0.00    0.0001051    0.0000795   -0.0000446
    13
 Energy =       0.0506082174
c    -3.6801099    1.6824444    0.3296593  0.00    0.0000003    0.0000007    0.0000004
c    -2.3843530    2.4517593    0.0868297  0.00   -0.0000056    0.0000001    0.0000009
c    -4.9149956    2.4937796   -0.1063988  0.00    0.0000030   -0.0000004    0.0000013
h    -4.9412824    3.4724282    0.4232505  0.00    0.0000005    0.0000027    0.0000021
h    -5.8474601    1.9412747    0.1359224  0.00   -0.0000045   -0.0000029    0.0000007
h    -4.8799426    2.6917101   -1.2002880  0.00    0.0000009    0.0000004   -0.0000046
n    -3.6696077    0.3691529   -0.3459934  0.00    0.0000034    0.0000021   -0.0000015
h    -3.7278244    1.5419848    1.4348660  0.00   -0.0000001    0.0000002    0.0000006
h    -3.7204300   -0.3972151    0.3648475  0.00   -0.0000000   -0.0000034    0.0000041
h    -4.4754320    0.2381419   -1.0012263  0.00   -0.0000032    0.0000002   -0.0000025
o    -2.2665689    3.7639347    0.5351958  0.00   -0.0000014    0.0000062    0.0000039
o    -1.2874835    1.8544546   -0.5229784  0.00    0.0000065   -0.0000059   -0.0000050
h    -0.5365948    2.5288168   -0.5707800  0.00    0.0000002   -0.0000000   -0.0000002
    13
 Energy =       0.0506082175
c    -3.6801173    1.6824423    0.3296773  0.00    0.0000000   -0.0000000   -0.0000000
c    -2.3843487    2.4517470    0.0868822  0.00   -0.0000000   -0.0000000    0.0000000
c    -4.9149785    2.4937812   -0.1064396  0.00   -0.0000000    0.0000000    0.0000000
h    -4.9412627    3.4724487    0.4231684  0.00   -0.0000000    0.0000000    0.0000000
h    -5.8474524    1.9413034    0.1358845  0.00   -0.0000000   -0.0000000    0.0000000
h    -4.8799027    2.6916672   -1.2003317  0.00   -0.0000000    0.0000000   -0.0000000
n    -3.6696001    0.3691387   -0.3459504  0.00   -0.0000000   -0.0000000   -0.0000000
h    -3.7278742    1.5420028    1.4348844  0.00    0.0000000   -0.0000000    0.0000000
h    -3.7204353   -0.3972156    0.3648998  0.00    0.0000000   -0.0000000   -0.0000000
h    -4.4754099    0.2381134   -1.0011944  0.00   -0.0000000    0.0000000   -0.0000000
o    -2.2664899    3.7638428    0.5354484  0.00   -0.0000000    0.0000000    0.0000000
o    -1.2875603    1.8545249   -0.5231403  0.00    0.0000000   -0.0000000   -0.0000000
h    -0.5366527    2.5288702   -0.5708826  0.00    0.0000000    0.0000000    0.0000000
