    13
 Energy =       0.4483966556
c    -3.7133889    1.6950595    0.3173519  0.00   -0.1128912    0.1243434   -0.0191074
c    -2.4962693    2.6345192    0.2419999  0.00    0.3506198   -0.0425121    0.1013291
c    -4.9565486    2.3924193   -0.2155699  0.00    0.7161217    0.7399430   -0.2566317
h    -5.2099685    3.2528291    0.4143399  0.00    0.0660476    0.0047261   -0.0574083
h    -5.8205883    1.7190695   -0.2147749  0.00    0.0143286    0.0126030   -0.0022902
h    -4.8083986    2.7651692   -1.2348596  0.00    0.8726467    0.7665675    0.4836198
n    -3.4097890    0.4519539   -0.4549189  0.00    0.0459334   -0.0433438   -0.0512156
h    -3.8575589    1.4177196    1.3669296  0.00   -0.0017883   -0.0018673   -0.0246129
h    -4.2340588    0.2238779   -1.0206697  0.00    0.0222409    0.0309342    0.0218283
h    -2.6878492    0.6694128   -1.1486897  0.00   -0.0297135    0.0094764    0.0359348
o    -1.4040496    2.4172293    0.7380088  0.00   -0.2615559    0.0525044   -0.1190101
o    -2.7835192    3.7545589   -0.4737969  0.00   -0.1113486   -0.0734925    0.0010693
h    -3.7512389    3.6942389   -0.6738148  0.00   -1.5706411   -1.5798823   -0.1135050
    13
 Energy =       0.3596822916
c    -3.7147848    1.7348755    0.3290026  0.00   -0.0827139    0.1007400   -0.0120505
c    -2.5079796    2.6733044    0.2077315  0.00    0.2594361   -0.0281302    0.0750330
c    -4.9606370    2.3809677   -0.2951325  0.00    0.5543570    0.5748538   -0.2038946
h    -5.2720309    3.2437044    0.3098202  0.00    0.0502212    0.0055501   -0.0444704
h    -5.8067615    1.6774533   -0.3077532  0.00    0.0097644    0.0091218   -0.0015039
h    -4.8373535    2.7914130   -1.2986632  0.00    0.6714717    0.5935416    0.3753552
n    -3.4040458    0.4193657   -0.3123557  0.00    0.0335804   -0.0402198   -0.0312551
h    -3.8814894    1.5665500    1.4092633  0.00   -0.0018448   -0.0019819   -0.0120456
h    -4.2194087    0.0996606   -0.8619166  0.00    0.0129674    0.0190282    0.0112172
h    -2.6373882    0.5300330   -1.0009179  0.00   -0.0151652    0.0054297    0.0183455
o    -1.3759712    2.4468779    0.7193415  0.00   -0.1941241    0.0388973   -0.0883400
o    -2.7748464    3.7977602   -0.5153278  0.00   -0.0826893   -0.0548209    0.0010943
h    -3.7405288    3.7260916   -0.7415566  0.00   -1.2152608   -1.2220097   -0.0874851
    13
 Energy =       0.3320304076
c    -3.7076568    1.7414622    0.3233629  0.00   -0.0757441    0.0912023   -0.0084113
c    -2.4712046    2.6286908    0.1187536  0.00    0.2312542   -0.0249471    0.0678528
c    -4.9555186    2.4221587   -0.2582246  0.00    0.4963566    0.5161800   -0.1840292
h    -5.2417622    3.2748427    0.3769619  0.00    0.0448634    0.0055617   -0.0393035
h    -5.8177701    1.7359530   -0.2669940  0.00    0.0084694    0.0080227   -0.0013251
h    -4.8283455    2.8354140   -1.2624272  0.00    0.6049281    0.5337279    0.3373876
n    -3.4838160    0.3944491   -0.2907616  0.00    0.0287032   -0.0404580   -0.0272131
h    -3.8266676    1.6128369    1.4181469  0.00   -0.0021953   -0.0013338   -0.0088544
h    -4.3229846    0.1070614   -0.8267676  0.00    0.0102213    0.0164695    0.0094649
h    -2.7101500    0.4307922   -0.9851488  0.00   -0.0101904    0.0046332    0.0132986
o    -1.3418673    2.4009655    0.6683003  0.00   -0.1734336    0.0339394   -0.0778895
o    -2.6985525    3.7204987   -0.6740809  0.00   -0.0190597   -0.0441620   -0.0047945
h    -3.7269301    3.7829319   -0.6995853  0.00   -1.1441731   -1.0988359   -0.0761833
    13
 Energy =       0.2980607730
c    -3.7112343    1.7037344    0.3010470  0.00   -0.0660060    0.0839772   -0.0064333
c    -2.4796320    2.6076559    0.1715069  0.00    0.2002131   -0.0208645    0.0604491
c    -4.9529789    2.4351638   -0.2158024  0.00    0.4355858    0.4568074   -0.1632917
h    -5.2038722    3.2776342    0.4531711  0.00    0.0389194    0.0057754   -0.0335773
h    -5.8311623    1.7663946   -0.2240697  0.00    0.0069612    0.0069439   -0.0010220
h    -4.8142752    2.8361331   -1.2169307  0.00    0.5321296    0.4673956    0.2970155
n    -3.4974674    0.4090293   -0.4260588  0.00    0.0250710   -0.0427270   -0.0235362
h    -3.8269391    1.4828091    1.3866578  0.00   -0.0020882   -0.0021738   -0.0036601
h    -4.3402484    0.1689173   -0.9855207  0.00    0.0078723    0.0128036    0.0059468
h    -2.7292225    0.5051654   -1.1254201  0.00   -0.0071825    0.0034050    0.0086597
o    -1.3570963    2.3377159    0.7512772  0.00   -0.1497652    0.0286797   -0.0671248
o    -2.6806451    3.7495269   -0.5671026  0.00   -0.0121118   -0.0343443   -0.0059979
h    -3.7084522    3.8081773   -0.6612193  0.00   -1.0095988   -0.9656783   -0.0674278
    13
 Energy =       0.2171765023
c    -3.7207625    1.6695589    0.2755551  0.00   -0.0380447    0.0513381   -0.0045935
c    -2.5040231    2.5944820    0.2353152  0.00    0.1103362   -0.0125808    0.0336692
c    -4.9607241    2.4335377   -0.1987097  0.00    0.2825212    0.3002319   -0.1078805
h    -5.1973032    3.2622767    0.4987236  0.00    0.0246645    0.0042035   -0.0205452
h    -5.8460537    1.7674379   -0.2168747  0.00    0.0037624    0.0038426   -0.0005282
h    -4.8118784    2.8372409   -1.1953308  0.00    0.3445830    0.2993156    0.1940000
n    -3.5084577    0.4340272   -0.5386565  0.00    0.0133089   -0.0299060   -0.0118563
h    -3.8452268    1.3726570    1.3462833  0.00   -0.0014836   -0.0020821    0.0008104
h    -4.3355322    0.2297998   -1.1442738  0.00    0.0027507    0.0058177    0.0005354
h    -2.7067382    0.5605770   -1.2013645  0.00   -0.0018063    0.0025153    0.0029638
o    -1.3694987    2.2708198    0.8622477  0.00   -0.0825561    0.0138823   -0.0353481
o    -2.6575370    3.7977583   -0.4346009  0.00    0.0055590   -0.0122167   -0.0043924
h    -3.6694904    3.8578839   -0.6467784  0.00   -0.6635953   -0.6243616   -0.0468345
    13
 Energy =       0.1275310752
c    -3.7437045    1.6559590    0.2655068  0.00   -0.0006576    0.0029704   -0.0015480
c    -2.5556619    2.6161626    0.3143405  0.00   -0.0009992    0.0007727   -0.0023937
c    -5.0057961    2.3942703   -0.2296473  0.00    0.1012059    0.1124011   -0.0400842
h    -5.2812847    3.2169721    0.4669770  0.00    0.0080944    0.0032349   -0.0070451
h    -5.8719137    1.6948000   -0.2743402  0.00   -0.0009320   -0.0007380   -0.0000821
h    -4.8397590    2.8234066   -1.2309814  0.00    0.1281535    0.1127275    0.0686703
n    -3.4901715    0.4614369   -0.5738206  0.00   -0.0103550   -0.0026449    0.0243360
h    -3.8953197    1.3253173    1.3221262  0.00   -0.0004898    0.0001449    0.0011085
h    -4.2408665    0.2998975   -1.3030269  0.00   -0.0127844   -0.0035571   -0.0134190
h    -2.5720738    0.5469680   -1.1065589  0.00    0.0224294    0.0027902   -0.0123156
o    -1.3945961    2.2631804    0.9927557  0.00    0.0021164   -0.0014516    0.0033262
o    -2.6418040    3.8513230   -0.3227032  0.00    0.0167405    0.0022130    0.0013270
h    -3.6002745    3.9383635   -0.6790919  0.00   -0.2525221   -0.2288631   -0.0218802
    13
 Energy =       0.0961151893
c    -3.7522777    1.6514231    0.2534284  0.00   -0.0039943    0.0034630   -0.0001830
c    -2.5885199    2.6410194    0.3974107  0.00   -0.0000936    0.0017579   -0.0002491
c    -5.0318351    2.3443535   -0.2586600  0.00    0.0374481    0.0409292   -0.0145386
h    -5.3446002    3.1540170    0.4385951  0.00    0.0031333    0.0017861   -0.0023382
h    -5.8727178    1.6171179   -0.3277636  0.00   -0.0008745   -0.0005691   -0.0000586
h    -4.8512666    2.7897680   -1.2574550  0.00    0.0535023    0.0466036    0.0265876
n    -3.4195970    0.4977528   -0.6170523  0.00   -0.0032206   -0.0049475    0.0042795
h    -3.9332368    1.2722093    1.2897993  0.00   -0.0008934   -0.0001950    0.0017340
h    -4.1812246    0.2775229   -1.3069015  0.00   -0.0045318    0.0004322   -0.0034711
h    -2.5427178    0.6690404   -1.1785111  0.00    0.0092245   -0.0004615   -0.0040766
o    -1.4723929    2.2930068    1.1515089  0.00    0.0046222   -0.0007835    0.0024989
o    -2.6204386    3.8796811   -0.2424795  0.00    0.0102576    0.0003976    0.0018304
h    -3.5224011    4.0011449   -0.7003838  0.00   -0.1045798   -0.0884130   -0.0120152
    13
 Energy =       0.0942123054
c    -3.7257467    1.6271480    0.2266159  0.00   -0.0036681    0.0054262    0.0014845
c    -2.5791691    2.6327190    0.3940327  0.00   -0.0001350    0.0009120    0.0005120
c    -5.0396750    2.3222523   -0.1954394  0.00    0.0324665    0.0370389   -0.0124795
h    -5.3381479    3.0866610    0.5605054  0.00    0.0017660    0.0034495   -0.0003899
h    -5.8690973    1.5822765   -0.2678160  0.00   -0.0010031   -0.0006225    0.0001513
h    -4.9170070    2.8295647   -1.1770198  0.00    0.0491593    0.0443524    0.0212901
n    -3.3968443    0.5364199   -0.7272813  0.00   -0.0035756   -0.0101743    0.0063079
h    -3.8619792    1.1785064    1.2452659  0.00   -0.0012348   -0.0015978    0.0047087
h    -4.1947392    0.3154914   -1.3764319  0.00   -0.0061075    0.0000878   -0.0047584
h    -2.5657598    0.7788729   -1.3372642  0.00    0.0142428    0.0002145   -0.0089202
o    -1.4446694    2.2733950    1.1152800  0.00    0.0047911   -0.0014400    0.0028630
o    -2.6446862    3.8987500   -0.1910385  0.00    0.0093533    0.0028125    0.0005637
h    -3.5557049    4.0260001   -0.6278730  0.00   -0.0960547   -0.0804592   -0.0113331
    13
 Energy =       0.0924721840
c    -3.7195437    1.6081427    0.1981161  0.00   -0.0012437    0.0060762    0.0021968
c    -2.5731773    2.6109596    0.3851372  0.00   -0.0008005   -0.0004913    0.0007300
c    -5.0546153    2.3119126   -0.1452352  0.00    0.0268543    0.0323521   -0.0101847
h    -5.3374589    3.0301758    0.6627440  0.00    0.0007383    0.0045646    0.0013266
h    -5.8761740    1.5645071   -0.2314930  0.00   -0.0010534   -0.0007003    0.0003419
h    -4.9748154    2.8778590   -1.1024674  0.00    0.0428966    0.0403857    0.0162469
n    -3.4147611    0.5624639   -0.8156066  0.00    0.0011696   -0.0128816    0.0154692
h    -3.8221130    1.1096257    1.1986184  0.00   -0.0011258   -0.0021717    0.0058523
h    -4.1851822    0.4509899   -1.5351851  0.00   -0.0150286   -0.0028842   -0.0142842
h    -2.5266828    0.7832414   -1.3546892  0.00    0.0184179    0.0030829   -0.0104897
o    -1.4201561    2.2191000    1.0602299  0.00    0.0056762   -0.0024913    0.0036764
o    -2.6549726    3.9056926   -0.1339961  0.00    0.0080354    0.0050227   -0.0005307
h    -3.5735737    4.0533870   -0.5446373  0.00   -0.0845362   -0.0698639   -0.0103508
    13
 Energy =       0.0834623595
c    -3.7181063    1.6073304    0.1898121  0.00   -0.0035142    0.0036540    0.0014476
c    -2.6122575    2.6418022    0.4596438  0.00   -0.0014354    0.0024295   -0.0009331
c    -5.0711755    2.2525651   -0.1784557  0.00    0.0106786    0.0131957   -0.0042400
h    -5.3941162    2.9676673    0.6136640  0.00    0.0002830    0.0017987    0.0006709
h    -5.8622590    1.4741567   -0.2745995  0.00   -0.0010018   -0.0007142   -0.0001133
h    -4.9846700    2.7997924   -1.1426453  0.00    0.0211817    0.0173911    0.0080141
n    -3.3346431    0.6124372   -0.8432915  0.00   -0.0030071   -0.0101990    0.0079358
h    -3.8361907    1.0706523    1.1648394  0.00   -0.0009631   -0.0006963    0.0024349
h    -4.1116103    0.4236979   -1.5299319  0.00   -0.0086147    0.0000163   -0.0063033
h    -2.4997022    0.9360101   -1.4081442  0.00    0.0141362    0.0026625   -0.0073512
o    -1.5046790    2.2723743    1.2189830  0.00    0.0067059   -0.0014434    0.0036236
o    -2.6656007    3.9341029   -0.0677887  0.00    0.0075885    0.0005004    0.0021605
h    -3.5382154    4.0954686   -0.5605500  0.00   -0.0420377   -0.0285953   -0.0073465
    13
 Energy =       0.0818372874
c    -3.6948410    1.6233858    0.2083299  0.00   -0.0027393    0.0035196    0.0025041
c    -2.6460292    2.7199591    0.4690968  0.00   -0.0026324    0.0021838   -0.0011537
c    -5.0723855    2.1877207   -0.2039012  0.00    0.0069887    0.0110466   -0.0035131
h    -5.4343973    2.9300622    0.5472196  0.00   -0.0001055    0.0028657    0.0017461
h    -5.8284845    1.3701795   -0.2668408  0.00   -0.0019194   -0.0020266   -0.0004950
h    -4.9983893    2.6841870   -1.1969696  0.00    0.0161511    0.0141174    0.0048294
n    -3.2408827    0.6242344   -0.7916178  0.00    0.0034548   -0.0135449    0.0231425
h    -3.8027156    1.1062627    1.1948071  0.00   -0.0004937   -0.0009249    0.0021098
h    -4.0374812    0.2862284   -1.4125766  0.00   -0.0237097   -0.0067366   -0.0162438
h    -2.4918680    1.0341326   -1.4293518  0.00    0.0229537    0.0102286   -0.0129851
o    -1.5467548    2.4311274    1.2780016  0.00    0.0096295   -0.0023603    0.0059983
o    -2.7385229    3.9887822   -0.1142524  0.00    0.0076591    0.0026844    0.0015626
h    -3.6004741    4.1017954   -0.6404092  0.00   -0.0352370   -0.0210528   -0.0075021
    13
 Energy =       0.0808162671
c    -3.6586637    1.6325356    0.2064316  0.00   -0.0012230    0.0001897    0.0027305
c    -2.6839764    2.8038129    0.4462175  0.00   -0.0019861    0.0007673   -0.0006371
c    -5.0831845    2.0911690   -0.1856596  0.00    0.0028246    0.0105893   -0.0023524
h    -5.4828688    2.8202765    0.5591152  0.00   -0.0005952    0.0028540    0.0015880
h    -5.7818896    1.2191473   -0.2192762  0.00   -0.0037198   -0.0040769   -0.0003886
h    -5.0624404    2.5719742   -1.1895886  0.00    0.0120425    0.0112547    0.0023729
n    -3.1507221    0.6581546   -0.7920485  0.00    0.0040100   -0.0119731    0.0174097
h    -3.7140915    1.1144519    1.1975458  0.00   -0.0004052   -0.0020880    0.0024017
h    -3.9226351    0.2854109   -1.4180362  0.00   -0.0185915   -0.0056950   -0.0129662
h    -2.4197336    1.0989960   -1.4238660  0.00    0.0179579    0.0078023   -0.0102205
o    -1.5535995    2.5898805    1.2367228  0.00    0.0106438   -0.0025211    0.0069187
o    -2.8721789    4.0683256   -0.1317256  0.00    0.0072598    0.0072335    0.0000514
h    -3.7472419    4.1339223   -0.6442966  0.00   -0.0282176   -0.0143367   -0.0069080
    13
 Energy =       0.0798457875
c    -3.6883855    1.6200518    0.2024870  0.00   -0.0008821   -0.0020847    0.0020089
c    -2.6576207    2.7319464    0.5014072  0.00   -0.0029946   -0.0005135   -0.0003113
c    -5.0785708    2.1643867   -0.2181823  0.00    0.0006866    0.0113638   -0.0025127
h    -5.4553851    2.9043819    0.5280123  0.00   -0.0008718    0.0030387    0.0015896
h    -5.8244579    1.3316751   -0.2792396  0.00   -0.0050765   -0.0054117   -0.0003845
h    -5.0126222    2.6594891   -1.2147522  0.00    0.0109541    0.0110554    0.0011320
n    -3.2020594    0.6522082   -0.8109877  0.00    0.0037267   -0.0122037    0.0188095
h    -3.7974651    1.0759979    1.1769643  0.00   -0.0003658   -0.0033452    0.0036635
h    -3.9940956    0.2581514   -1.3981439  0.00   -0.0189033   -0.0063400   -0.0133536
h    -2.5125515    1.1101404   -1.4773841  0.00    0.0186144    0.0081964   -0.0116267
o    -1.5774609    2.4482578    1.3441793  0.00    0.0149087   -0.0038448    0.0103384
o    -2.7440624    4.0096182   -0.0784015  0.00    0.0095659    0.0121356   -0.0006147
h    -3.5884888    4.1217524   -0.6344232  0.00   -0.0293624   -0.0120465   -0.0087384
    13
 Energy =       0.0775695647
c    -3.7166784    1.6094748    0.1879031  0.00   -0.0020182   -0.0024440   -0.0002683
c    -2.6697541    2.6714276    0.6015354  0.00   -0.0030002   -0.0012919   -0.0003371
c    -5.0638573    2.2048782   -0.3011437  0.00   -0.0019989    0.0069924   -0.0021398
h    -5.4591390    2.9416581    0.4370678  0.00   -0.0008155    0.0018618    0.0012940
h    -5.8307200    1.3985270   -0.4145404  0.00   -0.0047116   -0.0044388   -0.0001914
h    -4.9329394    2.7123680   -1.2872325  0.00    0.0071932    0.0080862   -0.0016192
n    -3.1920699    0.6807294   -0.8377079  0.00    0.0019332   -0.0119178    0.0193738
h    -3.9012793    1.0262468    1.1302913  0.00   -0.0009917   -0.0039562    0.0056818
h    -3.9778562    0.2084632   -1.3707761  0.00   -0.0177295   -0.0066293   -0.0111517
h    -2.5939405    1.2028549   -1.5455651  0.00    0.0183385    0.0107764   -0.0140003
o    -1.6590931    2.3171794    1.5029325  0.00    0.0157641   -0.0034909    0.0113814
o    -2.6685641    3.9736011    0.0717711  0.00    0.0109270    0.0130363    0.0003460
h    -3.4673347    4.1406489   -0.5329998  0.00   -0.0228903   -0.0065842   -0.0083690
    13
 Energy =       0.0778283256
c    -3.7239018    1.6104227    0.1809332  0.00   -0.0014590   -0.0021775    0.0020037
c    -2.7099634    2.6819870    0.6546582  0.00   -0.0017468   -0.0045962    0.0016124
c    -5.0476198    2.1854437   -0.3955442  0.00   -0.0040124    0.0052941   -0.0024655
h    -5.5066356    2.9094449    0.3210020  0.00   -0.0017416    0.0029487    0.0029839
h    -5.7939725    1.3681208   -0.5652944  0.00   -0.0060810   -0.0050153   -0.0006204
h    -4.8538419    2.7004397   -1.3702057  0.00    0.0067243    0.0073386   -0.0039848
n    -3.1283372    0.6824018   -0.8079367  0.00    0.0050632   -0.0121503    0.0166508
h    -3.9583098    1.0300324    1.1147047  0.00   -0.0012195   -0.0038330    0.0066768
h    -3.8801381    0.1697880   -1.3533830  0.00   -0.0180424   -0.0075878   -0.0117889
h    -2.5335762    1.2158790   -1.5087268  0.00    0.0172269    0.0102322   -0.0132037
o    -1.6929149    2.3066943    1.5394380  0.00    0.0149338   -0.0037768    0.0108919
o    -2.7466571    4.0172214    0.2061370  0.00    0.0112596    0.0172380   -0.0006775
h    -3.5573577    4.2101816   -0.3742466  0.00   -0.0209053   -0.0039149   -0.0080787
    13
 Energy =       0.0761078866
c    -3.7194717    1.6069228    0.1802541  0.00   -0.0003506   -0.0008966    0.0037084
c    -2.6831371    2.6578667    0.6380355  0.00   -0.0018089   -0.0071749    0.0029353
c    -5.0671635    2.2034058   -0.3120922  0.00   -0.0046166    0.0032393   -0.0017376
h    -5.4619679    2.9456921    0.4255049  0.00   -0.0019946    0.0035443    0.0039998
h    -5.8367402    1.3981133   -0.4248282  0.00   -0.0060870   -0.0046645   -0.0009502
h    -4.9378272    2.7011795   -1.3053081  0.00    0.0046893    0.0052106   -0.0053225
n    -3.1724965    0.7103190   -0.8634280  0.00    0.0050021   -0.0111680    0.0124900
h    -3.9126715    0.9999738    1.1058213  0.00   -0.0008759   -0.0030613    0.0061455
h    -3.9462596    0.1994288   -1.3733894  0.00   -0.0140613   -0.0061011   -0.0095664
h    -2.6292862    1.2650745   -1.5857619  0.00    0.0142152    0.0082860   -0.0118446
o    -1.7148233    2.2858956    1.5756639  0.00    0.0126497   -0.0048820    0.0097965
o    -2.6447373    3.9657833    0.1140635  0.00    0.0111540    0.0173680   -0.0004663
h    -3.4066440    4.1484022   -0.5329998  0.00   -0.0179155    0.0003001   -0.0091879
    13
 Energy =       0.0740225008
c    -3.7180975    1.6017663    0.1711586  0.00   -0.0004813    0.0004813    0.0037662
c    -2.6673578    2.6241845    0.6416148  0.00   -0.0029656   -0.0056885    0.0020003
c    -5.0732365    2.2262691   -0.2503999  0.00   -0.0035567    0.0016258   -0.0012267
h    -5.4215464    2.9654801    0.5112962  0.00   -0.0014335    0.0026663    0.0028910
h    -5.8558241    1.4347927   -0.3373699  0.00   -0.0035173   -0.0025700   -0.0007738
h    -4.9915321    2.7324882   -1.2410494  0.00    0.0019342    0.0024951   -0.0037965
n    -3.2073047    0.7554272   -0.9276755  0.00    0.0030672   -0.0107390    0.0112452
h    -3.8863606    0.9552253    1.0724965  0.00   -0.0003804   -0.0020624    0.0043732
h    -3.9912793    0.2138262   -1.3805005  0.00   -0.0100830   -0.0041829   -0.0061612
h    -2.7577385    1.3510856   -1.6799817  0.00    0.0116964    0.0083525   -0.0124802
o    -1.7689497    2.2540114    1.6451859  0.00    0.0098037   -0.0052563    0.0085335
o    -2.5461079    3.9010518    0.0648934  0.00    0.0088279    0.0123964    0.0004481
h    -3.2478909    4.0724489   -0.6481329  0.00   -0.0129118    0.0024816   -0.0088189
    13
 Energy =       0.0723897524
c    -3.7179852    1.5956668    0.1588411  0.00   -0.0004805    0.0007821    0.0037908
c    -2.6509351    2.5884462    0.6423366  0.00   -0.0037875   -0.0037830    0.0007000
c    -5.0752170    2.2515883   -0.1919299  0.00   -0.0025445    0.0004534   -0.0009814
h    -5.3859523    2.9677765    0.6059233  0.00   -0.0010137    0.0021689    0.0021272
h    -5.8682097    1.4738242   -0.2777696  0.00   -0.0014921   -0.0011237   -0.0004800
h    -5.0278748    2.7930505   -1.1640748  0.00    0.0001372    0.0011657   -0.0027556
n    -3.2467695    0.8028710   -0.9933865  0.00    0.0023105   -0.0097111    0.0092014
h    -3.8652888    0.9086533    1.0320860  0.00   -0.0000654   -0.0014891    0.0029710
h    -4.0332668    0.2265635   -1.3900310  0.00   -0.0071434   -0.0029319   -0.0034122
h    -2.8972420    1.4373465   -1.7647815  0.00    0.0087096    0.0081940   -0.0118609
o    -1.8301006    2.2289756    1.7127151  0.00    0.0074782   -0.0052334    0.0078978
o    -2.4452464    3.8290035    0.0190722  0.00    0.0059651    0.0087664   -0.0000359
h    -3.0891377    3.9842913   -0.7474653  0.00   -0.0080735    0.0027417   -0.0071622
    13
 Energy =       0.0712136711
c    -3.7197355    1.5905312    0.1441208  0.00   -0.0004022    0.0000857    0.0034146
c    -2.6336785    2.5524821    0.6389411  0.00   -0.0036911   -0.0019274   -0.0007484
c    -5.0740818    2.2786606   -0.1375822  0.00   -0.0010324   -0.0009633   -0.0004156
h    -5.3611430    2.9447819    0.7112178  0.00   -0.0008051    0.0023411    0.0023312
h    -5.8749190    1.5146814   -0.2571741  0.00   -0.0005565   -0.0009843   -0.0002907
h    -5.0418943    2.8862306   -1.0708292  0.00   -0.0007038    0.0015073   -0.0030768
n    -3.2908600    0.8493843   -1.0555467  0.00    0.0020181   -0.0074974    0.0067106
h    -3.8508326    0.8662098    0.9880661  0.00    0.0000768   -0.0010205    0.0016805
h    -4.0711967    0.2347462   -1.3985432  0.00   -0.0048077   -0.0020867   -0.0014171
h    -3.0452438    1.5155876   -1.8368108  0.00    0.0054525    0.0071880   -0.0095455
o    -1.8968404    2.2135184    1.7738096  0.00    0.0051807   -0.0045684    0.0071189
o    -2.3424158    3.7519551   -0.0237223  0.00    0.0034295    0.0059380   -0.0008199
h    -2.9303846    3.8892879   -0.8344112  0.00   -0.0041588    0.0019879   -0.0049418
    13
 Energy =       0.0704861145
c    -3.7246266    1.5891418    0.1294050  0.00   -0.0003917   -0.0009806    0.0022190
c    -2.6157636    2.5182787    0.6320784  0.00   -0.0024571   -0.0008523   -0.0014936
c    -5.0697122    2.3105458   -0.0923599  0.00    0.0010089   -0.0019854    0.0004513
h    -5.3480360    2.9033607    0.8123758  0.00   -0.0005609    0.0023395    0.0029200
h    -5.8791319    1.5677015   -0.2780568  0.00   -0.0011160   -0.0020150   -0.0004939
h    -5.0277329    3.0025504   -0.9659644  0.00   -0.0005638    0.0027104   -0.0037626
n    -3.3384234    0.8884585   -1.1062345  0.00    0.0021576   -0.0041236    0.0053851
h    -3.8478655    0.8364903    0.9480109  0.00    0.0000854   -0.0004071    0.0004208
h    -4.1019589    0.2270166   -1.3931220  0.00   -0.0035937   -0.0020255   -0.0004732
h    -3.2039969    1.5724421   -1.8953814  0.00    0.0025686    0.0055331   -0.0065633
o    -1.9665442    2.2098810    1.8256540  0.00    0.0026777   -0.0031570    0.0053819
o    -2.2371437    3.6710522   -0.0641727  0.00    0.0016203    0.0038672   -0.0014714
h    -2.7722902    3.7911377   -0.9106969  0.00   -0.0014353    0.0010964   -0.0025200
    13
 Energy =       0.0701554167
c    -3.7325639    1.5929620    0.1192295  0.00   -0.0001654   -0.0009483    0.0010353
c    -2.5957567    2.4887425    0.6184182  0.00   -0.0005591   -0.0009251    0.0000770
c    -5.0632399    2.3498415   -0.0545518  0.00    0.0004951   -0.0003938    0.0004354
h    -5.3368766    2.8724955    0.8907289  0.00    0.0000105    0.0005920    0.0008272
h    -5.8849182    1.6414941   -0.3042761  0.00   -0.0007952   -0.0010007   -0.0003148
h    -4.9972881    3.1100495   -0.8643903  0.00   -0.0002030    0.0011075   -0.0012246
n    -3.3902532    0.9124445   -1.1396971  0.00    0.0017608   -0.0010980    0.0030432
h    -3.8545184    0.8258137    0.9238617  0.00    0.0000422    0.0000335   -0.0001220
h    -4.1300225    0.2047228   -1.3693990  0.00   -0.0020208   -0.0014985   -0.0003238
h    -3.3627501    1.5948060   -1.9370464  0.00    0.0004400    0.0023642   -0.0030961
o    -2.0207316    2.2198094    1.8557043  0.00    0.0002378   -0.0011286    0.0016693
o    -2.1358446    3.5874785   -0.1121253  0.00    0.0008321    0.0023085   -0.0013943
h    -2.6284623    3.6873972   -0.9849209  0.00   -0.0000749    0.0005873   -0.0006120
    13
 Energy =       0.0701122460
c    -3.7350241    1.5949586    0.1140588  0.00   -0.0000067    0.0003894   -0.0002874
c    -2.5952045    2.4823108    0.6193416  0.00   -0.0001084    0.0002313   -0.0003877
c    -5.0629949    2.3584680   -0.0429324  0.00    0.0002305   -0.0002673   -0.0001209
h    -5.3463791    2.8424497    0.9192598  0.00   -0.0001197    0.0001392    0.0003510
h    -5.8824449    1.6635893   -0.3298799  0.00   -0.0000431   -0.0000969   -0.0000031
h    -4.9848329    3.1508239   -0.8186258  0.00    0.0001319    0.0001820   -0.0001932
n    -3.4005365    0.9305062   -1.1555956  0.00   -0.0001958   -0.0000695   -0.0004289
h    -3.8548870    0.8180397    0.9100315  0.00   -0.0000209   -0.0000971    0.0001075
h    -4.1200246    0.1995911   -1.3689482  0.00    0.0001835    0.0001988    0.0001116
h    -3.4187873    1.6133856   -1.9494492  0.00    0.0000583   -0.0000924    0.0003423
o    -2.0536104    2.2354781    1.8752171  0.00    0.0002568    0.0000788    0.0002524
o    -2.1041988    3.5570030   -0.1221942  0.00   -0.0000915   -0.0005346    0.0006357
h    -2.5743010    3.6414532   -1.0087478  0.00   -0.0002749   -0.0000618   -0.0003793
    13
 Energy =       0.0701114589
c    -3.7349287    1.5951516    0.1137421  0.00   -0.0000004    0.0000005   -0.0000001
c    -2.5952064    2.4826117    0.6194787  0.00   -0.0000020    0.0000001   -0.0000021
c    -5.0633146    2.3582981   -0.0426161  0.00   -0.0000000   -0.0000002    0.0000001
h    -5.3463300    2.8418657    0.9194612  0.00   -0.0000002    0.0000001   -0.0000001
h    -5.8826476    1.6634147   -0.3295351  0.00    0.0000000   -0.0000001   -0.0000002
h    -4.9859197    3.1508266   -0.8178552  0.00    0.0000007    0.0000003   -0.0000003
n    -3.4004497    0.9313937   -1.1562642  0.00    0.0000061   -0.0000010    0.0000066
h    -3.8544279    0.8178863    0.9092497  0.00   -0.0000001   -0.0000002    0.0000001
h    -4.1183284    0.1983013   -1.3684217  0.00   -0.0000047   -0.0000053   -0.0000002
h    -3.4220276    1.6138366   -1.9506779  0.00   -0.0000009    0.0000065   -0.0000063
o    -2.0559419    2.2364446    1.8762987  0.00    0.0000015   -0.0000012    0.0000036
o    -2.1025043    3.5569257   -0.1221459  0.00    0.0000018    0.0000004   -0.0000000
h    -2.5711991    3.6411006   -1.0091788  0.00   -0.0000017    0.0000002   -0.0000011
    13
 Energy =       0.0701114588
c    -3.7349292    1.5951483    0.1137428  0.00   -0.0000000    0.0000000   -0.0000000
c    -2.5952079    2.4826119    0.6194774  0.00   -0.0000000   -0.0000000   -0.0000000
c    -5.0633169    2.3582924   -0.0426124  0.00    0.0000000   -0.0000000   -0.0000000
h    -5.3463193    2.8418768    0.9194602  0.00   -0.0000000    0.0000000    0.0000000
h    -5.8826542    1.6634041   -0.3295068  0.00   -0.0000000   -0.0000000   -0.0000000
h    -4.9859335    3.1508064   -0.8178668  0.00    0.0000000    0.0000000   -0.0000000
n    -3.4004535    0.9313874   -1.1562628  0.00    0.0000000    0.0000000    0.0000000
h    -3.8544256    0.8178837    0.9092510  0.00   -0.0000000   -0.0000000   -0.0000000
h    -4.1183592    0.1983356   -1.3684488  0.00   -0.0000000   -0.0000000   -0.0000000
h    -3.4219769    1.6138355   -1.9506663  0.00   -0.0000000    0.0000000   -0.0000000
o    -2.0559477    2.2364521    1.8762980  0.00   -0.0000000   -0.0000000    0.0000000
o    -2.1025089    3.5569273   -0.1221460  0.00    0.0000000   -0.0000000    0.0000000
h    -2.5711932    3.6410958   -1.0091838  0.00   -0.0000000   -0.0000000   -0.0000000
