    24
 Energy =       0.4629835527
c     1.6703672    2.6182922    0.2614132  0.00    0.0451851    0.0677422    0.0349867
c     0.3248649    2.9356558    0.1418766  0.00   -0.0082377    0.1013591    0.0372551
c    -0.5827484    1.9945952   -0.3219261  0.00   -0.0875479    0.0437707   -0.0018976
c     2.1038063    1.3347474   -0.0833024  0.00    0.0670919   -0.0111210    0.0081163
c     1.2047783    0.3610782   -0.5608861  0.00    0.0190619   -0.0951510   -0.0239531
c    -0.1441045    0.7159142   -0.6796715  0.00   -0.0310473   -0.0465427   -0.0214190
o    -0.1504797    4.1703171    0.4675790  0.00   -0.0618040   -0.0483423    0.0204321
h    -0.7850651    4.0755150    1.1967033  0.00    0.0570575   -0.0067019   -0.0491812
h    -0.8895274    0.0262790   -1.0546636  0.00   -0.0076409    0.0028476   -0.0019356
h     3.1621727    1.0964802    0.0165124  0.00    0.0026463    0.0001985   -0.0006115
h     2.3926004    3.3457758    0.6178375  0.00    0.0097610   -0.0075393   -0.0008375
h    -1.6336796    2.2563998   -0.4108671  0.00   -0.0023547   -0.0010149    0.0015565
c     1.7669373   -1.0073413   -0.8964724  0.00    0.3624628   -0.5385371    0.0541214
c     0.8861134   -2.0194266   -1.6556448  0.00    0.1306672    0.0932545    0.0882506
h     2.1212937   -1.4658931    0.0371405  0.00    0.7447049   -1.2389837   -0.7805497
h     2.6645729   -0.8285312   -1.5058794  0.00   -0.0105998   -0.0398377    0.0277110
c     1.7481012   -3.2276699   -2.0845864  0.00   -0.0693171   -0.2762076   -0.2529333
o     1.5179317   -3.9787875   -3.0189800  0.00    0.0617526    0.1746904    0.2224637
o     2.8094516   -3.3865268   -1.2478409  0.00   -0.0592992    0.0976512    0.0379186
h     2.7944772   -2.5928198   -0.6549742  0.00   -1.1456130    1.7932736    0.6057334
n    -0.2697763   -2.5678537   -0.8742070  0.00   -0.0688562   -0.0919913   -0.0255358
h     0.4960411   -1.5757973   -2.5789902  0.00   -0.0092916   -0.0149927    0.0225932
h    -1.1308243   -2.1540904   -1.2498506  0.00    0.0328451   -0.0066244    0.0051817
h    -0.3593670   -3.5651556   -1.0813225  0.00    0.0283731    0.0487997   -0.0074661
    24
 Energy =       0.4267175848
c     1.6465329    2.6122569    0.2801532  0.00    0.0405867    0.0608200    0.0314272
c     0.3039040    2.9242291    0.1633471  0.00   -0.0073904    0.0910468    0.0334371
c    -0.5975481    1.9822322   -0.2991097  0.00   -0.0786145    0.0393575   -0.0017022
c     2.0838731    1.3347221   -0.0632720  0.00    0.0602616   -0.0100410    0.0072755
c     1.1909995    0.3605714   -0.5393857  0.00    0.0169660   -0.0854701   -0.0214816
c    -0.1558682    0.7086980   -0.6562121  0.00   -0.0278923   -0.0418024   -0.0192462
o    -0.1718504    4.1601057    0.4956215  0.00   -0.0554723   -0.0434063    0.0181620
h    -0.7986169    4.0664352    1.2376486  0.00    0.0512153   -0.0060552   -0.0439765
h    -0.8980612    0.0165927   -1.0279927  0.00   -0.0067743    0.0028287   -0.0019037
h     3.1430419    1.1012313    0.0378030  0.00    0.0023867    0.0001570   -0.0005574
h     2.3633838    3.3444392    0.6375596  0.00    0.0087800   -0.0067614   -0.0007439
h    -1.6492755    2.2406192   -0.3867138  0.00   -0.0021206   -0.0009015    0.0014006
c     1.7620892   -1.0065140   -0.8718521  0.00    0.3273224   -0.4856981    0.0497076
c     0.9143482   -2.0173716   -1.6841993  0.00    0.1199283    0.0839375    0.0783058
h     2.1453889   -1.4553915    0.0641595  0.00    0.6734561   -1.1190392   -0.7042498
h     2.6640802   -0.8083325   -1.4713634  0.00   -0.0093661   -0.0357664    0.0248913
c     1.7862721   -3.2339516   -2.0684138  0.00   -0.0606082   -0.2471444   -0.2277689
o     1.5754327   -4.0120546   -3.0082018  0.00    0.0557340    0.1561737    0.1996563
o     2.8287481   -3.4002614   -1.2090983  0.00   -0.0527724    0.0871996    0.0342981
h     2.8142664   -2.5938124   -0.6379720  0.00   -1.0348123    1.6195340    0.5470237
n    -0.2958916   -2.5448671   -0.9709252  0.00   -0.0619152   -0.0847173   -0.0181463
h     0.5910237   -1.5631711   -2.6319977  0.00   -0.0088184   -0.0124979    0.0180679
h    -1.1255050   -2.1166561   -1.4086037  0.00    0.0259550   -0.0049382    0.0029428
h    -0.4028302   -3.5385921   -1.2019815  0.00    0.0239647    0.0431844   -0.0068197
    24
 Energy =       0.4090182311
c     1.6160345    2.6085437    0.3141959  0.00    0.0380984    0.0569585    0.0293757
c     0.2713478    2.9068600    0.2107215  0.00   -0.0061743    0.0837217    0.0305817
c    -0.6182141    1.9663234   -0.2719054  0.00   -0.0737095    0.0365882   -0.0017773
c     2.0649020    1.3425175   -0.0485076  0.00    0.0566639   -0.0096843    0.0067932
c     1.1817320    0.3664683   -0.5333079  0.00    0.0158612   -0.0803640   -0.0201345
c    -0.1660927    0.7037333   -0.6456109  0.00   -0.0262126   -0.0394715   -0.0180911
o    -0.2227560    4.1211895    0.6046590  0.00   -0.0515046   -0.0376303    0.0161603
h    -0.8419805    3.9742594    1.3502153  0.00    0.0464903   -0.0061057   -0.0394398
h    -0.9029859    0.0098593   -1.0204806  0.00   -0.0062958    0.0029764   -0.0018117
h     3.1259763    1.1176055    0.0513860  0.00    0.0022673    0.0001264   -0.0005167
h     2.3230985    3.3406753    0.6910230  0.00    0.0082977   -0.0060967   -0.0006163
h    -1.6736343    2.2136390   -0.3478101  0.00   -0.0021460   -0.0007544    0.0013349
c     1.7662210   -0.9954310   -0.8703075  0.00    0.3078857   -0.4561128    0.0473610
c     0.9500775   -2.0061313   -1.7281437  0.00    0.1145536    0.0790101    0.0727216
h     2.1730032   -1.4357844    0.0677280  0.00    0.6334534   -1.0519479   -0.6615422
h     2.6722655   -0.7785978   -1.4581905  0.00   -0.0085930   -0.0335578    0.0233347
c     1.8271323   -3.2329236   -2.0711624  0.00   -0.0556378   -0.2310095   -0.2142928
o     1.6354862   -4.0340422   -3.0085865  0.00    0.0524374    0.1459257    0.1871602
o     2.8466945   -3.4040494   -1.1859469  0.00   -0.0487160    0.0808727    0.0322642
h     2.8358181   -2.5817492   -0.6425875  0.00   -0.9729053    1.5227670    0.5144654
n    -0.3053034   -2.5173093   -1.0807527  0.00   -0.0586558   -0.0810671   -0.0134288
h     0.6861419   -1.5453232   -2.6934676  0.00   -0.0085469   -0.0109877    0.0152402
h    -1.1025349   -2.0735416   -1.5673568  0.00    0.0218195   -0.0040555    0.0013453
h    -0.4244919   -3.5056343   -1.3368065  0.00    0.0212692    0.0398985   -0.0064872
    24
 Energy =       0.3730054662
c     1.6604723    2.5838116    0.3430952  0.00    0.0328881    0.0494803    0.0254132
c     0.3220584    2.8970284    0.2623784  0.00   -0.0047811    0.0710356    0.0254951
c    -0.5752127    1.9839682   -0.2452299  0.00   -0.0641031    0.0312571   -0.0019304
c     2.0939882    1.3258203   -0.0520597  0.00    0.0493637   -0.0086197    0.0059248
c     1.1999799    0.3724744   -0.5507350  0.00    0.0138342   -0.0699445   -0.0174033
c    -0.1399331    0.7312197   -0.6514926  0.00   -0.0226837   -0.0347574   -0.0157232
o    -0.1559449    4.0981094    0.7270480  0.00   -0.0451143   -0.0294636    0.0147436
h    -0.7648017    3.9182743    1.4816040  0.00    0.0395188   -0.0057569   -0.0329702
h    -0.8896689    0.0646443   -1.0389483  0.00   -0.0059533    0.0006109   -0.0023938
h     3.1522881    1.0863399    0.0406844  0.00    0.0020661    0.0001409   -0.0003944
h     2.3728493    3.2987646    0.7434068  0.00    0.0072431   -0.0048493   -0.0002020
h    -1.6288226    2.2435372   -0.3052046  0.00   -0.0021523   -0.0006462    0.0012229
c     1.7651057   -0.9975014   -0.9091632  0.00    0.2690496   -0.3984880    0.0418468
c     0.9312558   -2.0053104   -1.7638494  0.00    0.1018507    0.0725246    0.0618364
h     2.1889476   -1.4366380    0.0218418  0.00    0.5543921   -0.9196759   -0.5783546
h     2.6610980   -0.7849745   -1.5165309  0.00   -0.0072640   -0.0296374    0.0199866
c     1.7530835   -3.2890676   -2.0278495  0.00   -0.0477549   -0.1962904   -0.1886968
o     1.5572485   -4.0966141   -2.9840074  0.00    0.0456461    0.1261848    0.1620471
o     2.7077502   -3.5273488   -1.0812125  0.00   -0.0398741    0.0143011    0.0157235
h     2.8550700   -2.5968260   -0.6949421  0.00   -0.8479499    1.3799276    0.4654492
n    -0.3752325   -2.4285672   -1.1548983  0.00   -0.0498279   -0.0681497   -0.0038396
h     0.7361162   -1.5661710   -2.7599991  0.00   -0.0069321   -0.0076886    0.0105032
h    -1.1266447   -1.9147885   -1.6546677  0.00    0.0142775    0.0009649   -0.0007764
h    -0.5831127   -3.3990283   -1.4502710  0.00    0.0142607    0.0275396   -0.0075077
    24
 Energy =       0.3623835230
c     1.6470933    2.5875421    0.3309620  0.00    0.0311794    0.0468997    0.0241459
c     0.3083295    2.8952398    0.2692065  0.00   -0.0041653    0.0666388    0.0241059
c    -0.5957792    1.9672766   -0.1950798  0.00   -0.0609687    0.0288507   -0.0021706
c     2.0781931    1.3280149   -0.0545280  0.00    0.0469809   -0.0080829    0.0057108
c     1.1804550    0.3641211   -0.5232559  0.00    0.0134471   -0.0662427   -0.0163691
c    -0.1645069    0.7096769   -0.5864391  0.00   -0.0218088   -0.0326463   -0.0148847
o    -0.1577594    4.1161461    0.6971755  0.00   -0.0416091   -0.0263947    0.0130657
h    -0.7561520    3.9744562    1.4708893  0.00    0.0364165   -0.0056038   -0.0299020
h    -0.9239250    0.0282166   -0.9249225  0.00   -0.0063737    0.0019145   -0.0021565
h     3.1403631    1.0977465    0.0174403  0.00    0.0022469    0.0001578   -0.0003259
h     2.3644794    3.3152524    0.6994416  0.00    0.0072846   -0.0041854    0.0000180
h    -1.6520280    2.2205312   -0.2349075  0.00   -0.0023223   -0.0007073    0.0010704
c     1.7522810   -1.0052166   -0.8805627  0.00    0.2549123   -0.3764291    0.0398976
c     0.9544686   -2.0153546   -1.7799200  0.00    0.0987828    0.0691730    0.0579270
h     2.2105070   -1.4284061    0.0479096  0.00    0.5252025   -0.8708000   -0.5469711
h     2.6483173   -0.7747630   -1.4823875  0.00   -0.0067436   -0.0278500    0.0188650
c     1.7776527   -3.3075368   -2.0004539  0.00   -0.0430452   -0.1852297   -0.1784991
o     1.6032630   -4.1374230   -2.9512500  0.00    0.0431987    0.1187915    0.1528607
o     2.7203187   -3.5334351   -1.0395637  0.00   -0.0374842    0.0130523    0.0149583
h     2.8677185   -2.5976508   -0.6753446  0.00   -0.8026153    1.3062351    0.4407173
n    -0.3921749   -2.4240217   -1.2511378  0.00   -0.0475021   -0.0645419    0.0013866
h     0.8233077   -1.5749035   -2.7883941  0.00   -0.0067082   -0.0065121    0.0080019
h    -1.1003825   -1.8708746   -1.7768562  0.00    0.0109468    0.0005949   -0.0031597
h    -0.6161023   -3.3734777   -1.6090241  0.00    0.0107481    0.0229177   -0.0082924
    24
 Energy =       0.3544030618
c     1.6302209    2.5903820    0.3209679  0.00    0.0299409    0.0447535    0.0231032
c     0.2896928    2.8877541    0.2830858  0.00   -0.0038594    0.0635437    0.0230743
c    -0.6171132    1.9458578   -0.1442085  0.00   -0.0583524    0.0270617   -0.0022975
c     2.0629692    1.3325499   -0.0620142  0.00    0.0450833   -0.0075978    0.0055619
c     1.1643494    0.3572890   -0.5030312  0.00    0.0133395   -0.0631420   -0.0155345
c    -0.1855952    0.6867141   -0.5265744  0.00   -0.0211901   -0.0307179   -0.0141420
o    -0.1722920    4.1173857    0.6931453  0.00   -0.0391759   -0.0247370    0.0120486
h    -0.7595422    3.9950843    1.4805346  0.00    0.0343703   -0.0053825   -0.0280026
h    -0.9507810   -0.0104794   -0.8173025  0.00   -0.0069259    0.0028899   -0.0017019
h     3.1291281    1.1138558   -0.0125183  0.00    0.0024925    0.0001479   -0.0002708
h     2.3493978    3.3294655    0.6632694  0.00    0.0072793   -0.0037481    0.0001439
h    -1.6766730    2.1889646   -0.1595122  0.00   -0.0026243   -0.0007391    0.0009472
c     1.7446920   -1.0096341   -0.8622947  0.00    0.2430508   -0.3582025    0.0382072
c     0.9789573   -2.0208924   -1.7985159  0.00    0.0960397    0.0664954    0.0548787
h     2.2345149   -1.4175849    0.0617153  0.00    0.5009689   -0.8303016   -0.5209824
h     2.6392846   -0.7625707   -1.4604335  0.00   -0.0063191   -0.0264048    0.0179247
c     1.7978750   -3.3225182   -1.9787211  0.00   -0.0391987   -0.1763097   -0.1699004
o     1.6422860   -4.1696319   -2.9255948  0.00    0.0411843    0.1128037    0.1453172
o     2.7315479   -3.5366558   -1.0069263  0.00   -0.0355688    0.0119046    0.0142367
h     2.8838683   -2.5951856   -0.6662778  0.00   -0.7649989    1.2453188    0.4202706
n    -0.3991051   -2.4122795   -1.3424049  0.00   -0.0448811   -0.0610926    0.0062371
h     0.9052003   -1.5816370   -2.8152923  0.00   -0.0064364   -0.0055966    0.0060865
h    -1.0659189   -1.8112379   -1.8743212  0.00    0.0082322    0.0009332   -0.0055067
h    -0.6390262   -3.3338386   -1.7677772  0.00    0.0075494    0.0181199   -0.0096991
    24
 Energy =       0.3491744408
c     1.6035028    2.5937335    0.3135506  0.00    0.0291383    0.0430661    0.0222814
c     0.2597717    2.8738932    0.3020153  0.00   -0.0036908    0.0612990    0.0222887
c    -0.6440582    1.9154903   -0.0921475  0.00   -0.0563313    0.0257142   -0.0023870
c     2.0440631    1.3406833   -0.0710608  0.00    0.0437174   -0.0072063    0.0054556
c     1.1496223    0.3507986   -0.4860039  0.00    0.0134750   -0.0606773   -0.0149202
c    -0.2057342    0.6578150   -0.4689172  0.00   -0.0208669   -0.0290410   -0.0135303
o    -0.2067242    4.1050510    0.7048834  0.00   -0.0374440   -0.0236192    0.0113573
h    -0.7822503    3.9890538    1.5032910  0.00    0.0328934   -0.0052115   -0.0266806
h    -0.9707849   -0.0588925   -0.7129927  0.00   -0.0076410    0.0038713   -0.0008076
h     3.1145975    1.1382940   -0.0447843  0.00    0.0028325    0.0001151   -0.0002303
h     2.3200724    3.3457179    0.6331278  0.00    0.0073080   -0.0034182    0.0002333
h    -1.7075461    2.1429763   -0.0805880  0.00   -0.0030647   -0.0007462    0.0008583
c     1.7438200   -1.0104498   -0.8490850  0.00    0.2336518   -0.3436698    0.0369649
c     1.0113371   -2.0214227   -1.8213119  0.00    0.0945473    0.0645286    0.0525994
h     2.2641053   -1.4032955    0.0699054  0.00    0.4817462   -0.7982668   -0.5003190
h     2.6369946   -0.7453100   -1.4420499  0.00   -0.0059309   -0.0252715    0.0171443
c     1.8185885   -3.3366066   -1.9551033  0.00   -0.0357035   -0.1693923   -0.1628977
o     1.6853520   -4.2001573   -2.8971354  0.00    0.0395618    0.1079825    0.1392332
o     2.7403242   -3.5376788   -0.9697302  0.00   -0.0340092    0.0102616    0.0135903
h     2.9055165   -2.5881454   -0.6625540  0.00   -0.7350782    1.1976464    0.4042331
n    -0.3972079   -2.3864860   -1.4424876  0.00   -0.0435433   -0.0595771    0.0107344
h     1.0003083   -1.5868300   -2.8448854  0.00   -0.0061285   -0.0046317    0.0040209
h    -1.0174033   -1.7380088   -1.9804085  0.00    0.0057259    0.0015981   -0.0082466
h    -0.6483293   -3.2790664   -1.9265303  0.00    0.0048346    0.0146460   -0.0109757
    24
 Energy =       0.3498493442
c     1.5755915    2.5954557    0.3128455  0.00    0.0289511    0.0424657    0.0219785
c     0.2287478    2.8585854    0.3211273  0.00   -0.0036447    0.0605268    0.0220013
c    -0.6690348    1.8859780   -0.0513641  0.00   -0.0556341    0.0252185   -0.0024219
c     2.0259342    1.3476797   -0.0752573  0.00    0.0433182   -0.0070637    0.0054178
c     1.1381915    0.3446586   -0.4729338  0.00    0.0136793   -0.0597616   -0.0147259
c    -0.2212323    0.6310696   -0.4258070  0.00   -0.0208628   -0.0283242   -0.0132850
o    -0.2465310    4.0868857    0.7238803  0.00   -0.0368639   -0.0231816    0.0111272
h    -0.8146715    3.9681962    1.5277765  0.00    0.0323562   -0.0051555   -0.0262085
h    -0.9820020   -0.1023448   -0.6364648  0.00   -0.0081414    0.0046081    0.0000106
h     3.0997362    1.1605173   -0.0656662  0.00    0.0030646    0.0000834   -0.0002191
h     2.2873365    3.3580053    0.6181108  0.00    0.0073594   -0.0032782    0.0002723
h    -1.7355128    2.0984094   -0.0193468  0.00   -0.0033733   -0.0007402    0.0008301
c     1.7464490   -1.0102913   -0.8393017  0.00    0.2303180   -0.3380862    0.0367967
c     1.0448646   -2.0192520   -1.8444806  0.00    0.0951064    0.0643373    0.0518360
h     2.2872239   -1.3930518    0.0774919  0.00    0.4744563   -0.7862805   -0.4925034
h     2.6411213   -0.7297704   -1.4229202  0.00   -0.0056882   -0.0248267    0.0168111
c     1.8339347   -3.3508297   -1.9299780  0.00   -0.0332771   -0.1668730   -0.1600027
o     1.7239150   -4.2309535   -2.8627365  0.00    0.0388656    0.1059156    0.1367074
o     2.7383439   -3.5390561   -0.9267646  0.00   -0.0332658    0.0082885    0.0133787
h     2.9218889   -2.5809451   -0.6593530  0.00   -0.7236738    1.1808145    0.3984325
n    -0.3892359   -2.3551501   -1.5402010  0.00   -0.0431462   -0.0593948    0.0153868
h     1.0948497   -1.5923970   -2.8719909  0.00   -0.0059071   -0.0038585    0.0022138
h    -0.9632001   -1.6571422   -2.0723849  0.00    0.0036743    0.0031401   -0.0108952
h    -0.6487704   -3.2130999   -2.0852834  0.00    0.0023292    0.0114263   -0.0129393
    24
 Energy =       0.3415139395
c     1.6018706    2.5952715    0.3053835  0.00    0.0285295    0.0417445    0.0215934
c     0.2580698    2.8725472    0.3042908  0.00   -0.0035811    0.0594702    0.0216051
c    -0.6468705    1.9106190   -0.0767333  0.00   -0.0546957    0.0247520   -0.0023825
c     2.0420129    1.3429874   -0.0791282  0.00    0.0426548   -0.0069413    0.0053269
c     1.1466406    0.3502279   -0.4830992  0.00    0.0135797   -0.0586949   -0.0144941
c    -0.2093930    0.6528964   -0.4516939  0.00   -0.0205886   -0.0277153   -0.0130336
o    -0.2062175    4.1063264    0.7035651  0.00   -0.0362172   -0.0226818    0.0109036
h    -0.7744794    3.9964565    1.5090950  0.00    0.0317373   -0.0050656   -0.0256839
h    -0.9759957   -0.0678997   -0.6803945  0.00   -0.0082272    0.0052577    0.0006089
h     3.1135947    1.1436944   -0.0622452  0.00    0.0031168    0.0000566   -0.0002171
h     2.3191977    3.3507104    0.6154484  0.00    0.0072757   -0.0031877    0.0002808
h    -1.7111219    2.1355220   -0.0556251  0.00   -0.0034608   -0.0007160    0.0008139
c     1.7420988   -1.0104396   -0.8488149  0.00    0.2266446   -0.3320046    0.0367792
c     1.0098074   -2.0235497   -1.8205767  0.00    0.0952846    0.0642421    0.0508586
h     2.2766848   -1.3952976    0.0638106  0.00    0.4657985   -0.7722132   -0.4837094
h     2.6293949   -0.7413920   -1.4498783  0.00   -0.0053654   -0.0243278    0.0163887
c     1.8249625   -3.3346616   -1.9596221  0.00   -0.0306286   -0.1636396   -0.1568487
o     1.6910379   -4.1939124   -2.9111223  0.00    0.0379380    0.1033924    0.1336562
o     2.7566286   -3.5362025   -0.9820053  0.00   -0.0320101    0.0053657    0.0132394
h     2.9168116   -2.5863530   -0.6675376  0.00   -0.7105243    1.1618219    0.3918458
n    -0.4014556   -2.3922693   -1.4398175  0.00   -0.0427969   -0.0587859    0.0198714
h     0.9960720   -1.5857468   -2.8469206  0.00   -0.0057892   -0.0029883    0.0002501
h    -1.0233283   -1.7409340   -1.9808510  0.00    0.0014974    0.0046605   -0.0132145
h    -0.6580849   -3.2874441   -1.9265303  0.00   -0.0001719    0.0081983   -0.0144384
    24
 Energy =       0.3293327198
c     1.6226880    2.5934535    0.2998130  0.00    0.0275963    0.0403018    0.0208294
c     0.2819806    2.8820532    0.2897784  0.00   -0.0034477    0.0574045    0.0208385
c    -0.6276219    1.9300193   -0.1017353  0.00   -0.0527960    0.0238440   -0.0022969
c     2.0550237    1.3386183   -0.0825791  0.00    0.0412405   -0.0066868    0.0051434
c     1.1544599    0.3553996   -0.4941000  0.00    0.0132239   -0.0566049   -0.0140050
c    -0.1980212    0.6714172   -0.4790776  0.00   -0.0199305   -0.0266289   -0.0125376
o    -0.1736313    4.1195247    0.6888520  0.00   -0.0349297   -0.0218420    0.0104952
h    -0.7386756    4.0155670    1.4984115  0.00    0.0305858   -0.0048844   -0.0247306
h    -0.9678593   -0.0381193   -0.7288501  0.00   -0.0081480    0.0058138    0.0010716
h     3.1245476    1.1293136   -0.0584518  0.00    0.0030885    0.0000344   -0.0002120
h     2.3436133    3.3428398    0.6161726  0.00    0.0070603   -0.0030482    0.0002816
h    -1.6897475    2.1654446   -0.0917265  0.00   -0.0034664   -0.0006892    0.0007811
c     1.7398288   -1.0088829   -0.8615505  0.00    0.2193248   -0.3204630    0.0362390
c     0.9766350   -2.0265605   -1.7962752  0.00    0.0937573    0.0630103    0.0488843
h     2.2720307   -1.3940958    0.0442693  0.00    0.4492665   -0.7451672   -0.4669292
h     2.6170111   -0.7492042   -1.4824304  0.00   -0.0049302   -0.0234131    0.0156633
c     1.8135093   -3.3159133   -1.9892257  0.00   -0.0277497   -0.1572328   -0.1512360
o     1.6546277   -4.1521744   -2.9621779  0.00    0.0363306    0.0990268    0.1282176
o     2.7773012   -3.5292103   -1.0425843  0.00   -0.0298189    0.0023292    0.0129438
h     2.9184309   -2.5908376   -0.6809268  0.00   -0.6855685    1.1233203    0.3788421
n    -0.4065638   -2.4246122   -1.3391414  0.00   -0.0416765   -0.0570152    0.0237423
h     0.8994746   -1.5802613   -2.8184599  0.00   -0.0056747   -0.0020944   -0.0016573
h    -1.0754431   -1.8198219   -1.8812299  0.00   -0.0007936    0.0057518   -0.0151128
h    -0.6556610   -3.3528003   -1.7677772  0.00   -0.0025442    0.0049333   -0.0152555
    24
 Energy =       0.3131423324
c     1.6377237    2.5902673    0.2954379  0.00    0.0260925    0.0380485    0.0196377
c     0.3001424    2.8874189    0.2767045  0.00   -0.0032351    0.0541929    0.0196497
c    -0.6115876    1.9443747   -0.1268915  0.00   -0.0498202    0.0224491   -0.0021567
c     2.0647110    1.3347590   -0.0859778  0.00    0.0389842   -0.0062919    0.0048533
c     1.1614314    0.3602735   -0.5060746  0.00    0.0125731   -0.0533665   -0.0132260
c    -0.1873639    0.6867032   -0.5080254  0.00   -0.0188473   -0.0250155   -0.0117703
o    -0.1491509    4.1271324    0.6781302  0.00   -0.0329040   -0.0205835    0.0098337
h    -0.7070759    4.0267965    1.4946624  0.00    0.0288049   -0.0046130   -0.0232417
h    -0.9577785   -0.0131482   -0.7811476  0.00   -0.0078810    0.0062165    0.0013730
h     3.1324000    1.1175836   -0.0545904  0.00    0.0029751    0.0000159   -0.0002039
h     2.3602329    3.3348102    0.6193349  0.00    0.0066984   -0.0028502    0.0002750
h    -1.6717236    2.1884231   -0.1282098  0.00   -0.0033824   -0.0006555    0.0007313
c     1.7395441   -1.0056077   -0.8774082  0.00    0.2079434   -0.3029200    0.0350912
c     0.9457478   -2.0287825   -1.7713196  0.00    0.0903061    0.0604546    0.0458333
h     2.2736385   -1.3894522    0.0193082  0.00    0.4240636   -0.7038148   -0.4413407
h     2.6037069   -0.7532105   -1.5205226  0.00   -0.0043669   -0.0220447    0.0146002
c     1.7998190   -3.2955580   -2.0175278  0.00   -0.0247561   -0.1473809   -0.1427761
o     1.6154402   -4.1071033   -3.0143187  0.00    0.0339836    0.0926640    0.1201297
o     2.7993930   -3.5187172   -1.1069059  0.00   -0.0266942   -0.0005979    0.0124591
h     2.9271443   -2.5947646   -0.6993889  0.00   -0.6475363    1.0631500    0.3586966
n    -0.4039676   -2.4521257   -1.2377891  0.00   -0.0397180   -0.0540072    0.0268057
h     0.8056234   -1.5767912   -2.7865031  0.00   -0.0055410   -0.0011999   -0.0034339
h    -1.1186143   -1.8929771   -1.7729558  0.00   -0.0030892    0.0064075   -0.0164527
h    -0.6414985   -3.4091473   -1.6090241  0.00   -0.0046532    0.0017423   -0.0153675
    24
 Energy =       0.2933197192
c     1.6458326    2.5860105    0.2924911  0.00    0.0240329    0.0349927    0.0180196
c     0.3113385    2.8888837    0.2643561  0.00   -0.0029418    0.0498441    0.0180432
c    -0.5996591    1.9538425   -0.1534524  0.00   -0.0457839    0.0205743   -0.0019602
c     2.0703112    1.3317172   -0.0888503  0.00    0.0358991   -0.0057614    0.0044560
c     1.1671233    0.3650650   -0.5191374  0.00    0.0116314   -0.0489907   -0.0121567
c    -0.1779309    0.6988965   -0.5394584  0.00   -0.0173572   -0.0228835   -0.0107360
o    -0.1344506    4.1294588    0.6700898  0.00   -0.0301235   -0.0188824    0.0088714
h    -0.6809110    4.0307033    1.4967461  0.00    0.0263734   -0.0042681   -0.0211703
h    -0.9460134    0.0070409   -0.8383414  0.00   -0.0074362    0.0064265    0.0014988
h     3.1364402    1.1089089   -0.0495298  0.00    0.0027846    0.0000000   -0.0001926
h     2.3676613    3.3269898    0.6255732  0.00    0.0061974   -0.0025888    0.0002634
h    -1.6579895    2.2045806   -0.1669938  0.00   -0.0032169   -0.0006129    0.0006651
c     1.7412970   -1.0002793   -0.8963108  0.00    0.1925695   -0.2795673    0.0333046
c     0.9181535   -2.0306474   -1.7456387  0.00    0.0849598    0.0565624    0.0417376
h     2.2820834   -1.3809623   -0.0105129  0.00    0.3904965   -0.6486210   -0.4071912
h     2.5893250   -0.7528222   -1.5639262  0.00   -0.0036793   -0.0202383    0.0132083
c     1.7854934   -3.2742122   -2.0438466  0.00   -0.0217422   -0.1342634   -0.1314023
o     1.5761551   -4.0595816   -3.0665240  0.00    0.0309470    0.0843988    0.1094615
o     2.8228975   -3.5050845   -1.1735114  0.00   -0.0227986   -0.0032171    0.0117365
h     2.9435275   -2.5980026   -0.7226817  0.00   -0.5967895    0.9818698    0.3315693
n    -0.3921199   -2.4754921   -1.1352700  0.00   -0.0369379   -0.0498867    0.0289664
h     0.7151622   -1.5760442   -2.7510134  0.00   -0.0053748   -0.0003174   -0.0050257
h    -1.1514599   -1.9605845   -1.6549888  0.00   -0.0053233    0.0066519   -0.0171718
h    -0.6143296   -3.4572280   -1.4502710  0.00   -0.0063862   -0.0012217   -0.0147950
    24
 Energy =       0.2705150405
c     1.6444676    2.5808883    0.2924960  0.00    0.0214901    0.0312174    0.0160128
c     0.3128807    2.8862328    0.2525414  0.00   -0.0025675    0.0444709    0.0160656
c    -0.5936362    1.9580643   -0.1832162  0.00   -0.0408003    0.0182587   -0.0017109
c     2.0702586    1.3299611   -0.0896848  0.00    0.0320793   -0.0051063    0.0039608
c     1.1708582    0.3700434   -0.5333354  0.00    0.0104308   -0.0435844   -0.0108197
c    -0.1705181    0.7078885   -0.5751053  0.00   -0.0155242   -0.0202848   -0.0094610
o    -0.1333808    4.1259605    0.6642568  0.00   -0.0266314   -0.0167385    0.0075838
h    -0.6636513    4.0264610    1.5040939  0.00    0.0233258   -0.0038802   -0.0185169
h    -0.9326578    0.0222269   -0.9032934  0.00   -0.0068565    0.0064158    0.0014299
h     3.1351695    1.1041496   -0.0405375  0.00    0.0025377   -0.0000142   -0.0001775
h     2.3626663    3.3196759    0.6376103  0.00    0.0055871   -0.0022559    0.0002539
h    -1.6504155    2.2132440   -0.2111853  0.00   -0.0029940   -0.0005614    0.0005821
c     1.7455843   -0.9920652   -0.9185470  0.00    0.1735757   -0.2510680    0.0308854
c     0.8956297   -2.0325115   -1.7192443  0.00    0.0779313    0.0514573    0.0366854
h     2.2989636   -1.3673161   -0.0453231  0.00    0.3495869   -0.5811949   -0.3653876
h     2.5737035   -0.7464167   -1.6130214  0.00   -0.0028706   -0.0180391    0.0115181
c     1.7736350   -3.2517662   -2.0684238  0.00   -0.0187758   -0.1183141   -0.1172614
o     1.5415815   -4.0089040   -3.1194089  0.00    0.0273544    0.0744548    0.0964711
o     2.8495845   -3.4879462   -1.2419317  0.00   -0.0183595   -0.0054043    0.0107264
h     2.9691901   -2.5996714   -0.7510959  0.00   -0.5347428    0.8817974    0.2981867
n    -0.3679358   -2.4961791   -1.0305964  0.00   -0.0334229   -0.0449587    0.0302560
h     0.6286002   -1.5787723   -2.7117722  0.00   -0.0051845    0.0005670   -0.0064273
h    -1.1715179   -2.0236012   -1.5247606  0.00   -0.0075109    0.0065274   -0.0172708
h    -0.5711223   -3.4984894   -1.2915179  0.00   -0.0076583   -0.0037620   -0.0135849
    24
 Energy =       0.2452959200
c     1.6283620    2.5747052    0.2992273  0.00    0.0185741    0.0268363    0.0136645
c     0.2992957    2.8780950    0.2421432  0.00   -0.0020962    0.0382073    0.0137771
c    -0.5969507    1.9554165   -0.2186607  0.00   -0.0350219    0.0155250   -0.0014198
c     2.0614404    1.3301590   -0.0852550  0.00    0.0276600   -0.0043240    0.0033839
c     1.1715380    0.3755068   -0.5486191  0.00    0.0089996   -0.0372629   -0.0092365
c    -0.1663506    0.7129186   -0.6179033  0.00   -0.0134468   -0.0172914   -0.0079806
o    -0.1538596    4.1142419    0.6618453  0.00   -0.0224834   -0.0141033    0.0059695
h    -0.6629074    4.0105383    1.5175151  0.00    0.0197078   -0.0034909   -0.0152941
h    -0.9172667    0.0314936   -0.9816571  0.00   -0.0062277    0.0061368    0.0011064
h     3.1255844    1.1050167   -0.0223431  0.00    0.0022783   -0.0000276   -0.0001549
h     2.3383980    3.3128792    0.6617476  0.00    0.0049271   -0.0018155    0.0002683
h    -1.6525328    2.2119133   -0.2655547  0.00   -0.0027664   -0.0005038    0.0004762
c     1.7538427   -0.9791592   -0.9454281  0.00    0.1513081   -0.2181132    0.0278385
c     0.8813230   -2.0346862   -1.6920892  0.00    0.0695093    0.0453156    0.0307207
h     2.3283927   -1.3452882   -0.0872922  0.00    0.3023870   -0.5031304   -0.3167615
h     2.5563096   -0.7302908   -1.6701464  0.00   -0.0018953   -0.0154735    0.0095286
c     1.7695654   -3.2267293   -2.0930571  0.00   -0.0159119   -0.0998749   -0.1003988
o     1.5196829   -3.9507307   -3.1769791  0.00    0.0233732    0.0629613    0.0812867
o     2.8842773   -3.4653805   -1.3139955  0.00   -0.0135347   -0.0071406    0.0093696
h     3.0083194   -2.5975670   -0.7865996  0.00   -0.4627971    0.7652714    0.2592618
n    -0.3251456   -2.5168358   -0.9214431  0.00   -0.0292748   -0.0397372    0.0309019
h     0.5460710   -1.5861809   -2.6678535  0.00   -0.0050253    0.0015305   -0.0077287
h    -1.1737498   -2.0835442   -1.3758395  0.00   -0.0098532    0.0060989   -0.0167989
h    -0.5057014   -3.5353347   -1.1327647  0.00   -0.0083899   -0.0055939   -0.0117799
    24
 Energy =       0.2212605931
c     1.5905157    2.5671496    0.3192029  0.00    0.0158314    0.0226200    0.0113868
c     0.2630087    2.8621475    0.2379479  0.00   -0.0015589    0.0320581    0.0115618