    24
 Energy =       0.1622394873
c    -0.3750178    1.6472058    0.7948734  0.00   -0.0691797    0.0375434    0.0640566
c     0.0303172    2.8109335    0.1570437  0.00   -0.0612472    0.0771076    0.0473046
c     1.0081136    2.7718125   -0.8262434  0.00    0.0160586    0.0873910   -0.0344041
c     0.2069418    0.4293490    0.4310970  0.00   -0.0249021   -0.0566550    0.0331304
c     1.2047783    0.3610782   -0.5608861  0.00    0.1072225   -0.0535974   -0.0470959
c     1.5988173    1.5541349   -1.1780186  0.00    0.0405204   -0.0080480   -0.0375607
o    -0.5069839    4.0230167    0.4710260  0.00   -0.0142014   -0.0324459    0.0221559
h    -1.1463012    3.9010909    1.1919392  0.00    0.0550179   -0.0263272   -0.0530157
h     2.3707231    1.5818724   -1.9364796  0.00   -0.0026386    0.0150880    0.0039460
h    -0.1206493   -0.4779662    0.9373943  0.00   -0.0009885    0.0005024    0.0030229
h    -1.1350442    1.6632136    1.5694669  0.00    0.0004423   -0.0027097    0.0010896
h     1.3163936    3.6907012   -1.3176857  0.00    0.0031685   -0.0005294   -0.0043403
c     1.7669373   -1.0073413   -0.8964724  0.00   -0.0239958   -0.0238517   -0.0090385
c     0.8861134   -2.0194266   -1.6556448  0.00    0.0734019    0.1151027   -0.1156897
h     2.1212937   -1.4658931    0.0371405  0.00   -0.0037276    0.0106734   -0.0120562
h     2.6645729   -0.8285312   -1.5058794  0.00   -0.0156126    0.0025889    0.0043353
c     1.7481012   -3.2276699   -2.0845864  0.00    0.0680055   -0.3375825    0.1992792
o     2.0121944   -4.2017215   -1.3977638  0.00   -0.0699466    0.2312290   -0.1658975
o     2.2274762   -3.0566202   -3.3466422  0.00   -0.0474576    0.0683688    0.0203943
h     1.7814171   -2.2395412   -3.6859046  0.00   -0.1053004    0.0243607    0.1590888
n    -0.2697763   -2.5678537   -0.8742070  0.00   -0.0649788   -0.0968776   -0.0239123
h     0.4960411   -1.5757973   -2.5789902  0.00    0.0771183   -0.0617387   -0.0511942
h    -1.1308243   -2.1540904   -1.2498506  0.00    0.0317288   -0.0171598    0.0051325
h    -0.3593670   -3.5651556   -1.0813225  0.00    0.0314921    0.0475671   -0.0087310
    24
 Energy =       0.1348965196
c    -0.3240931    1.6397467    0.8134281  0.00   -0.0566061    0.0306256    0.0523592
c     0.0961036    2.7860647    0.1662469  0.00   -0.0500927    0.0624689    0.0386903
c     1.0671224    2.7201273   -0.8129729  0.00    0.0129952    0.0713718   -0.0279917
c     0.2371752    0.4162680    0.4659634  0.00   -0.0202781   -0.0463689    0.0269081
c     1.2278139    0.3257767   -0.5196643  0.00    0.0872152   -0.0433216   -0.0392906
c     1.6357498    1.4968921   -1.1522061  0.00    0.0330235   -0.0063698   -0.0306762
o    -0.4229572    4.0159686    0.4684788  0.00   -0.0108282   -0.0261089    0.0172349
h    -1.0761032    3.9310300    1.1931289  0.00    0.0441099   -0.0214199   -0.0424117
h     2.4029577    1.4948904   -1.9170349  0.00   -0.0018693    0.0122941    0.0029001
h    -0.1057933   -0.4817631    0.9785937  0.00   -0.0008261    0.0002153    0.0025468
h    -1.0848638    1.6784542    1.5865347  0.00    0.0001815   -0.0022008    0.0010688
h     1.3864048    3.6299194   -1.3138840  0.00    0.0026120   -0.0002685   -0.0035958
c     1.7661883   -1.0526794   -0.8538864  0.00   -0.0200554   -0.0160882   -0.0079985
c     0.8530694   -1.9804042   -1.6814289  0.00    0.0584153    0.0933984   -0.0935517
h     2.0306735   -1.5641837    0.0911070  0.00   -0.0021282    0.0060891   -0.0053709
h     2.7152265   -0.9078021   -1.4009975  0.00   -0.0091760    0.0033507    0.0025794
c     1.6479494   -3.2127908   -2.1554725  0.00    0.0530011   -0.2736634    0.1642236
o     1.9261708   -4.2008342   -1.4386226  0.00   -0.0566023    0.1888472   -0.1343763
o     2.0687230   -3.0999961   -3.4519976  0.00   -0.0226031    0.0037729    0.0200081
h     1.8141084   -2.1439000   -3.7190665  0.00   -0.1002177    0.0682259    0.1234735
n    -0.3356212   -2.4748136   -0.9205885  0.00   -0.0526443   -0.0799564   -0.0174371
h     0.5105687   -1.4641183   -2.5935195  0.00    0.0625204   -0.0489831   -0.0454938
h    -1.1746610   -2.0261672   -1.3190792  0.00    0.0244999   -0.0129041    0.0034512
h    -0.4656444   -3.4788845   -1.0996565  0.00    0.0253534    0.0369936   -0.0072498
    24
 Energy =       0.0820181555
c    -0.3641169    1.6103594    0.7490826  0.00   -0.0113577    0.0078375    0.0109525
c     0.0364587    2.7286527    0.0799995  0.00   -0.0103785    0.0113845    0.0097263
c     0.9922809    2.6360238   -0.8794346  0.00    0.0030043    0.0152608   -0.0042418
c     0.1954378    0.4018914    0.4518536  0.00   -0.0044085   -0.0107192    0.0035359
c     1.1638713    0.3024971   -0.5111281  0.00    0.0154041   -0.0082102   -0.0090925
c     1.5563602    1.4305073   -1.1779773  0.00    0.0066799   -0.0001507   -0.0055782
o    -0.5119300    3.9788488    0.3494588  0.00    0.0001404   -0.0054268   -0.0021685
h    -1.1617156    3.9676853    1.1217958  0.00    0.0074616   -0.0046854   -0.0046818
h     2.3252134    1.3843734   -1.9444992  0.00    0.0002191    0.0022132    0.0003801
h    -0.1289927   -0.4848922    0.9940728  0.00   -0.0002847   -0.0010297    0.0002390
h    -1.1284348    1.6746565    1.5164480  0.00   -0.0000960   -0.0003968    0.0003363
h     1.3003061    3.5354727   -1.4033918  0.00    0.0005964    0.0004777   -0.0008814
c     1.7940958   -1.0433181   -0.8059114  0.00   -0.0041859   -0.0055382   -0.0024401
c     0.8954499   -1.9623729   -1.6515684  0.00    0.0196395    0.0188848   -0.0341228
h     2.0311832   -1.5544383    0.1541179  0.00   -0.0004636    0.0014970   -0.0006989
h     2.7696867   -0.8900361   -1.3192334  0.00   -0.0010986    0.0006844    0.0001392
c     1.7003323   -3.1437704   -2.1655448  0.00   -0.0002283   -0.0575899    0.0371600
o     2.0107728   -4.2015541   -1.3682193  0.00   -0.0104033    0.0418475   -0.0260340
o     2.2274762   -3.0429238   -3.4415044  0.00    0.0010528   -0.0053480   -0.0003950
h     1.9630636   -2.1214458   -3.7803355  0.00   -0.0472621    0.0317982    0.0572221
n    -0.2661713   -2.3963504   -0.8442251  0.00   -0.0056876   -0.0124809   -0.0018526
h     0.5603035   -1.4304168   -2.5694889  0.00    0.0325577   -0.0226052   -0.0266529
h    -1.1259034   -1.9085373   -1.1862611  0.00    0.0020083   -0.0008528    0.0009012
h    -0.4387595   -3.4241117   -0.9547019  0.00    0.0070906    0.0031483   -0.0017519
    24
 Energy =       0.0783073310
c    -0.4264792    1.5903437    0.7363252  0.00   -0.0088027    0.0062753    0.0085832
c    -0.0347269    2.7095971    0.0652311  0.00   -0.0076959    0.0084381    0.0074913
c     0.9446533    2.6262974   -0.8699998  0.00    0.0024459    0.0117693   -0.0033585
c     0.1623719    0.3913242    0.4637633  0.00   -0.0033774   -0.0085097    0.0027732
c     1.1525183    0.3026748   -0.4757548  0.00    0.0120843   -0.0065996   -0.0073159
c     1.5373076    1.4301067   -1.1448727  0.00    0.0053841   -0.0005751   -0.0045230
o    -0.6204286    3.9513298    0.3067222  0.00    0.0017145   -0.0032316   -0.0035837
h    -1.3204687    3.9303136    1.0380430  0.00    0.0030624   -0.0031824   -0.0011767
h     2.3219286    1.3894734   -1.8960706  0.00    0.0003806    0.0015684    0.0001137
h    -0.1593436   -0.4978473    1.0034855  0.00   -0.0002519   -0.0008313    0.0001841
h    -1.2101953    1.6469498    1.4849114  0.00   -0.0003862   -0.0001793    0.0005358
h     1.2453862    3.5264222   -1.3966337  0.00    0.0004326    0.0004289   -0.0006691
c     1.8101977   -1.0330982   -0.7541686  0.00   -0.0032698   -0.0036891   -0.0013797
c     0.9522985   -1.9448074   -1.6501480  0.00    0.0156448    0.0140460   -0.0277681
h     2.0092340   -1.5551416    0.2097802  0.00   -0.0002176    0.0010311    0.0002996
h     2.8073237   -0.8659099   -1.2229700  0.00    0.0003471    0.0006603   -0.0003986
c     1.7899465   -3.1050921   -2.1658905  0.00   -0.0001094   -0.0442354    0.0278798
o     2.1147766   -4.1631751   -1.3628233  0.00   -0.0077497    0.0318195   -0.0197916
o     2.3234016   -3.0053971   -3.4410560  0.00    0.0010110   -0.0047386   -0.0001624
h     2.0498494   -2.0983585   -3.8052162  0.00   -0.0371070    0.0252732    0.0446451
n    -0.2303729   -2.4045970   -0.8867937  0.00   -0.0040744   -0.0095401    0.0004710
h     0.6374274   -1.3885954   -2.5618942  0.00    0.0256403   -0.0174033   -0.0214305
h    -1.0911900   -1.9466558   -1.2697192  0.00   -0.0004342    0.0000494    0.0001778
h    -0.3691480   -3.4393566   -0.9908468  0.00    0.0053287    0.0013560   -0.0015970
    24
 Energy =       0.0751937952
c    -0.4986985    1.5667255    0.7181258  0.00   -0.0062575    0.0046734    0.0061328
c    -0.1320846    2.6878302    0.0372373  0.00   -0.0050459    0.0057591    0.0051057
c     0.8601732    2.6198324   -0.8839114  0.00    0.0015555    0.0086444   -0.0022327
c     0.1276160    0.3826136    0.4703756  0.00   -0.0021807   -0.0064617    0.0018876
c     1.1308494    0.3111114   -0.4539835  0.00    0.0084017   -0.0050062   -0.0050502
c     1.4897704    1.4385139   -1.1348412  0.00    0.0040030   -0.0007760   -0.0033622
o    -0.7588334    3.9163210    0.2553793  0.00    0.0009456   -0.0010409   -0.0026592
h    -1.4792219    3.8841256    0.9676327  0.00    0.0014571   -0.0019177   -0.0003416
h     2.2832273    1.4084782   -1.8774353  0.00    0.0003887    0.0009812   -0.0000175
h    -0.1763044   -0.5093067    1.0158198  0.00   -0.0001741   -0.0008140    0.0001577
h    -1.2937439    1.6109002    1.4555308  0.00   -0.0004395   -0.0000091    0.0005071
h     1.1405358    3.5212357   -1.4195192  0.00    0.0002710    0.0005912   -0.0005164
c     1.8304227   -1.0073656   -0.7125345  0.00   -0.0020048   -0.0026450   -0.0003952
c     1.0196824   -1.9323404   -1.6391984  0.00    0.0109328    0.0097543   -0.0205888
h     2.0110729   -1.5296582    0.2551691  0.00   -0.0000706    0.0007728    0.0004693
h     2.8386502   -0.8157578   -1.1487516  0.00    0.0011001    0.0004509   -0.0005634
c     1.9034838   -3.0647591   -2.1482288  0.00   -0.0002373   -0.0303903    0.0181645
o     2.2621495   -4.1082836   -1.3277373  0.00   -0.0045818    0.0210355   -0.0130160
o     2.4421909   -2.9711064   -3.4238228  0.00    0.0011482   -0.0045404    0.0002824
h     2.1541810   -2.0847945   -3.8224873  0.00   -0.0268634    0.0191319    0.0316037
n    -0.1688216   -2.4256908   -0.9058795  0.00   -0.0014846   -0.0054628    0.0022453
h     0.7078960   -1.3688013   -2.5481617  0.00    0.0185326   -0.0124494   -0.0156078
h    -1.0368201   -2.0137239   -1.3275157  0.00   -0.0029588    0.0010460   -0.0008106
h    -0.2611047   -3.4692988   -0.9878582  0.00    0.0035626   -0.0013271   -0.0013945
    24
 Energy =       0.0746848285
c    -0.5678028    1.5560511    0.6769862  0.00   -0.0059120    0.0045374    0.0057051
c    -0.2242146    2.6775277   -0.0152678  0.00   -0.0044497    0.0051589    0.0045628
c     0.7797086    2.6235435   -0.9244082  0.00    0.0012012    0.0083421   -0.0019765
c     0.0929733    0.3857933    0.4527259  0.00   -0.0018108   -0.0062896    0.0017098
c     1.1080561    0.3289256   -0.4592201  0.00    0.0075783   -0.0045402   -0.0045649
c     1.4436109    1.4561384   -1.1520438  0.00    0.0038968   -0.0010144   -0.0032129
o    -0.8870680    3.8920822    0.1790798  0.00    0.0004123    0.0001239   -0.0023646
h    -1.6174616    3.8497009    0.8808564  0.00    0.0010694   -0.0015654   -0.0001444
h     2.2463652    1.4372142   -1.8851622  0.00    0.0004936    0.0007905   -0.0001171
h    -0.1921622   -0.5065860    1.0077231  0.00   -0.0001417   -0.0009826    0.0002274
h    -1.3719456    1.5890315    1.4051675  0.00   -0.0005302    0.0000814    0.0005526
h     1.0416273    3.5250612   -1.4693345  0.00    0.0002114    0.0007900   -0.0005191
c     1.8503830   -0.9721700   -0.6890387  0.00   -0.0009549   -0.0024957   -0.0001556
c     1.0775465   -1.9379208   -1.6080550  0.00    0.0094882    0.0092607   -0.0191414
h     2.0382761   -1.4728293    0.2890155  0.00    0.0001637    0.0005169    0.0006762
h     2.8570786   -0.7569576   -1.1182475  0.00    0.0013591    0.0004455   -0.0004893
c     2.0061580   -3.0451317   -2.0965714  0.00   -0.0008471   -0.0261799    0.0146312
o     2.4209026   -4.0487080   -1.2472382  0.00   -0.0027303    0.0163283   -0.0098306
o     2.5370183   -2.9623236   -3.3768321  0.00    0.0013573   -0.0048954    0.0005930
h     2.2251925   -2.0939543   -3.7967438  0.00   -0.0245550    0.0182434    0.0281122
n    -0.0969148   -2.4631660   -0.8737069  0.00    0.0003119   -0.0035365    0.0033588
h     0.7484238   -1.3970824   -2.5254112  0.00    0.0164212   -0.0110005   -0.0144112
h    -0.9787932   -2.1038139   -1.3177550  0.00   -0.0050673    0.0018687   -0.0018355
h    -0.1406902   -3.5136254   -0.9231140  0.00    0.0030346   -0.0039875   -0.0013657
    24
 Energy =       0.0729313766
c    -0.5087645    1.5366506    0.7527353  0.00   -0.0045428    0.0034959    0.0042301
c    -0.1715485    2.6608364    0.0629103  0.00   -0.0033102    0.0035929    0.0033574
c     0.8102182    2.6059842   -0.8693986  0.00    0.0009637    0.0060973   -0.0015617
c     0.1370958    0.3641680    0.5047236  0.00   -0.0015139   -0.0044743    0.0014528
c     1.1300677    0.3073396   -0.4300273  0.00    0.0054979   -0.0026430   -0.0032924
c     1.4585991    1.4361064   -1.1216342  0.00    0.0030497   -0.0010274   -0.0024590
o    -0.8184261    3.8799577    0.2852656  0.00    0.0001901    0.0005224   -0.0017372
h    -1.5331297    3.8391116    1.0036795  0.00    0.0004429   -0.0010354    0.0002037
h     2.2419365    1.4147709   -1.8758506  0.00    0.0006815    0.0004721   -0.0003691
h    -0.1450835   -0.5315070    1.0556714  0.00   -0.0001177   -0.0007305    0.0002091
h    -1.2965256    1.5700258    1.4987328  0.00   -0.0006213    0.0001329    0.0005938
h     1.0668810    3.5095804   -1.4129554  0.00    0.0001752    0.0005802   -0.0004003
c     1.8455798   -1.0007981   -0.7023261  0.00    0.0004163   -0.0011093   -0.0002093
c     1.0481417   -1.9119427   -1.6564515  0.00    0.0062452    0.0064743   -0.0144486
h     2.0210418   -1.5424775    0.2570098  0.00    0.0004663   -0.0001635    0.0013829
h     2.8564589   -0.7925379   -1.1241087  0.00    0.0010925    0.0004790   -0.0002775
c     1.9451676   -3.0291491   -2.1860499  0.00   -0.0015670   -0.0147841    0.0073325
o     2.2925918   -4.1020857   -1.3812115  0.00   -0.0003549    0.0060852   -0.0033577
o     2.4901011   -2.9234971   -3.4608678  0.00    0.0010369   -0.0034736    0.0000702
h     2.1975588   -2.0490839   -3.8793359  0.00   -0.0183138    0.0135552    0.0204806
n    -0.1414064   -2.4267835   -0.9404865  0.00    0.0079716    0.0029961    0.0077548
h     0.7332760   -1.3243598   -2.5509841  0.00    0.0117371   -0.0073171   -0.0116150
h    -1.0097648   -1.9742392   -1.3337693  0.00   -0.0109138    0.0055691   -0.0050694
h    -0.2537985   -3.4692695   -1.0818671  0.00    0.0012883   -0.0132945   -0.0022708
    24
 Energy =       0.0711025048
c    -0.4857761    1.4812702    0.8350384  0.00   -0.0022243    0.0010800    0.0020696
c    -0.1902755    2.6161533    0.1442741  0.00   -0.0013781    0.0014568    0.0012647
c     0.7614475    2.5856521   -0.8186534  0.00    0.0009044    0.0026051   -0.0011908
c     0.1727380    0.3243808    0.5599088  0.00   -0.0011873   -0.0019453    0.0012463
c     1.1360838    0.2937242   -0.4046353  0.00    0.0021767   -0.0010762   -0.0010236
c     1.4216525    1.4313023   -1.0990236  0.00    0.0016666   -0.0002476   -0.0015066
o    -0.8500065    3.8227732    0.3995335  0.00    0.0002276    0.0009364   -0.0010259
h    -1.5443741    3.7647916    1.1373061  0.00   -0.0004961   -0.0003487    0.0007414
h     2.1788287    1.4275590   -1.8804177  0.00    0.0008737    0.0002350   -0.0007967
h    -0.0785983   -0.5811189    1.1099437  0.00   -0.0002904   -0.0006886    0.0004266
h    -1.2510499    1.4948366    1.6049798  0.00   -0.0007716   -0.0000027    0.0007623
h     0.9846236    3.4974088   -1.3636628  0.00    0.0003048    0.0006752   -0.0005357
c     1.8577445   -0.9994994   -0.7232553  0.00    0.0003096   -0.0002795   -0.0002846
c     1.0547934   -1.8753918   -1.7030652  0.00    0.0025029    0.0020021   -0.0053086
h     2.0415423   -1.5755143    0.2142370  0.00    0.0003049   -0.0004610    0.0012238
h     2.8638530   -0.7717331   -1.1450984  0.00    0.0005847    0.0001934   -0.0002561
c     1.9526946   -2.9649673   -2.2946792  0.00   -0.0006156   -0.0042966    0.0015106
o     2.2883041   -4.0826392   -1.5399646  0.00    0.0004653   -0.0002292    0.0002878
o     2.4998646   -2.8180242   -3.5683666  0.00    0.0006476   -0.0009614   -0.0012085
h     2.2119575   -1.9458017   -3.9894399  0.00   -0.0079919    0.0057183    0.0087874
n    -0.1206993   -2.4204300   -0.9879345  0.00    0.0029685    0.0014941    0.0040306
h     0.7184418   -1.2468696   -2.5620026  0.00    0.0050494   -0.0024902   -0.0061137
h    -0.9928062   -1.9581694   -1.3482852  0.00   -0.0045610    0.0024525   -0.0024155
h    -0.2347160   -3.4528925   -1.1633331  0.00    0.0005297   -0.0058219   -0.0006846
    24
 Energy =       0.0710806589
c    -0.4725797    1.4372283    0.8882811  0.00   -0.0020649    0.0008730    0.0019450
c    -0.1798736    2.5896154    0.2255168  0.00   -0.0011101    0.0012678    0.0009869
c     0.7656152    2.5829324   -0.7438242  0.00    0.0007067    0.0025844   -0.0010954
c     0.1824648    0.2868261    0.5790018  0.00   -0.0009632   -0.0020172    0.0011440
c     1.1397687    0.2802473   -0.3917559  0.00    0.0018305   -0.0010357   -0.0007299
c     1.4225046    1.4353482   -1.0580854  0.00    0.0016165   -0.0001822   -0.0015039
o    -0.8362784    3.7904415    0.5164621  0.00    0.0000335    0.0015469   -0.0009387
h    -1.5266666    3.7141984    1.2564105  0.00   -0.0006282   -0.0002483    0.0008273
h     2.1742057    1.4507425   -1.8446195  0.00    0.0008735    0.0002025   -0.0008239
h    -0.0676395   -0.6328981    1.1058314  0.00   -0.0002991   -0.0009207    0.0005155
h    -1.2332924    1.4316691    1.6628361  0.00   -0.0007848   -0.0000109    0.0007818
h     0.9864004    3.5084065   -1.2665653  0.00    0.0002933    0.0008833   -0.0005924
c     1.8552420   -1.0059461   -0.7516961  0.00    0.0003841   -0.0002867   -0.0001645
c     1.0397822   -1.8505515   -1.7487566  0.00    0.0017737    0.0019776   -0.0039864
h     2.0454358   -1.6083668    0.1679314  0.00    0.0003596   -0.0006447    0.0014363
h     2.8582597   -0.7692621   -1.1758763  0.00    0.0005554    0.0001507   -0.0002492
c     1.9324821   -2.9135608   -2.3979078  0.00   -0.0008012   -0.0030116    0.0010770
o     2.2673570   -4.0690325   -1.6987177  0.00    0.0009738   -0.0024944    0.0017578
o     2.4804152   -2.7055154   -3.6646330  0.00    0.0017494   -0.0016585   -0.0024211
h     2.1990582   -1.8119905   -4.0460899  0.00   -0.0068500    0.0062228    0.0062848
n    -0.1223764   -2.4235306   -1.0324264  0.00    0.0046044    0.0027776    0.0052679
h     0.6857352   -1.1914519   -2.5779502  0.00    0.0039354   -0.0014346   -0.0058161
h    -1.0097858   -2.0119511   -1.4189628  0.00   -0.0061795    0.0031546   -0.0028118
h    -0.1899663   -3.4667980   -1.1710001  0.00   -0.0000085   -0.0076957   -0.0008907
    24
 Energy =       0.0709124870
c    -0.4377408    1.4680319    0.8838283  0.00   -0.0019291    0.0004666    0.0019268
c    -0.1589339    2.6087161    0.1950728  0.00   -0.0010270    0.0012253    0.0008772
c     0.7683577    2.5858495   -0.7915792  0.00    0.0008406    0.0023697   -0.0012335
c     0.2130806    0.3133066    0.5832685  0.00   -0.0010822   -0.0018797    0.0012663
c     1.1516965    0.2903811   -0.4054582  0.00    0.0016716   -0.0010410   -0.0006375
c     1.4205667    1.4336139   -1.0976523  0.00    0.0015505    0.0001319   -0.0015572
o    -0.8112880    3.8138331    0.4769112  0.00    0.0002949    0.0014658   -0.0011301
h    -1.4881756    3.7499817    1.2306139  0.00   -0.0008240   -0.0002610    0.0010285
h     2.1576043    1.4356806   -1.8982547  0.00    0.0009415    0.0002630   -0.0009429
h    -0.0254389   -0.5969769    1.1318719  0.00   -0.0003953   -0.0010451    0.0006642
h    -1.1837320    1.4754083    1.6727440  0.00   -0.0008683   -0.0000973    0.0009021
h     0.9784229    3.5022187   -1.3346779  0.00    0.0003663    0.0009887   -0.0007057
c     1.8621925   -1.0012418   -0.7549971  0.00    0.0002007   -0.0000381    0.0000344
c     1.0347646   -1.8619017   -1.7281527  0.00    0.0015918    0.0021099   -0.0031318
h     2.0635450   -1.5898291    0.1712859  0.00    0.0003191   -0.0006378    0.0013836
h     2.8596315   -0.7719010   -1.1961075  0.00    0.0006427    0.0002395   -0.0002784
c     1.9124563   -2.9595563   -2.3416760  0.00   -0.0021189   -0.0022209    0.0030593
o     2.2669695   -4.0730725   -1.5833279  0.00    0.0011857   -0.0046283    0.0040367
o     2.4180242   -2.8326688   -3.6400153  0.00    0.0040110   -0.0031214   -0.0055614
h     2.1153232   -1.9707436   -4.0777310  0.00   -0.0063664    0.0081997    0.0029225
n    -0.1336891   -2.4001826   -0.9952816  0.00    0.0085547    0.0048293    0.0080162
h     0.6892301   -1.2202866   -2.5744021  0.00    0.0033247   -0.0007639   -0.0051210
h    -1.0107448   -1.9197349   -1.3305021  0.00   -0.0104581    0.0052774   -0.0040399
h    -0.2658545   -3.4321251   -1.1823768  0.00   -0.0004264   -0.0118325   -0.0017782
    24
 Energy =       0.0707675327
c    -0.3709774    1.4686808    0.9318264  0.00   -0.0016646    0.0006891    0.0015573
c    -0.0853576    2.6125560    0.2519797  0.00   -0.0007867    0.0008258    0.0006866
c     0.8234756    2.5856889   -0.7512809  0.00    0.0005199    0.0020211   -0.0008946
c     0.2544724    0.3068754    0.6057371  0.00   -0.0007405   -0.0015890    0.0009685
c     1.1743597    0.2797797   -0.3999327  0.00    0.0013350   -0.0006638   -0.0005341
c     1.4503264    1.4263659   -1.0828569  0.00    0.0013691   -0.0002432   -0.0012865
o    -0.7121539    3.8251878    0.5600183  0.00   -0.0000962    0.0017313   -0.0007011
h    -1.3771691    3.7637844    1.3243069  0.00   -0.0007777   -0.0000905    0.0009097
h     2.1721809    1.4249966   -1.8970320  0.00    0.0008642    0.0000878   -0.0008450
h     0.0094323   -0.6059745    1.1466143  0.00   -0.0002693   -0.0008478    0.0004997
h    -1.1026860    1.4792084    1.7338074  0.00   -0.0007935    0.0000247    0.0007959
h     1.0390837    3.5047161   -1.2871474  0.00    0.0002390    0.0007989   -0.0005105
c     1.8528951   -1.0205099   -0.7810118  0.00    0.0008765   -0.0000962    0.0000131
c     0.9941611   -1.8445203   -1.7591857  0.00    0.0009433    0.0015309   -0.0017226
h     2.0528080   -1.6302010    0.1317259  0.00    0.0004280   -0.0006434    0.0012547
h     2.8493833   -0.8050957   -1.2309584  0.00    0.0006498    0.0001631   -0.0002016
c     1.8346388   -2.9624705   -2.3898243  0.00   -0.0023338   -0.0022360    0.0045543
o     2.2106755   -4.0612642   -1.6216772  0.00    0.0007563   -0.0035879    0.0035445
o     2.2791661   -2.8777326   -3.7151537  0.00    0.0043768   -0.0026529   -0.0071684
h     1.9565700   -2.0339962   -4.1719531  0.00   -0.0045411    0.0064556    0.0011062
n    -0.1852469   -2.3568581   -1.0253779  0.00    0.0059231    0.0034303    0.0059838
h     0.6618106   -1.1787945   -2.5916240  0.00    0.0018745   -0.0000742   -0.0036624
h    -1.0524377   -1.8667411   -1.3663883  0.00   -0.0078239    0.0039315   -0.0029846
h    -0.3331428   -3.3868809   -1.2012079  0.00   -0.0003281   -0.0089653   -0.0013627
    24
 Energy =       0.0707737842
c    -0.3390274    1.4646731    0.9571647  0.00   -0.0015591    0.0006631    0.0014549
c    -0.0406511    2.6124875    0.2895564  0.00   -0.0006735    0.0007585    0.0005731
c     0.8643212    2.5851529   -0.7169830  0.00    0.0003872    0.0020161   -0.0007767
c     0.2697163    0.2984575    0.6155083  0.00   -0.0005959   -0.0016007    0.0008485
c     1.1856784    0.2707687   -0.3934927  0.00    0.0011892   -0.0006258   -0.0004267
c     1.4746204    1.4214840   -1.0639838  0.00    0.0012945   -0.0002473   -0.0012191
o    -0.6504538    3.8297469    0.6135620  0.00   -0.0002169    0.0018926   -0.0005893
h    -1.3138956    3.7682722    1.3791163  0.00   -0.0007116   -0.0000560    0.0008246
h     2.1932514    1.4197681   -1.8808757  0.00    0.0007896    0.0000693   -0.0007710
h     0.0137677   -0.6174568    1.1460358  0.00   -0.0002409   -0.0008936    0.0004844
h    -1.0679704    1.4755684    1.7615225  0.00   -0.0007228    0.0000302    0.0007231
h     1.0900847    3.5073694   -1.2431083  0.00    0.0002084    0.0008345   -0.0004875
c     1.8436421   -1.0345414   -0.7935879  0.00    0.0010460   -0.0000964    0.0000542
c     0.9692339   -1.8315226   -1.7804723  0.00    0.0007057    0.0012882   -0.0014425
h     2.0367534   -1.6594395    0.1102776  0.00    0.0004621   -0.0006903    0.0012585
h     2.8419664   -0.8282495   -1.2436419  0.00    0.0006516    0.0001605   -0.0001625
c     1.7888443   -2.9559282   -2.4274397  0.00   -0.0022232   -0.0021989    0.0045138
o     2.1745548   -4.0544527   -1.6641187  0.00    0.0006832   -0.0032647    0.0032647
o     2.2023168   -2.8808435   -3.7633186  0.00    0.0042203   -0.0024598   -0.0070819
h     1.8703994   -2.0409295   -4.2197740  0.00   -0.0040409    0.0058274    0.0008327
n    -0.2176514   -2.3325409   -1.0507282  0.00    0.0056466    0.0032274    0.0057339
h     0.6469906   -1.1475626   -2.6020576  0.00    0.0015100    0.0001411   -0.0034022
h    -1.0828344   -1.8559328   -1.4145686  0.00   -0.0074811    0.0038775   -0.0028562
h    -0.3573899   -3.3675479   -1.2011886  0.00   -0.0003287   -0.0086530   -0.0013507
    24
 Energy =       0.0705797570
c    -0.2660999    1.4396969    1.0308316  0.00   -0.0008018    0.0006808    0.0006534
c     0.0464961    2.5984860    0.3903324  0.00   -0.0000930    0.0001127    0.0000333
c     0.9316403    2.5783803   -0.6328205  0.00   -0.0002308    0.0013269   -0.0000768
c     0.3087588    0.2700790    0.6458589  0.00    0.0001391   -0.0011267    0.0001440
c     1.2054480    0.2497890   -0.3792336  0.00    0.0005144   -0.0001883   -0.0000291
c     1.5085318    1.4114736   -1.0226883  0.00    0.0007514   -0.0005805   -0.0006486
o    -0.5287524    3.8201166    0.7595338  0.00   -0.0007760    0.0021999    0.0001836
h    -1.1803327    3.7526094    1.5342417  0.00   -0.0003764    0.0001795    0.0003752
h     2.2112230    1.4154523   -1.8526598  0.00    0.0003934   -0.0001393   -0.0003646
h     0.0395751   -0.6544535    1.1535812  0.00   -0.0000333   -0.0006856    0.0002039
h    -0.9801608    1.4447351    1.8478329  0.00   -0.0003566    0.0001438    0.0003292
h     1.1686347    3.5093756   -1.1373670  0.00   -0.0000030    0.0006061   -0.0001792
c     1.8236032   -1.0586295   -0.8293368  0.00    0.0018249    0.0001334   -0.0001650
c     0.9227563   -1.7907409   -1.8426227  0.00    0.0000499   -0.0003688   -0.0002789
h     2.0007165   -1.7228167    0.0494858  0.00    0.0005422   -0.0009101    0.0011938
h     2.8258472   -0.8648322   -1.2752277  0.00    0.0003399    0.0001341    0.0000482
c     1.6995205   -2.9306285   -2.5151170  0.00   -0.0011944   -0.0014369    0.0029922
o     2.1002023   -4.0246219   -1.7562842  0.00    0.0000949   -0.0008245    0.0010301
o     2.0531357   -2.8862128   -3.8675653  0.00    0.0022225   -0.0008109   -0.0043943
h     1.7116463   -2.0577991   -4.3325621  0.00   -0.0009217    0.0013692   -0.0003259
n    -0.2884697   -2.2615638   -1.1334411  0.00    0.0035512    0.0011891    0.0040846
h     0.6331502   -1.0657636   -2.6409391  0.00   -0.0003107    0.0013008   -0.0016173
h    -1.1419557   -1.8207949   -1.5605163  0.00   -0.0052644    0.0034159   -0.0020106
h    -0.4088468   -3.3045358   -1.2199129  0.00   -0.0000617   -0.0057206   -0.0011812
    24
 Energy =       0.0705793705
c    -0.3053021    1.4412865    1.0080515  0.00   -0.0002652   -0.0003475    0.0004382
c    -0.0341950    2.5957827    0.3408236  0.00    0.0000979    0.0003386   -0.0002142
c     0.8382604    2.5816014   -0.6927411  0.00   -0.0000565    0.0010266   -0.0001689
c     0.2992786    0.2822543    0.6403006  0.00    0.0000588   -0.0008668    0.0001000
c     1.1846415    0.2685843   -0.3941061  0.00   -0.0001934   -0.0003216    0.0003877
c     1.4447827    1.4251668   -1.0654857  0.00    0.0002442    0.0005749   -0.0004715
o    -0.6390996    3.8069645    0.6934673  0.00   -0.0000358    0.0012675   -0.0002499
h    -1.2777719    3.7360137    1.4784128  0.00   -0.0001920   -0.0000350    0.0002383
h     2.1383948    1.4336052   -1.9026093  0.00    0.0000778    0.0001486   -0.0001433
h     0.0649288   -0.6391645    1.1712319  0.00   -0.0001534   -0.0009107    0.0003849
h    -1.0087913    1.4414595    1.8338596  0.00   -0.0000932   -0.0001382    0.0001450
h     1.0422401    3.5090359   -1.2183952  0.00    0.0001208    0.0007962   -0.0003519
c     1.8444366   -1.0273362   -0.8170625  0.00    0.0006457   -0.0002588    0.0006528
c     0.9753151   -1.8080593   -1.8199314  0.00   -0.0011319   -0.0000095    0.0001728
h     2.0361809   -1.6693673    0.0742122  0.00    0.0002176   -0.0004382    0.0003900
h     2.8432160   -0.8111305   -1.2604801  0.00    0.0004046    0.0000559    0.0000677
c     1.7878055   -2.9550198   -2.4365944  0.00    0.0001479   -0.0001359    0.0000294
o     2.1839737   -4.0207046   -1.6359017  0.00    0.0005431   -0.0014375    0.0008739
o     2.1761554   -2.9461805   -3.7785619  0.00    0.0010667   -0.0011006   -0.0014860
h     1.8452500   -2.1328857   -4.2763696  0.00   -0.0004185    0.0010439   -0.0006819
n    -0.2367831   -2.2790333   -1.1146448  0.00    0.0070589    0.0048240    0.0051324
h     0.6851216   -1.1187098   -2.6479983  0.00   -0.0003357    0.0008974   -0.0009055
h    -1.0781349   -1.7621729   -1.4790870  0.00   -0.0067200    0.0042667   -0.0033486
h    -0.4136358   -3.3051899   -1.2869864  0.00   -0.0010883   -0.0092403   -0.0009915
    24
 Energy =       0.0705796455
c    -0.3018316    1.4344852    1.0176132  0.00   -0.0002495   -0.0003453    0.0004173
c    -0.0235144    2.5922170    0.3591038  0.00    0.0000912    0.0003236   -0.0002020