    27
 Energy =       0.3275384655
c    -1.4235396    2.6054793   -0.0667700  0.00   -0.0463558    0.0382819    0.0025920
c    -1.3072796    1.2134697   -0.1072300  0.00   -0.0852668   -0.0326513    0.0018535
c    -0.0178900    0.6711998   -0.1697000  0.00   -0.0889692   -0.1876796   -0.0002619
c    -0.2940599    3.4190890   -0.0891300  0.00   -0.0232905    0.0691000    0.0028608
c     0.9872197    2.8590292   -0.1560400  0.00    0.0101541    0.0641175    0.0010710
c     1.1340797    1.4562096   -0.1970299  0.00    0.0528084    0.0515348    0.0024060
n     0.3879399   -0.6395298   -0.2140799  0.00    0.1445367    0.1088218   -0.0060116
c     2.2666594    0.5727398   -0.2659299  0.00    0.1558676   -0.0858532   -0.0021942
c     1.7555995   -0.7123598   -0.2706899  0.00   -0.0989621   -0.0965534    0.0029536
h    -0.2400399   -1.4313496   -0.2047299  0.00    0.0363413    0.0478937    0.0005571
c     3.7030089    1.0223397   -0.3320099  0.00   -0.0227194    0.0124531   -0.0323698
c     4.2197688    1.4064496   -1.7267995  0.00   -0.1223755    0.1176871   -0.0051205
h     4.3261788    0.2093419    0.0639454  0.00   -0.0063534    0.0140943   -0.0054137
h     3.8370289    1.8640295    0.3610799  0.00   -0.0043990   -0.0129133   -0.0052216
c     3.7734089    0.3331939   -2.7369592  0.00    0.1233660   -0.3724465   -0.0213594
n     5.7205784    1.5052196   -1.8052095  0.00    0.0910783   -0.0353314   -0.0431292
h     3.7949889    2.3605393   -2.0604594  0.00   -0.0897528   -0.0764613   -0.1501261
h     6.0814483    1.3602996   -0.8566008  0.00   -0.0328975   -0.0053864   -0.0265627
h     6.0587583    0.6873448   -2.3244293  0.00   -0.0488388    0.0204007    0.0165039
h    -2.4108593    3.0588691   -0.0157800  0.00   -0.0008125    0.0002705    0.0001779
h    -2.1896094    0.5822398   -0.0890100  0.00   -0.0036474    0.0037918    0.0002950
h    -0.4052699    4.5000487   -0.0535400  0.00    0.0009123    0.0002178    0.0003961
h     1.8590495    3.5066790   -0.1715100  0.00   -0.0010374    0.0030429    0.0006985
h     2.2327294   -1.6813195   -0.3062999  0.00   -0.0424226   -0.0111971    0.0046726
o     4.1225288   -0.8355638   -2.7317292  0.00   -0.0811723    0.2860234   -0.0023472
o     2.9198892    0.8519998   -3.6604990  0.00    0.0244870    0.0620307    0.0547122
h     2.8430892    1.8133095   -3.4268690  0.00    0.1597212    0.0167118    0.2083677
    27
 Energy =       0.3008000010
c    -1.4119902    2.5658512   -0.0870874  0.00   -0.0401390    0.0331621    0.0022527
c    -1.2971420    1.1783356   -0.1238430  0.00   -0.0739296   -0.0283324    0.0016029
c    -0.0155162    0.6360483   -0.1871098  0.00   -0.0770147   -0.1625775   -0.0004637
c    -0.2836233    3.3752244   -0.1114336  0.00   -0.0202243    0.0598854    0.0025025
c     0.9916872    2.8136327   -0.1768145  0.00    0.0088511    0.0556036    0.0009286
c     1.1291580    1.4175542   -0.2159601  0.00    0.0456710    0.0448010    0.0020536
n     0.3802243   -0.6846935   -0.2151810  0.00    0.1251237    0.0940796   -0.0049015
c     2.2544480    0.5460036   -0.2788018  0.00    0.1350590   -0.0744942   -0.0018948
c     1.7563079   -0.7381297   -0.2810953  0.00   -0.0858834   -0.0833176    0.0022916
h    -0.2465985   -1.4832572   -0.1954431  0.00    0.0314889    0.0414405    0.0005770
c     3.6930832    0.9906304   -0.3218777  0.00   -0.0222690    0.0102535   -0.0279741
c     4.1993479    1.4544576   -1.6995396  0.00   -0.1070181    0.1024695   -0.0038997
h     4.3189931    0.1476195    0.0149221  0.00   -0.0048419    0.0101834   -0.0039896
h     3.8353146    1.7906282    0.4235138  0.00   -0.0035230   -0.0096717   -0.0029307
c     3.8054408    0.4096148   -2.7563453  0.00    0.1074683   -0.3226031   -0.0181880
n     5.6917557    1.6222776   -1.7508202  0.00    0.0801265   -0.0269276   -0.0359549
h     3.7293230    2.4020438   -1.9979364  0.00   -0.0790789   -0.0651484   -0.1315055
h     6.0572151    1.4774361   -0.8006323  0.00   -0.0280538   -0.0045239   -0.0230937
h     6.0864994    0.8460979   -2.3034863  0.00   -0.0404987    0.0140831    0.0117644
h    -2.3985859    3.0206774   -0.0357263  0.00   -0.0007057    0.0002335    0.0001537
h    -2.1790244    0.5466852   -0.1002809  0.00   -0.0031710    0.0032769    0.0002615
h    -0.3927001    4.4565140   -0.0775880  0.00    0.0007898    0.0001913    0.0003427
h     1.8667804    3.4569343   -0.1920258  0.00   -0.0008510    0.0026135    0.0005615
h     2.2602639   -1.6941336   -0.3096984  0.00   -0.0365623   -0.0099528    0.0040320
o     4.1457673   -0.7851063   -2.7304230  0.00   -0.0702502    0.2478857   -0.0008113
o     2.9989544    0.9329007   -3.7249486  0.00    0.0267658    0.0233542    0.0297993
h     2.7600212    1.8571507   -3.3783462  0.00    0.1326704    0.0440324    0.1964836
    27
 Energy =       0.2252344791
c    -1.3332837    2.5891657   -0.1397134  0.00   -0.0111227    0.0092779    0.0009517
c    -1.2333404    1.2210839   -0.1398397  0.00   -0.0219468   -0.0090156    0.0002277
c     0.0103722    0.6687805   -0.1846803  0.00   -0.0207343   -0.0470482   -0.0045414
c    -0.2041217    3.3707130   -0.1790881  0.00   -0.0070515    0.0173747    0.0015568
c     1.0410749    2.7920406   -0.2225292  0.00    0.0025738    0.0173277    0.0008012
c     1.1289618    1.4239646   -0.2247260  0.00    0.0112016    0.0147477    0.0006284
n     0.3470990   -0.6985568   -0.1497059  0.00    0.0355501    0.0241466    0.0029913
c     2.2154326    0.5946700   -0.2519758  0.00    0.0421560   -0.0211648   -0.0023108
c     1.7612079   -0.6812607   -0.2360341  0.00   -0.0289225   -0.0201987   -0.0021816
h    -0.2862807   -1.5177474   -0.0896673  0.00    0.0090220    0.0115455    0.0016740
c     3.6707316    1.0032794   -0.2864001  0.00   -0.0069613    0.0016682   -0.0084827
c     4.1681283    1.4025963   -1.6929223  0.00   -0.0413121    0.0337515   -0.0135302
h     4.2822886    0.1536958    0.0856448  0.00   -0.0018571    0.0023579   -0.0008073
h     3.8307984    1.8449697    0.4200709  0.00   -0.0014616   -0.0014959   -0.0000880
c     3.7175093    0.4038036   -2.7469000  0.00    0.0412596   -0.0946560   -0.0027990
n     5.6435824    1.5848238   -1.7167695  0.00    0.0208442   -0.0044591   -0.0074954
h     3.6977813    2.3561210   -1.9905979  0.00   -0.0416457   -0.0336011   -0.0671167
h     6.0573325    1.4379405   -0.7712388  0.00   -0.0075807   -0.0025000   -0.0055845
h     6.0822400    0.8560111   -2.3284679  0.00   -0.0126179   -0.0003110   -0.0006724
h    -2.3141451    3.0581077   -0.1070323  0.00   -0.0005855    0.0003154   -0.0002082
h    -2.1180603    0.5942340   -0.1003599  0.00   -0.0010698    0.0008010    0.0000167
h    -0.2965700    4.4548761   -0.1786233  0.00   -0.0000488    0.0008372   -0.0001942
h     1.9331595    3.4112644   -0.2533129  0.00    0.0001152    0.0009347   -0.0001793
h     2.3699673   -1.5836007   -0.2696084  0.00   -0.0076337   -0.0055156    0.0010931
o     4.0771105   -0.8916827   -2.7011061  0.00   -0.0225015    0.0752441    0.0022789
o     2.8402013    0.8703901   -3.7063705  0.00    0.0058294   -0.0036634    0.0021229
h     2.6462273    1.8393140   -3.4520550  0.00    0.0665016    0.0332991    0.1018491
    27
 Energy =       0.2138613199
c    -1.2513394    2.7112032   -0.1111825  0.00   -0.0072124    0.0052020    0.0005073
c    -1.2024392    1.3436395   -0.1301579  0.00   -0.0127266   -0.0059287    0.0002145
c     0.0152426    0.7467315   -0.1610525  0.00   -0.0101349   -0.0226321   -0.0017253
c    -0.0933752    3.4474778   -0.1247345  0.00   -0.0039104    0.0105851    0.0007513
c     1.1258410    2.8218839   -0.1583568  0.00    0.0021376    0.0102544    0.0002529
c     1.1562774    1.4564683   -0.1746338  0.00    0.0066062    0.0081238    0.0001353
n     0.2889466   -0.6417977   -0.1861005  0.00    0.0186111    0.0095550    0.0006269
c     2.2052962    0.5971383   -0.2121493  0.00    0.0225940   -0.0101181   -0.0008156
c     1.7136092   -0.6621518   -0.2348626  0.00   -0.0142085   -0.0106364   -0.0007639
h    -0.3802102   -1.4414609   -0.1693319  0.00    0.0028394    0.0041323    0.0006070
c     3.6765841    0.9500881   -0.2800896  0.00   -0.0032687    0.0004433   -0.0047368
c     4.1432834    1.3184635   -1.7082108  0.00   -0.0237421    0.0191178   -0.0086836
h     4.2673420    0.0790181    0.0811712  0.00   -0.0006167    0.0008536   -0.0004257
h     3.8887535    1.7934160    0.4134555  0.00   -0.0005537    0.0002295    0.0008512
c     3.6324186    0.3257187   -2.7453232  0.00    0.0231995   -0.0479373   -0.0030355
n     5.6189069    1.4783083   -1.7654689  0.00    0.0105428   -0.0005063   -0.0043251
h     3.6846356    2.2842520   -1.9981204  0.00   -0.0266436   -0.0204921   -0.0426501
h     6.0664979    1.3005655   -0.8370571  0.00   -0.0028105   -0.0017867   -0.0014111
h     6.0388059    0.7706973   -2.4179208  0.00   -0.0059647   -0.0016318   -0.0017248
h    -2.2147422    3.2168608   -0.0886090  0.00   -0.0012020    0.0005328   -0.0001394
h    -2.1108254    0.7482504   -0.1232910  0.00   -0.0017133   -0.0003923   -0.0000668
h    -0.1433921    4.5349569   -0.1122356  0.00   -0.0000720    0.0015012   -0.0001118
h     2.0429386    3.4056293   -0.1720473  0.00    0.0009662    0.0011999   -0.0001039
h     2.3045125   -1.5750965   -0.3139535  0.00   -0.0037866   -0.0043763    0.0005089
o     3.9374819   -1.0057174   -2.6666128  0.00   -0.0130294    0.0366711    0.0020479
o     2.7562879    0.7888021   -3.7133085  0.00    0.0032564   -0.0033396    0.0007465
h     2.5680666    1.7656526   -3.5038247  0.00    0.0408431    0.0213761    0.0634697
    27
 Energy =       0.2125515889
c    -1.2003916    2.7886951   -0.0610924  0.00   -0.0069592    0.0046327    0.0004680
c    -1.1769480    1.4206368   -0.0551205  0.00   -0.0116521   -0.0057020    0.0001749
c     0.0281508    0.8009746   -0.0973769  0.00   -0.0091824   -0.0201577   -0.0015815
c    -0.0293945    3.5028030   -0.1107791  0.00   -0.0031356    0.0099136    0.0006669
c     1.1768944    2.8540829   -0.1571906  0.00    0.0023252    0.0095087    0.0002316
c     1.1810901    1.4887671   -0.1481144  0.00    0.0061258    0.0072392    0.0001442
n     0.2741148   -0.5935825   -0.1010535  0.00    0.0157976    0.0081763    0.0006448
c     2.2124863    0.6107907   -0.1948268  0.00    0.0196682   -0.0087123   -0.0003385
c     1.6980852   -0.6396739   -0.1843485  0.00   -0.0122404   -0.0098605   -0.0007622
h    -0.4095708   -1.3808854   -0.0526178  0.00    0.0017489    0.0028196    0.0006015
c     3.6886893    0.9341883   -0.3141172  0.00   -0.0028204   -0.0000289   -0.0036432
c     4.1207510    1.2563238   -1.7661466  0.00   -0.0220951    0.0182884   -0.0077989
h     4.2724904    0.0605479    0.0526124  0.00   -0.0005609    0.0006385   -0.0003457
h     3.9379332    1.7911405    0.3512987  0.00   -0.0002225    0.0010557    0.0014565
c     3.5508955    0.2548234   -2.7669333  0.00    0.0197873   -0.0388885   -0.0040631
n     5.5984785    1.3774718   -1.8713199  0.00    0.0108540    0.0009230   -0.0039253
h     3.6803348    2.2293692   -2.0618612  0.00   -0.0235526   -0.0178652   -0.0377336
h     6.0720096    1.2024326   -0.9547452  0.00   -0.0019310   -0.0015839   -0.0007284
h     5.9814424    0.6518117   -2.5280948  0.00   -0.0046016   -0.0023614   -0.0024477
h    -2.1538989    3.3125012   -0.0293724  0.00   -0.0013349    0.0005432   -0.0001147
h    -2.0958935    0.8419763   -0.0194787  0.00   -0.0020281   -0.0007278   -0.0000435
h    -0.0589205    4.5912906   -0.1176172  0.00    0.0000257    0.0017494   -0.0001006
h     2.1045307    3.4202781   -0.2010509  0.00    0.0014203    0.0014686   -0.0001106
h     2.2720645   -1.5631103   -0.2682943  0.00   -0.0031574   -0.0040357    0.0003766
o     3.7787288   -1.0942035   -2.6346246  0.00   -0.0110637    0.0264671    0.0021501
o     2.6926397    0.7249357   -3.7489233  0.00    0.0030405   -0.0043622    0.0003085
h     2.5386125    1.7146121   -3.5728198  0.00    0.0357442    0.0208620    0.0565140
    27
 Energy =       0.2106220624
c    -1.2079184    2.7293114   -0.0268286  0.00   -0.0063408    0.0043848    0.0004214
c    -1.1739114    1.3617254   -0.0462121  0.00   -0.0105304   -0.0053448    0.0001689
c     0.0354078    0.7522041   -0.0989446  0.00   -0.0083294   -0.0178482   -0.0013751
c    -0.0426933    3.4529714   -0.0623512  0.00   -0.0027886    0.0091308    0.0005840
c     1.1678258    2.8144182   -0.1192770  0.00    0.0021573    0.0088019    0.0001811
c     1.1819291    1.4497539   -0.1358417  0.00    0.0054774    0.0066041    0.0001147
n     0.2924466   -0.6409581   -0.1358510  0.00    0.0143379    0.0068569    0.0005399
c     2.2198213    0.5827558   -0.2018021  0.00    0.0177292   -0.0075996   -0.0000405
c     1.7176826   -0.6719881   -0.2199135  0.00   -0.0110674   -0.0091656   -0.0007073
h    -0.3845528   -1.4354673   -0.1058618  0.00    0.0013683    0.0022408    0.0005448
c     3.6917096    0.9241514   -0.3188806  0.00   -0.0040534   -0.0003008   -0.0025415
c     4.1031252    1.3150933   -1.7607300  0.00   -0.0206010    0.0166139   -0.0072668
h     4.2902255    0.0414283    0.0033552  0.00   -0.0001086   -0.0004381    0.0000394
h     3.9367094    1.7558487    0.3805832  0.00   -0.0001798    0.0016387    0.0019054
c     3.5644003    0.3265923   -2.7924491  0.00    0.0165273   -0.0297879   -0.0038893
n     5.5753895    1.4953871   -1.8680194  0.00    0.0106203    0.0028406   -0.0034119
h     3.6231633    2.2824706   -2.0166799  0.00   -0.0218111   -0.0146771   -0.0341654
h     6.0601481    1.3022197   -0.9605598  0.00   -0.0014513   -0.0015278   -0.0002589
h     5.9833292    0.8105648   -2.5551232  0.00   -0.0028400   -0.0037156   -0.0037961
h    -2.1653341    3.2452456    0.0134283  0.00   -0.0012541    0.0005607   -0.0001014
h    -2.0883110    0.7753979   -0.0234268  0.00   -0.0019072   -0.0007646   -0.0000359
h    -0.0803711    4.5412216   -0.0492962  0.00    0.0000254    0.0018146   -0.0000919
h     2.0910981    3.3883651   -0.1517964  0.00    0.0013628    0.0014090   -0.0001233
h     2.3014223   -1.5869900   -0.3273608  0.00   -0.0026589   -0.0039629    0.0002587
o     3.8800277   -1.0155923   -2.7296804  0.00   -0.0080458    0.0162240    0.0023046
o     2.6731952    0.7908871   -3.7493709  0.00    0.0023804   -0.0038466   -0.0002123
h     2.4894400    1.7719800   -3.5551187  0.00    0.0319815    0.0198588    0.0509546
    27
 Energy =       0.2068461107
c    -1.1711114    2.7139271    0.0554487  0.00   -0.0041151    0.0032347    0.0002303
c    -1.1521107    1.3482808    0.0008101  0.00   -0.0067000   -0.0036301    0.0001107
c     0.0477263    0.7272710   -0.0777015  0.00   -0.0052611   -0.0104364   -0.0006710
c     0.0007856    3.4241545    0.0284264  0.00   -0.0019856    0.0061164    0.0002951
c     1.2014096    2.7737398   -0.0548208  0.00    0.0014839    0.0058821    0.0000125
c     1.1984551    1.4120371   -0.1072557  0.00    0.0032036    0.0041896    0.0000260
n     0.2876744   -0.6688632   -0.1639404  0.00    0.0093537    0.0031659    0.0002345
c     2.2244073    0.5407750   -0.2115696  0.00    0.0112146   -0.0044528    0.0001348
c     1.7141144   -0.7075219   -0.2631076  0.00   -0.0068745   -0.0061367   -0.0004447
h    -0.3967146   -1.4585551   -0.1526277  0.00    0.0006606    0.0010936    0.0003215
c     3.6959749    0.8744862   -0.3441556  0.00   -0.0045880   -0.0005375   -0.0004172
c     4.0676972    1.3492337   -1.7730372  0.00   -0.0131428    0.0102338   -0.0055309
h     4.2990161   -0.0301089   -0.0901894  0.00    0.0011730   -0.0023426    0.0006997
h     3.9636110    1.6642669    0.3961316  0.00    0.0000729    0.0022936    0.0026513
c     3.5358070    0.3976721   -2.8450753  0.00    0.0078248   -0.0117093   -0.0021225
n     5.5312213    1.5798889   -1.8926243  0.00    0.0034544    0.0076674   -0.0020513
h     3.5562054    2.3179023   -1.9642181  0.00   -0.0159094   -0.0077867   -0.0232105
h     6.0416809    1.3225123   -1.0122652  0.00    0.0007239   -0.0021296    0.0039367
h     5.9482763    0.9693179   -2.6469140  0.00    0.0016594   -0.0069035   -0.0080548
h    -2.1220043    3.2394077    0.1168910  0.00   -0.0010028    0.0005838   -0.0000566
h    -2.0721229    0.7715459    0.0145581  0.00   -0.0012462   -0.0006007   -0.0000230
h    -0.0241957    4.5119362    0.0697651  0.00   -0.0000655    0.0016310   -0.0000559
h     2.1305383    3.3375590   -0.0802467  0.00    0.0009298    0.0009754   -0.0001388
h     2.2933694   -1.6200206   -0.4099408  0.00   -0.0012440   -0.0031885    0.0000408
o     3.9380062   -0.9321452   -2.8782285  0.00   -0.0015102    0.0003898    0.0011755
o     2.6053429    0.8648890   -3.7672745  0.00    0.0006716   -0.0016347   -0.0009158
h     2.3923447    1.8354090   -3.5608469  0.00    0.0212192    0.0140322    0.0338235
    27
 Energy =       0.2062132435
c    -1.1341339    2.7501924    0.0973360  0.00   -0.0037412    0.0030294    0.0002149
c    -1.1410079    1.3856712    0.0211820  0.00   -0.0058977   -0.0033218    0.0000951
c     0.0461060    0.7435399   -0.0723253  0.00   -0.0044632   -0.0087408   -0.0005269
c     0.0507691    3.4383421    0.0765864  0.00   -0.0017393    0.0055700    0.0002595
c     1.2382342    2.7666970   -0.0218368  0.00    0.0014811    0.0052533    0.0000020
c     1.2089256    1.4066856   -0.0962237  0.00    0.0027719    0.0035018    0.0000161
n     0.2584385   -0.6557907   -0.1836812  0.00    0.0078746    0.0021797    0.0001640
c     2.2173165    0.5189080   -0.2200754  0.00    0.0096283   -0.0036799    0.0000565
c     1.6842142   -0.7186387   -0.2896640  0.00   -0.0056795   -0.0055342   -0.0003888
h    -0.4407923   -1.4329163   -0.1825263  0.00    0.0003081    0.0006135    0.0002675
c     3.6945763    0.8262687   -0.3548620  0.00   -0.0040329   -0.0005006   -0.0002994
c     4.0662975    1.3320504   -1.7730085  0.00   -0.0107825    0.0082284   -0.0043370
h     4.2801264   -0.0972513   -0.1287326  0.00    0.0013741   -0.0025491    0.0007902
h     3.9843731    1.5907690    0.4036820  0.00    0.0002866    0.0024119    0.0027089
c     3.4967073    0.4309289   -2.8709043  0.00    0.0065363   -0.0095364   -0.0016660
n     5.5345125    1.5281967   -1.8960706  0.00   -0.0032283    0.0145215   -0.0032684
h     3.5819140    2.3208062   -1.9267822  0.00   -0.0137886   -0.0056265   -0.0196432
h     6.0535883    1.1637592   -1.0523960  0.00    0.0057214   -0.0051078    0.0116729
h     5.9192848    0.9812078   -2.7182455  0.00    0.0034734   -0.0100834   -0.0130022
h    -2.0747418    3.2925227    0.1710669  0.00   -0.0010757    0.0006665   -0.0000297
h    -2.0716174    0.8260569    0.0294786  0.00   -0.0012336   -0.0006533   -0.0000188
h     0.0465565    4.5257144    0.1353369  0.00   -0.0000778    0.0017607   -0.0000301
h     2.1778291    3.3131528   -0.0416596  0.00    0.0009674    0.0009836   -0.0001249
h     2.2469773   -1.6383418   -0.4547207  0.00   -0.0008932   -0.0030022   -0.0000141
o     3.8699799   -0.9063715   -2.9545028  0.00   -0.0007166   -0.0017446    0.0008186
o     2.5670493    0.9485209   -3.7701427  0.00   -0.0005983   -0.0014528   -0.0022467
h     2.3739217    1.9183170   -3.5403177  0.00    0.0175254    0.0128131    0.0285301
    27
 Energy =       0.2041931807
c    -1.0773393    2.7712599    0.2138802  0.00   -0.0025560    0.0028817    0.0001898
c    -1.1147195    1.4112298    0.0881781  0.00   -0.0038242   -0.0023006    0.0000535
c     0.0552390    0.7477417   -0.0517353  0.00   -0.0023698   -0.0042455   -0.0000988
c     0.1210914    3.4337377    0.1954053  0.00   -0.0016663    0.0041755    0.0001911
c     1.2905971    2.7406508    0.0496568  0.00    0.0013823    0.0034940   -0.0000386
c     1.2296490    1.3861564   -0.0745259  0.00    0.0013514    0.0017069    0.0000108
n     0.2345739   -0.6519841   -0.2226872  0.00    0.0045276   -0.0005218   -0.0000727
c     2.2155361    0.4854891   -0.2537327  0.00    0.0058923   -0.0021130   -0.0000345
c     1.6583892   -0.7375286   -0.3594550  0.00   -0.0026376   -0.0039033   -0.0002632
h    -0.4802316   -1.4153788   -0.2377488  0.00   -0.0001645   -0.0001561    0.0001149
c     3.6949408    0.7705407   -0.4107698  0.00   -0.0032763   -0.0004812    0.0003087
c     4.0381953    1.3352251   -1.8135318  0.00   -0.0055221    0.0040025   -0.0035498
h     4.2726870   -0.1708244   -0.2427513  0.00    0.0017440   -0.0028880    0.0007510
h     4.0148715    1.4951422    0.3743000  0.00    0.0005193    0.0022672    0.0026238
c     3.4538902    0.4702704   -2.9355085  0.00    0.0032292   -0.0043353   -0.0009263
n     5.5022998    1.5412294   -1.9515551  0.00   -0.0056462    0.0127345   -0.0035042
h     3.5514854    2.3300240   -1.9151936  0.00   -0.0086569   -0.0023454   -0.0119133
h     6.0286577    1.2658411   -1.0786230  0.00    0.0065075   -0.0050048    0.0120810
h     5.8973325    0.9351804   -2.7239209  0.00    0.0031681   -0.0078233   -0.0110946
h    -2.0044816    3.3307961    0.3255697  0.00   -0.0013276    0.0010656    0.0000747
h    -2.0566202    0.8714039    0.0934920  0.00   -0.0008894   -0.0005509   -0.0000150
h     0.1416703    4.5183527    0.2940900  0.00   -0.0002400    0.0021100    0.0000716
h     2.2411135    3.2673419    0.0320095  0.00    0.0007131    0.0007764   -0.0000623
h     2.2025417   -1.6590146   -0.5728100  0.00    0.0001888   -0.0028496   -0.0002304
o     3.8529183   -0.8561332   -3.0743850  0.00    0.0004516   -0.0031462    0.0004306
o     2.4932520    0.9913967   -3.8017664  0.00   -0.0010068   -0.0003688   -0.0018244
h     2.2778651    1.9508514   -3.5598902  0.00    0.0101084    0.0078196    0.0167266
    27
 Energy =       0.2027228569
c    -1.0402912    2.7867476    0.3138503  0.00   -0.0016579    0.0021130    0.0001408
c    -1.0947672    1.4316249    0.1552514  0.00   -0.0024218   -0.0012317    0.0000542
c     0.0641445    0.7601284   -0.0257227  0.00   -0.0011555   -0.0020927    0.0000024
c     0.1641423    3.4364370    0.2861409  0.00   -0.0014220    0.0027406    0.0001485
c     1.3219581    2.7354232    0.0983947  0.00    0.0011352    0.0018846   -0.0000602
c     1.2433579    1.3864294   -0.0574400  0.00    0.0006810    0.0007637    0.0000064
n     0.2250423   -0.6365664   -0.2361091  0.00    0.0023290   -0.0008852   -0.0000513
c     2.2154802    0.4831175   -0.2795062  0.00    0.0034409   -0.0014145   -0.0000602
c     1.6459408   -0.7309282   -0.4040766  0.00   -0.0009084   -0.0023710   -0.0002010
h    -0.4971485   -1.3928921   -0.2562341  0.00   -0.0001415   -0.0001869    0.0000497
c     3.6928919    0.7615364   -0.4615386  0.00   -0.0021288   -0.0007251    0.0003535
c     4.0080027    1.3333999   -1.8661070  0.00   -0.0030845    0.0017574   -0.0020970
h     4.2723373   -0.1802716   -0.3110277  0.00    0.0010909   -0.0016190    0.0003288
h     4.0284293    1.4791917    0.3214013  0.00    0.0003452    0.0013061    0.0014769
c     3.4485670    0.4348506   -2.9775542  0.00    0.0023829   -0.0019178    0.0010299
n     5.4639622    1.5830082   -2.0118487  0.00   -0.0093440    0.0146745   -0.0051569
h     3.4919213    2.3141080   -1.9660822  0.00   -0.0050782   -0.0006686   -0.0068264
h     5.9926462    1.4245942   -1.1084770  0.00    0.0094257   -0.0048467    0.0160792
h     5.8899362    0.9139336   -2.7135694  0.00    0.0035907   -0.0090243   -0.0117746
h    -1.9586634    3.3527689    0.4591595  0.00   -0.0011997    0.0009758    0.0001055
h    -2.0418785    0.9017858    0.1671675  0.00   -0.0005710   -0.0003004   -0.0000036
h     0.1986535    4.5175397    0.4109824  0.00   -0.0002738    0.0015727    0.0000791
h     2.2773619    3.2523371    0.0725176  0.00    0.0004916    0.0004331   -0.0000269
h     2.1788487   -1.6499443   -0.6519306  0.00    0.0004837   -0.0020563   -0.0002410
o     3.9087467   -0.8736051   -3.1052458  0.00    0.0012013   -0.0040419    0.0002301
o     2.4520332    0.8917317   -3.8424177  0.00   -0.0021250   -0.0012847   -0.0033400
h     2.1837493    1.8425114   -3.6239869  0.00    0.0049140    0.0064452    0.0097541
    27
 Energy =       0.2023342524
c    -1.0318901    2.8217076    0.3332396  0.00   -0.0012796    0.0015442    0.0001055
c    -1.0938444    1.4670431    0.1776996  0.00   -0.0018248   -0.0009178    0.0000371
c     0.0602078    0.7903737   -0.0109665  0.00   -0.0008446   -0.0015567   -0.0000007
c     0.1749979    3.4658452    0.2940855  0.00   -0.0010289    0.0020523    0.0001112
c     1.3276614    2.7596565    0.0984401  0.00    0.0008867    0.0013944   -0.0000430
c     1.2415354    1.4112234   -0.0526358  0.00    0.0005355    0.0005567   -0.0000015
n     0.2133280   -0.6073087   -0.2187061  0.00    0.0016662   -0.0006625   -0.0000269
c     2.2079391    0.5039286   -0.2772595  0.00    0.0024948   -0.0010417    0.0000869
c     1.6329913   -0.7077535   -0.3946836  0.00   -0.0006455   -0.0017723   -0.0001502
h    -0.5121087   -1.3606633   -0.2329963  0.00   -0.0001323   -0.0001682    0.0000330
c     3.6849729    0.7768925   -0.4673083  0.00   -0.0015215   -0.0007016    0.0006829
c     3.9968048    1.3054740   -1.8893273  0.00   -0.0018003    0.0018374   -0.0006881
h     4.2649130   -0.1595003   -0.2879069  0.00    0.0009513   -0.0015863    0.0003297
h     4.0209174    1.5180041    0.2932614  0.00    0.0003566    0.0013007    0.0014562
c     3.4754385    0.3448946   -2.9707616  0.00    0.0019499   -0.0008473    0.0014220
n     5.4467550    1.5927495   -2.0293368  0.00   -0.0061618    0.0113925   -0.0030875
h     3.4535414    2.2681724   -2.0283654  0.00   -0.0042685    0.0007627   -0.0051086
h     5.9765612    1.4394051   -1.1292564  0.00    0.0069297   -0.0035864    0.0118077
h     5.8923655    0.9424882   -2.7334133  0.00    0.0031493   -0.0069795   -0.0089451
h    -1.9462674    3.3918466    0.4851332  0.00   -0.0009207    0.0007280    0.0000812
h    -2.0430795    0.9414862    0.1985973  0.00   -0.0004683   -0.0002445   -0.0000022
h     0.2155741    4.5467157    0.4161523  0.00   -0.0001967    0.0011778    0.0000611
h     2.2850465    3.2722684    0.0624092  0.00    0.0004512    0.0003308   -0.0000403
h     2.1613201   -1.6291951   -0.6418331  0.00    0.0003698   -0.0015159   -0.0001935
o     3.9768117   -0.9541764   -3.0387232  0.00    0.0020254   -0.0061446   -0.0000888
o     2.4771946    0.7329786   -3.8691415  0.00   -0.0033276   -0.0026853   -0.0053610
h     2.1757172    1.6844410   -3.7004054  0.00    0.0026545    0.0073329    0.0075231
    27
 Energy =       0.2020850974
c    -1.0196911    2.8719997    0.3501146  0.00   -0.0008895    0.0010014    0.0000767
c    -1.0963162    1.5186649    0.1937484  0.00   -0.0012173   -0.0006118    0.0000237
c     0.0493635    0.8309636   -0.0022020  0.00   -0.0005199   -0.0009944    0.0000013
c     0.1931582    3.5039147    0.3038045  0.00   -0.0006462    0.0013684    0.0000791
c     1.3370305    2.7867101    0.1007961  0.00    0.0006478    0.0009013   -0.0000294
c     1.2362720    1.4398131   -0.0494842  0.00    0.0003835    0.0003308   -0.0000099
n     0.1873349   -0.5679981   -0.2102422  0.00    0.0009786   -0.0004683   -0.0000125
c     2.1923861    0.5236422   -0.2763222  0.00    0.0015496   -0.0006317    0.0002278
c     1.6055641   -0.6821068   -0.3906948  0.00   -0.0003599   -0.0011757   -0.0000933
h    -0.5455283   -1.3141958   -0.2224867  0.00   -0.0001409   -0.0001712    0.0000161
c     3.6713301    0.7826999   -0.4683210  0.00   -0.0009393   -0.0004778    0.0009095
c     3.9892008    1.2655094   -1.9048176  0.00   -0.0006812    0.0016323    0.0004948
h     4.2454294   -0.1505490   -0.2573432  0.00    0.0008012   -0.0014497    0.0002873
h     4.0094174    1.5446046    0.2700293  0.00    0.0002518    0.0011286    0.0012464
c     3.5088141    0.2486432   -2.9556942  0.00    0.0013555   -0.0000046    0.0014880
n     5.4330585    1.5869783   -2.0342858  0.00   -0.0043238    0.0089673   -0.0012659
h     3.4235810    2.2092710   -2.0834674  0.00   -0.0032298    0.0016233   -0.0032401
h     5.9675004    1.3982049   -1.1465708  0.00    0.0046102   -0.0022314    0.0084877
h     5.8909055    0.9832869   -2.7696064  0.00    0.0034119   -0.0059127   -0.0072169
h    -1.9270987    3.4508918    0.5083670  0.00   -0.0006479    0.0004930    0.0000612
h    -2.0505125    1.0026397    0.2203788  0.00   -0.0003604   -0.0001884    0.0000005
h     0.2455522    4.5839146    0.4262288  0.00   -0.0001242    0.0008040    0.0000460
h     2.2991151    3.2898357    0.0583587  0.00    0.0003838    0.0002242   -0.0000493
h     2.1249133   -1.6085617   -0.6366683  0.00    0.0002680   -0.0009839   -0.0001476
o     4.0407928   -1.0403844   -2.9586808  0.00    0.0024751   -0.0068889   -0.0001980
o     2.5247038    0.5742255   -3.8950367  0.00   -0.0036144   -0.0036738   -0.0061257
h     2.1991276    1.5263797   -3.7839107  0.00    0.0005777    0.0073898    0.0049426
    27
 Energy =       0.2019003895
c    -1.0421317    2.8230048    0.4005987  0.00   -0.0007239    0.0011127    0.0001187
c    -1.1087535    1.4731647    0.2114639  0.00   -0.0009917   -0.0007052   -0.0000024
c     0.0415491    0.7992483   -0.0038795  0.00   -0.0003785   -0.0006990    0.0000160
c     0.1655831    3.4652943    0.3668510  0.00   -0.0005388    0.0013230    0.0001091
c     1.3142078    2.7620347    0.1440027  0.00    0.0005978    0.0009279    0.0000095
c     1.2234118    1.4183279   -0.0385908  0.00    0.0002856    0.0001557   -0.0000242
n     0.1899923   -0.5935529   -0.2454770  0.00    0.0008245   -0.0008045   -0.0000943
c     2.1862126    0.5154812   -0.2881625  0.00    0.0012416   -0.0004191    0.0001679
c     1.6090310   -0.6919952   -0.4301784  0.00   -0.0002949   -0.0011808   -0.0001162
h    -0.5369710   -1.3451951   -0.2750695  0.00   -0.0002815   -0.0003592   -0.0000029
c     3.6629364    0.7914478   -0.4730350  0.00   -0.0008250   -0.0004535    0.0006138
c     3.9778250    1.2960773   -1.9022330  0.00   -0.0006028    0.0005683    0.0016404
h     4.2460571   -0.1379159   -0.2717803  0.00    0.0005914   -0.0011249    0.0001700
h     3.9916581    1.5470688    0.2753683  0.00    0.0001882    0.0008838    0.0009492
c     3.5392906    0.2745958   -2.9666082  0.00    0.0046126   -0.0015211    0.0053971