    27
 Energy =       0.2629682581
c    -1.4235396    2.6054793   -0.0667700  0.00   -0.0462097    0.0382927    0.0027598
c    -1.3072796    1.2134697   -0.1072300  0.00   -0.0852412   -0.0325514    0.0020174
c    -0.0178900    0.6711998   -0.1697000  0.00   -0.0886482   -0.1879208   -0.0011239
c    -0.2940599    3.4190890   -0.0891300  0.00   -0.0230706    0.0691005    0.0029505
c     0.9872197    2.8590292   -0.1560400  0.00    0.0105459    0.0642552    0.0010445
c     1.1340797    1.4562096   -0.1970299  0.00    0.0531240    0.0517343    0.0021339
n     0.3879399   -0.6395298   -0.2140799  0.00    0.1444885    0.1090405   -0.0035583
c     2.2666594    0.5727398   -0.2659299  0.00    0.1388308   -0.0561600   -0.0196316
c     1.7555995   -0.7123598   -0.2706899  0.00   -0.0964560   -0.0971959    0.0047894
h    -0.2400399   -1.4313496   -0.2047299  0.00    0.0366396    0.0476789   -0.0004816
c     3.7030089    1.0223397   -0.3320099  0.00    0.0118862    0.0179411    0.0225506
c     4.7465686   -0.0024900    0.1378100  0.00   -0.0647897    0.0021429    0.0020910
h     3.7978489    1.9290294    0.2803699  0.00    0.0013926   -0.0123654   -0.0112086
h     3.9233889    1.3348996   -1.3618196  0.00   -0.0031457   -0.0004321    0.0135496
c     6.0911583    0.7171698    0.3515799  0.00    0.1286052    0.2946997    0.1931003
n     4.9813086   -1.1161597   -0.8485798  0.00    0.1282963   -0.0385656   -0.0372064
h     4.4627987   -0.4486599    1.0982597  0.00    0.0066998   -0.0041211   -0.0207405
h     5.2391085   -0.6793528   -1.7395595  0.00   -0.0061974   -0.0076328    0.0399913
h     5.8334383   -1.6105095   -0.5615798  0.00   -0.0080091    0.0600417   -0.0041183
h    -2.4108593    3.0588691   -0.0157800  0.00   -0.0009047    0.0002825    0.0000304
h    -2.1896094    0.5822398   -0.0890100  0.00   -0.0036513    0.0037083    0.0000643
h    -0.4052699    4.5000487   -0.0535400  0.00    0.0008357    0.0002550    0.0002555
h     1.8590495    3.5066790   -0.1715100  0.00   -0.0007655    0.0025625    0.0006322
h     2.2327294   -1.6813195   -0.3062999  0.00   -0.0432015   -0.0110588    0.0033571
o     6.2733082    1.6803095    1.0775897  0.00   -0.0394733   -0.2335716   -0.1808136
o     7.0804880    0.1383800   -0.3810899  0.00   -0.1095989   -0.0744392   -0.0194486
h     7.8991377    0.6526378   -0.1575810  0.00   -0.0419816   -0.0057211    0.0070136
    27
 Energy =       0.1924937764
c    -1.3909201    2.5165688   -0.0249534  0.00   -0.0207660    0.0180684    0.0011726
c    -1.2598129    1.1441014   -0.0697239  0.00   -0.0404227   -0.0151927    0.0008545
c     0.0079501    0.6206377   -0.1314686  0.00   -0.0422553   -0.0895027    0.0004922
c    -0.2783339    3.3305890   -0.0480129  0.00   -0.0108354    0.0324065    0.0013150
c     0.9870330    2.7844991   -0.1178713  0.00    0.0061654    0.0302574    0.0003362
c     1.1195861    1.4098981   -0.1578935  0.00    0.0227027    0.0268047    0.0008322
n     0.3953768   -0.7212517   -0.2102005  0.00    0.0642986    0.0502815   -0.0020448
c     2.2400914    0.5962817   -0.2413635  0.00    0.0674499   -0.0252445   -0.0087731
c     1.7982106   -0.6928032   -0.2787399  0.00   -0.0485886   -0.0398836    0.0033527
h    -0.2120848   -1.5525566   -0.2127659  0.00    0.0175181    0.0212764   -0.0006311
c     3.6669524    1.0836461   -0.3566287  0.00    0.0063348    0.0078393    0.0110120
c     4.7306414    0.0749914    0.1160982  0.00   -0.0321157    0.0034291    0.0027705
h     3.7670972    2.0077345    0.2432336  0.00    0.0005910   -0.0054288   -0.0054656
h     3.8576926    1.3694303   -1.4079980  0.00   -0.0016079   -0.0001854    0.0055567
c     6.0774632    0.7655293    0.2867829  0.00    0.0621244    0.1410466    0.0913912
n     4.8856220   -1.0489288   -0.8474903  0.00    0.0627497   -0.0167603   -0.0159082
h     4.4642902   -0.3311467    1.1105471  0.00    0.0032099   -0.0022322   -0.0087798
h     5.1262806   -0.6480919   -1.7745637  0.00   -0.0016024   -0.0031446    0.0179022
h     5.7448891   -1.5717074   -0.5856754  0.00    0.0004622    0.0339345   -0.0016828
h    -2.3822569    2.9604824    0.0263345  0.00   -0.0004605    0.0001970    0.0000141
h    -2.1317411    0.4986207   -0.0593332  0.00   -0.0018674    0.0017175   -0.0000148
h    -0.3973850    4.4108442   -0.0132626  0.00    0.0004267    0.0001458    0.0001184
h     1.8587929    3.4315919   -0.1411466  0.00    0.0001220    0.0006995    0.0003244
h     2.3914825   -1.6014177   -0.3762274  0.00   -0.0132431   -0.0108158    0.0005153
o     6.2541759    1.7950434    1.0726060  0.00   -0.0200768   -0.1128861   -0.0862457
o     7.1173718    0.2082746   -0.4173590  0.00   -0.0598419   -0.0457341   -0.0127380
h     7.9278260    0.7572277   -0.1970037  0.00   -0.0204715   -0.0010931    0.0043233
    27
 Energy =       0.1699209436
c    -1.3422777    2.4968182   -0.0310560  0.00    0.0008573   -0.0006894   -0.0000010
c    -1.2154980    1.1410098   -0.0762404  0.00    0.0005716    0.0001696    0.0001330
c     0.0261021    0.6163718   -0.1297130  0.00    0.0010925    0.0006812    0.0003347
c    -0.2314586    3.2932616   -0.0460443  0.00   -0.0002309   -0.0008474    0.0000487
c     1.0132358    2.7388616   -0.1057196  0.00    0.0002228   -0.0003348   -0.0000386
c     1.1162998    1.3846222   -0.1431484  0.00   -0.0014194    0.0007828   -0.0000984
n     0.3707928   -0.7573826   -0.2054546  0.00   -0.0015404   -0.0009078   -0.0007087
c     2.2112668    0.6071102   -0.2112562  0.00    0.0006733    0.0006410   -0.0005624
c     1.8016055   -0.6777447   -0.2616299  0.00   -0.0001928    0.0014416    0.0003322
h    -0.2502554   -1.5987334   -0.2139147  0.00    0.0001065   -0.0000859   -0.0004890
c     3.6425903    1.1107986   -0.3190342  0.00   -0.0017638   -0.0010221   -0.0002787
c     4.7247927    0.0936583    0.1135231  0.00   -0.0012410    0.0045855    0.0040586
h     3.7444299    2.0113913    0.3294118  0.00   -0.0002536    0.0009171    0.0010609
h     3.8293259    1.4374169   -1.3659079  0.00    0.0001273    0.0006131   -0.0006399
c     6.0892635    0.7545557    0.2260171  0.00    0.0009797   -0.0009836    0.0005323
n     4.7600049   -1.0354944   -0.8389299  0.00   -0.0034332    0.0011102   -0.0007341
h     4.4876257   -0.2796411    1.1377015  0.00   -0.0001350    0.0001698    0.0014461
h     4.9906299   -0.6662140   -1.7938252  0.00    0.0010276   -0.0000804   -0.0009166
h     5.5949816   -1.6306553   -0.5987273  0.00    0.0100386    0.0059542    0.0017462
h    -2.3311255    2.9464133    0.0126785  0.00   -0.0000488    0.0000007   -0.0000918
h    -2.0865974    0.4946797   -0.0737096  0.00    0.0000363   -0.0000470   -0.0002125
h    -0.3408691    4.3747185   -0.0130451  0.00   -0.0000335    0.0000470    0.0000492
h     1.8921822    3.3760100   -0.1242913  0.00    0.0003488   -0.0003449    0.0001283
h     2.4483625   -1.5466959   -0.3574771  0.00    0.0048050   -0.0002232   -0.0010048
o     6.2807013    1.8482735    1.0598537  0.00    0.0004496   -0.0002526   -0.0003557
o     7.1642628    0.2462723   -0.4916027  0.00   -0.0108350   -0.0125134   -0.0038745
h     7.9759167    0.8184062   -0.2925380  0.00   -0.0002094    0.0012185    0.0001367
    27
 Energy =       0.1687048967
c    -1.3030581    2.5756266    0.0289940  0.00   -0.0009338   -0.0004491    0.0000873
c    -1.2081739    1.2162640   -0.0050516  0.00   -0.0009540   -0.0001813    0.0001280
c     0.0200261    0.6629407   -0.0973838  0.00    0.0001594   -0.0001381    0.0001697
c    -0.1748618    3.3469496   -0.0355260  0.00    0.0001758    0.0006511   -0.0000009
c     1.0553452    2.7639345   -0.1328397  0.00    0.0011923    0.0001523   -0.0000980
c     1.1275570    1.4063798   -0.1578753  0.00    0.0000437    0.0005231   -0.0001104
n     0.3314245   -0.7194243   -0.1701175  0.00   -0.0023010   -0.0003578   -0.0001657
c     2.2023725    0.6021071   -0.2560336  0.00    0.0008145   -0.0002734    0.0004365
c     1.7615953   -0.6732398   -0.2832626  0.00    0.0015548    0.0002947   -0.0000880
h    -0.3095836   -1.5463493   -0.1470486  0.00   -0.0008064   -0.0010118   -0.0001391
c     3.6438143    1.0656850   -0.4156814  0.00   -0.0008030   -0.0015172   -0.0000316
c     4.7018538    0.0478091    0.0751313  0.00   -0.0006965    0.0006962    0.0016423
h     3.7748268    2.0063951    0.1706587  0.00   -0.0001406    0.0029994    0.0019828
h     3.8272206    1.3178302   -1.4856618  0.00    0.0008319    0.0009767   -0.0029307
c     6.0657597    0.7076568    0.2375258  0.00    0.0002795   -0.0010939   -0.0005338
n     4.7556927   -1.0987109   -0.8545992  0.00   -0.0076109    0.0017232    0.0023778
h     4.4222863   -0.3046646    1.0965671  0.00   -0.0003270   -0.0001358    0.0015835
h     5.0647759   -0.7539387   -1.7997647  0.00    0.0019095    0.0016804   -0.0053955
h     5.5432344   -1.7289579   -0.5473335  0.00    0.0091483   -0.0004889    0.0025285
h    -2.2801942    3.0479227    0.1034427  0.00   -0.0008661    0.0001892    0.0000127
h    -2.0937198    0.5895838    0.0370878  0.00   -0.0009866   -0.0005671   -0.0000343
h    -0.2588258    4.4312430   -0.0118200  0.00    0.0000380    0.0004344    0.0000104
h     1.9463193    3.3829534   -0.1913478  0.00    0.0011160    0.0004004   -0.0000340
h     2.3852412   -1.5561797   -0.3997117  0.00    0.0024651   -0.0003577   -0.0005311
o     6.2273983    1.7790445    1.1078477  0.00    0.0005782    0.0012375    0.0009792
o     7.1670260    0.2314708   -0.4631933  0.00   -0.0053318   -0.0068940   -0.0023371
h     7.9709384    0.7977567   -0.2170826  0.00    0.0014505    0.0015074    0.0004915
    27
 Energy =       0.1682516558
c    -1.2706742    2.6275604    0.0219111  0.00   -0.0004414    0.0000099    0.0000189
c    -1.1982164    1.2666322   -0.0013765  0.00   -0.0004171   -0.0001979    0.0000165
c     0.0194724    0.6921656   -0.0981305  0.00   -0.0000369   -0.0000765    0.0000326
c    -0.1312002    3.3793956   -0.0574280  0.00    0.0000655    0.0004373    0.0000031
c     1.0879385    2.7753196   -0.1589820  0.00    0.0004772    0.0002304   -0.0000297
c     1.1382100    1.4163869   -0.1731347  0.00    0.0001048    0.0001578   -0.0000307
n     0.3074615   -0.6956587   -0.1611243  0.00   -0.0006826   -0.0002635   -0.0000550
c     2.1981033    0.5928205   -0.2731209  0.00    0.0002905   -0.0001219    0.0002900
c     1.7360440   -0.6747466   -0.2875973  0.00    0.0005371   -0.0001080   -0.0000589
h    -0.3468713   -1.5111442   -0.1256753  0.00   -0.0003918   -0.0004919   -0.0000503
c     3.6460798    1.0273104   -0.4475226  0.00   -0.0004244   -0.0004936   -0.0000155
c     4.6859735    0.0118544    0.0834849  0.00    0.0002189   -0.0007325    0.0001871
h     3.7921532    1.9857215    0.1019244  0.00   -0.0001010    0.0013915    0.0009343
h     3.8342228    1.2358587   -1.5245253  0.00    0.0004008    0.0005111   -0.0014321
c     6.0448183    0.6760803    0.2747699  0.00   -0.0057214   -0.0009205    0.0009172
n     4.7541614   -1.1487035   -0.8271633  0.00   -0.0042500    0.0006187    0.0014462
h     4.3789701   -0.3240823    1.1021720  0.00   -0.0001255   -0.0000980    0.0008149
h     5.1094675   -0.8235411   -1.7615751  0.00    0.0009503    0.0010164   -0.0030456
h     5.5054136   -1.7970383   -0.4788823  0.00    0.0043360   -0.0009873    0.0011879
h    -2.2387948    3.1165819    0.0998428  0.00   -0.0003503    0.0001278   -0.0000028
h    -2.0930113    0.6552285    0.0529529  0.00   -0.0003954   -0.0002475   -0.0000293
h    -0.1972534    4.4649895   -0.0421956  0.00    0.0000162    0.0003108    0.0000085
h     1.9870485    3.3799115   -0.2295437  0.00    0.0004169    0.0002264   -0.0000028
h     2.3433350   -1.5683888   -0.4039104  0.00    0.0006815   -0.0001823   -0.0001731
o     6.2030626    1.6688460    1.2410685  0.00   -0.0011774    0.0071131    0.0076433
o     7.1368355    0.3047341   -0.5108635  0.00    0.0051212   -0.0084515   -0.0093524
h     7.9335411    0.8639940   -0.2294548  0.00    0.0008988    0.0012217    0.0007775
    27
 Energy =       0.1680551100
c    -1.2632613    2.6313722   -0.0018373  0.00   -0.0003220    0.0000414    0.0000038
c    -1.1935560    1.2701840   -0.0015454  0.00   -0.0002330   -0.0003443    0.0000019
c     0.0217747    0.6916519   -0.1005323  0.00   -0.0001059   -0.0001284    0.0000203
c    -0.1235240    3.3794102   -0.1064259  0.00    0.0002162    0.0003798   -0.0000283
c     1.0932531    2.7713663   -0.2096315  0.00    0.0002519    0.0003492   -0.0000289
c     1.1412659    1.4120632   -0.1998531  0.00    0.0001068    0.0000768   -0.0000461
n     0.3056397   -0.6977097   -0.1428665  0.00   -0.0003281   -0.0002639   -0.0000206
c     2.1979320    0.5836261   -0.2966971  0.00    0.0001360   -0.0001775    0.0004871
c     1.7323161   -0.6825473   -0.2858971  0.00    0.0001508   -0.0002263   -0.0000564
h    -0.3502244   -1.5107749   -0.0865873  0.00   -0.0003722   -0.0004742    0.0000030
c     3.6464201    1.0056688   -0.4955606  0.00   -0.0018206   -0.0004929    0.0001711
c     4.6795593    0.0251358    0.1135762  0.00    0.0008826    0.0010943    0.0020191
h     3.7941983    2.0016845   -0.0147750  0.00    0.0000070    0.0032645    0.0016463
h     3.8397744    1.1367654   -1.5857243  0.00    0.0004174    0.0008136   -0.0034818
c     6.0304508    0.7073305    0.2977099  0.00   -0.0025723    0.0001151    0.0009202
n     4.7714833   -1.1855860   -0.7308519  0.00   -0.0046843   -0.0018219    0.0000010
h     4.3522083   -0.2557764    1.1440309  0.00   -0.0002496   -0.0003644    0.0020902
h     5.1624085   -0.9139613   -1.6692217  0.00    0.0015107    0.0009660   -0.0044241
h     5.5005102   -1.8232366   -0.3201292  0.00    0.0042329   -0.0028188    0.0015857
h    -2.2294703    3.1235720    0.0771982  0.00   -0.0001533    0.0000488   -0.0000209
h    -2.0887674    0.6616034    0.0727726  0.00   -0.0003061   -0.0002551   -0.0000099
h    -0.1874980    4.4652435   -0.1102457  0.00    0.0000498    0.0003180   -0.0000214
h     1.9915201    3.3740270   -0.3006942  0.00    0.0003472    0.0002405   -0.0000312
h     2.3359838   -1.5792013   -0.3961455  0.00    0.0001810   -0.0001263   -0.0000455
o     6.1806815    1.6952520    1.2651182  0.00   -0.0004798    0.0028476    0.0029631
o     7.1178639    0.3701802   -0.5032891  0.00    0.0025969   -0.0035991   -0.0039961
h     7.9073483    0.9407449   -0.2259751  0.00    0.0005400    0.0005374    0.0002984
    27
 Energy =       0.1678568231
c    -1.2477922    2.6427836   -0.0263977  0.00    0.0000319    0.0000220   -0.0000309
c    -1.1867236    1.2816535   -0.0328756  0.00    0.0000207    0.0000432   -0.0000113
c     0.0244728    0.6956468   -0.1362209  0.00    0.0000115    0.0000303   -0.0000010
c    -0.1037647    3.3834792   -0.1285510  0.00   -0.0000545   -0.0000313   -0.0000308
c     1.1088446    2.7682078   -0.2357907  0.00   -0.0000239   -0.0000336   -0.0000276
c     1.1486233    1.4087349   -0.2329417  0.00   -0.0000391    0.0000026   -0.0000457
n     0.2985342   -0.6951421   -0.1861614  0.00    0.0000656    0.0000070    0.0000205
c     2.1990618    0.5726323   -0.3351893  0.00   -0.0000651    0.0000012    0.0002961
c     1.7245049   -0.6895475   -0.3314709  0.00   -0.0001112   -0.0000102   -0.0000273
h    -0.3628461   -1.5034777   -0.1337437  0.00    0.0000503    0.0000502    0.0000284
c     3.6522187    0.9775491   -0.5313811  0.00   -0.0013197    0.0001276    0.0000601
c     4.6647058    0.0277948    0.1533938  0.00    0.0007207    0.0002603    0.0009063
h     3.7999475    1.9968309   -0.1093237  0.00   -0.0002176    0.0011175    0.0006529
h     3.8666817    1.0427757   -1.6216401  0.00    0.0001360    0.0003230   -0.0015095
c     6.0065296    0.7213832    0.3575601  0.00   -0.0016173   -0.0002992    0.0012448
n     4.7878035   -1.2151698   -0.6356641  0.00   -0.0024526   -0.0000631   -0.0000797
h     4.3006532   -0.2114801    1.1813922  0.00   -0.0001551   -0.0000558    0.0011187
h     5.2293888   -0.9852973   -1.5615696  0.00    0.0009511    0.0003454   -0.0025264
h     5.4822055   -1.8447182   -0.1613761  0.00    0.0021841   -0.0019983    0.0010645
h    -2.2105615    3.1408394    0.0560615  0.00    0.0000022    0.0000069   -0.0000367
h    -2.0855293    0.6788674    0.0395358  0.00    0.0000430    0.0000343   -0.0000074
h    -0.1609528    4.4694109   -0.1271994  0.00   -0.0000193   -0.0000268   -0.0000453
h     2.0094904    3.3664518   -0.3247978  0.00   -0.0000554   -0.0000419   -0.0000399
h     2.3223018   -1.5892246   -0.4486073  0.00   -0.0002184   -0.0000438    0.0000362
o     6.1506778    1.6595792    1.3725745  0.00   -0.0005906    0.0016121    0.0016587
o     7.0832392    0.4627173   -0.4844861  0.00    0.0025788   -0.0015073   -0.0027431
h     7.8645761    1.0348078   -0.1892093  0.00    0.0001439    0.0001276    0.0000753
    27
 Energy =       0.1678554143
c    -1.2450956    2.6434750    0.0113142  0.00    0.0000058    0.0001640   -0.0000293
c    -1.1853998    1.2823969   -0.0138967  0.00   -0.0000065   -0.0000213   -0.0000102
c     0.0246612    0.6965723   -0.1315439  0.00    0.0000145    0.0000603    0.0000035
c    -0.1008908    3.3844013   -0.0868135  0.00   -0.0001306    0.0000679   -0.0000260
c     1.1105536    2.7694047   -0.2087668  0.00   -0.0000024    0.0000425   -0.0000320
c     1.1490763    1.4098131   -0.2245856  0.00   -0.0000643   -0.0000216   -0.0000482
n     0.2969126   -0.6938327   -0.2019437  0.00    0.0001433   -0.0001501    0.0000118
c     2.1980336    0.5738100   -0.3439909  0.00   -0.0000058   -0.0000073    0.0003325
c     1.7220630   -0.6878338   -0.3549699  0.00   -0.0001189   -0.0001048   -0.0000343
h    -0.3650756   -1.5021524   -0.1570352  0.00    0.0000351    0.0000103    0.0000320
c     3.6508320    0.9785882   -0.5430587  0.00   -0.0014449    0.0001313    0.0000584
c     4.6639770    0.0262749    0.1376916  0.00    0.0007964    0.0002932    0.0010038
h     3.8007084    1.9970156   -0.1196332  0.00   -0.0002240    0.0012239    0.0007249
h     3.8626609    1.0458055   -1.6338483  0.00    0.0001496    0.0003554   -0.0016659
c     6.0063264    0.7187217    0.3428600  0.00   -0.0018049   -0.0003311    0.0013823
n     4.7858249   -1.2143420   -0.6554766  0.00   -0.0027021   -0.0000782   -0.0000927
h     4.3009797   -0.2161424    1.1654345  0.00   -0.0001715   -0.0000627    0.0012361
h     5.2267498   -0.9817586   -1.5811863  0.00    0.0010481    0.0003811   -0.0027855
h     5.4806854   -1.8456809   -0.1837937  0.00    0.0024078   -0.0022040    0.0011737
h    -2.2069394    3.1413706    0.1055413  0.00   -0.0000490    0.0000691   -0.0000349
h    -2.0844264    0.6795322    0.0550451  0.00    0.0000471    0.0000234   -0.0000084
h    -0.1570096    4.4703698   -0.0704698  0.00   -0.0000455    0.0000881   -0.0000462
h     2.0111162    3.3682013   -0.2943704  0.00   -0.0000718   -0.0000205   -0.0000461
h     2.3182722   -1.5865053   -0.4880092  0.00   -0.0001788   -0.0001659    0.0000236
o     6.1485499    1.6617891    1.3538361  0.00   -0.0006595    0.0017921    0.0018466
o     7.0859068    0.4533341   -0.4938358  0.00    0.0028738   -0.0016751   -0.0030523
h     7.8672382    1.0254602   -0.1985741  0.00    0.0001590    0.0001401    0.0000828
    27
 Energy =       0.1678643225
c    -1.2491295    2.6430792   -0.0339071  0.00   -0.0000402    0.0003588   -0.0000227
c    -1.1874014    1.2816425   -0.0360974  0.00   -0.0000510   -0.0001231   -0.0000040
c     0.0242537    0.6955698   -0.1360761  0.00    0.0000159    0.0000954    0.0000098
c    -0.1052838    3.3839802   -0.1369242  0.00   -0.0002262    0.0002159   -0.0000143
c     1.1077916    2.7686054   -0.2407214  0.00    0.0000327    0.0001587   -0.0000332
c     1.1481927    1.4088742   -0.2335466  0.00   -0.0000925   -0.0000567   -0.0000410
n     0.2991303   -0.6955857   -0.1813091  0.00    0.0002368   -0.0003746   -0.0000007
c     2.1992635    0.5727002   -0.3317101  0.00    0.0000974   -0.0000244    0.0003156
c     1.7253590   -0.6899460   -0.3247105  0.00   -0.0000998   -0.0002352   -0.0000364
h    -0.3619144   -1.5041709   -0.1272248  0.00    0.0000022   -0.0000589    0.0000310
c     3.6523922    0.9782006   -0.5270741  0.00   -0.0012844    0.0000984    0.0000385
c     4.6654687    0.0270999    0.1549337  0.00    0.0007171    0.0002660    0.0009062
h     3.7997182    1.9963991   -0.1021540  0.00   -0.0001749    0.0010912    0.0006629
h     3.8666192    1.0463776   -1.6171923  0.00    0.0001345    0.0003192   -0.0015028
c     6.0073717    0.7204131    0.3595736  0.00   -0.0016484   -0.0003023    0.0012517
n     4.7880831   -1.2141814   -0.6368451  0.00   -0.0024250   -0.0000706   -0.0000847
h     4.3022224   -0.2143406    1.1826960  0.00   -0.0001552   -0.0000568    0.0011128
h     5.2287709   -0.9823002   -1.5626599  0.00    0.0009437    0.0003435   -0.0025078
h     5.4830691   -1.8445464   -0.1645228  0.00    0.0021682   -0.0019840    0.0010566
h    -2.2122728    3.1411993    0.0458015  0.00   -0.0001232    0.0001547   -0.0000248
h    -2.0860368    0.6786664    0.0370466  0.00    0.0000421   -0.0000013   -0.0000073
h    -0.1629906    4.4701341   -0.1390197  0.00   -0.0000791    0.0002571   -0.0000389
h     2.0083821    3.3668742   -0.3305093  0.00   -0.0000828    0.0000209   -0.0000467
h     2.3237558   -1.5900330   -0.4381508  0.00   -0.0000691   -0.0003290    0.0000001
o     6.1514747    1.6582178    1.3749848  0.00   -0.0006026    0.0016352    0.0016872
o     7.0843091    0.4616662   -0.4822121  0.00    0.0026200   -0.0015252   -0.0027814
h     7.8656925    1.0334926   -0.1865484  0.00    0.0001436    0.0001270    0.0000746
    27
 Energy =       0.1678847379
c    -1.2549552    2.6415565   -0.0947184  0.00   -0.0001250    0.0007108   -0.0000227
c    -1.1904011    1.2801728   -0.0660504  0.00   -0.0001393   -0.0002827    0.0000094
c     0.0234604    0.6944620   -0.1412653  0.00    0.0000211    0.0001693    0.0000192
c    -0.1116145    3.3825796   -0.2032242  0.00   -0.0004213    0.0004761   -0.0000027
c     1.1037098    2.7673815   -0.2816100  0.00    0.0001014    0.0003480   -0.0000430
c     1.1466823    1.4080297   -0.2436248  0.00   -0.0001542   -0.0001188   -0.0000350
n     0.3020815   -0.6970339   -0.1524247  0.00    0.0003983   -0.0007701   -0.0000084
c     2.2007273    0.5725072   -0.3122869  0.00    0.0002838   -0.0000782    0.0003368
c     1.7298195   -0.6912372   -0.2815069  0.00   -0.0000557   -0.0004600   -0.0000439
h    -0.3575983   -1.5059482   -0.0866260  0.00   -0.0000440   -0.0001669    0.0000332
c     3.6541591    0.9801942   -0.5011383  0.00   -0.0011304    0.0000267    0.0000038
c     4.6681400    0.0267723    0.1757363  0.00    0.0006462    0.0002460    0.0008282
h     3.7978352    1.9955249   -0.0677420  0.00   -0.0000994    0.0009956    0.0006345
h     3.8707644    1.0566070   -1.5901482  0.00    0.0001247    0.0002892   -0.0013879
c     6.0100382    0.7197933    0.3808987  0.00   -0.0015127   -0.0002880    0.0011232
n     4.7899329   -1.2113243   -0.6209671  0.00   -0.0021685   -0.0000701   -0.0000816
h     4.3063923   -0.2185682    1.2029798  0.00   -0.0001459   -0.0000530    0.0010089
h     5.2282053   -0.9756303   -1.5468036  0.00    0.0008574    0.0003108   -0.0022733
h     5.4863117   -1.8428501   -0.1526634  0.00    0.0019625   -0.0017958    0.0009589
h    -2.2198931    3.1394224   -0.0353126  0.00   -0.0002683    0.0003145   -0.0000144
h    -2.0884735    0.6769358    0.0119103  0.00    0.0000386   -0.0000350   -0.0000055
h    -0.1715187    4.4685421   -0.2300323  0.00   -0.0001461    0.0005508   -0.0000371
h     2.0044370    3.3649190   -0.3761368  0.00   -0.0001100    0.0000846   -0.0000564
h     2.3313012   -1.5926256   -0.3678113  0.00    0.0001108   -0.0006369   -0.0000305
o     6.1569866    1.6497833    1.4029334  0.00   -0.0005526    0.0015195    0.0015745
o     7.0839406    0.4688771   -0.4667910  0.00    0.0023974   -0.0014051   -0.0025584
h     7.8658203    1.0392454   -0.1696538  0.00    0.0001311    0.0001186    0.0000703
    27
 Energy =       0.1678085791
c    -1.2366239    2.6655782   -0.1480239  0.00   -0.0003464    0.0004063   -0.0000173
c    -1.1852779    1.3034897   -0.1405973  0.00   -0.0002627   -0.0004615    0.0000111
c     0.0241380    0.7078389   -0.2068789  0.00   -0.0000939    0.0000006    0.0000259
c    -0.0847618    3.3976235   -0.2268868  0.00    0.0000187    0.0005707   -0.0000385
c     1.1260015    2.7727300   -0.2968619  0.00    0.0002422    0.0005007   -0.0000572
c     1.1559682    1.4123893   -0.2807012  0.00    0.0001124    0.0000134   -0.0000743
n     0.2889774   -0.6859255   -0.2375470  0.00    0.0000785   -0.0006202    0.0000152
c     2.2025909    0.5671495   -0.3484441  0.00    0.0001342    0.0004155    0.0004850
c     1.7184387   -0.6919335   -0.3460625  0.00   -0.0001810   -0.0005295   -0.0000744
h    -0.3797140   -1.4893561   -0.1952711  0.00   -0.0003664   -0.0005116    0.0000532
c     3.6641357    0.9572923   -0.5119226  0.00   -0.0018885    0.0006963    0.0000367
c     4.6474924    0.0227523    0.2359252  0.00    0.0012681    0.0006297    0.0013203
h     3.8066998    1.9891932   -0.1194190  0.00   -0.0004284    0.0015816    0.0007387
h     3.9137289    0.9851262   -1.5972367  0.00    0.0003737    0.0003225   -0.0024470
c     5.9856848    0.7153366    0.4641526  0.00   -0.0005687   -0.0005932    0.0007965
n     4.7918261   -1.2442845   -0.5114431  0.00   -0.0026783   -0.0005594   -0.0004767
h     4.2465580   -0.1843991    1.2582717  0.00   -0.0004916   -0.0001299    0.0020544
h     5.2666416   -1.0441254   -1.4284813  0.00    0.0014548    0.0003206   -0.0033536
h     5.4646848   -1.8639166    0.0060898  0.00    0.0027819   -0.0026335    0.0016589
h    -2.1977838    3.1712783   -0.0953719  0.00   -0.0002381    0.0001834   -0.0000293
h    -2.0902344    0.7074087   -0.0864362  0.00   -0.0002498   -0.0002411    0.0000037
h    -0.1341424    4.4843850   -0.2369139  0.00   -0.0000220    0.0005343   -0.0000571
h     2.0327384    3.3645821   -0.3678076  0.00    0.0002002    0.0002510   -0.0000848
h     2.3125149   -1.5972159   -0.4406861  0.00   -0.0002459   -0.0005136    0.0000079
o     6.1238404    1.6242169    1.5058960  0.00   -0.0003574    0.0012917    0.0013338
o     7.0620590    0.4916687   -0.3869503  0.00    0.0015196   -0.0011221   -0.0019670
h     7.8401097    1.0592053   -0.0744716  0.00    0.0002351    0.0001973    0.0001359
    27
 Energy =       0.1676911597
c    -1.2239234    2.6716823   -0.1928374  0.00   -0.0003322    0.0001677   -0.0000322
c    -1.1788782    1.3096736   -0.2067701  0.00   -0.0002168   -0.0004414   -0.0000037
c     0.0284843    0.7096396   -0.2672153  0.00   -0.0001261   -0.0000831    0.0000206
c    -0.0678828    3.3994969   -0.2447467  0.00    0.0002301    0.0004545   -0.0000657
c     1.1408612    2.7704784   -0.3091643  0.00    0.0001998    0.0004647   -0.0000595
c     1.1646813    1.4098914   -0.3152906  0.00    0.0001880    0.0000567   -0.0000876
n     0.2866274   -0.6846158   -0.3174707  0.00   -0.0000412   -0.0003912    0.0000286
c     2.2075828    0.5600268   -0.3847461  0.00   -0.0000362    0.0005529    0.0004672
c     1.7171153   -0.6960042   -0.4086374  0.00   -0.0002501   -0.0004166   -0.0000632
h    -0.3865541   -1.4851764   -0.2969993  0.00   -0.0004106   -0.0005298    0.0000592
c     3.6743623    0.9389156   -0.5243837  0.00   -0.0020429    0.0008710    0.0000292
c     4.6287490    0.0313662    0.2914958  0.00    0.0014140    0.0009990    0.0015398
h     3.8146218    1.9864048   -0.1760460  0.00   -0.0004833    0.0017420    0.0007201
h     3.9545582    0.9172025   -1.6025967  0.00    0.0004362    0.0002399   -0.0026562
c     5.9615482    0.7281315    0.5353159  0.00   -0.0002718   -0.0006951    0.0006380
n     4.7931099   -1.2643352   -0.4010787  0.00   -0.0026278   -0.0009630   -0.0007540
h     4.1933550   -0.1354905    1.3075034  0.00   -0.0005741   -0.0001234    0.0022686
h     5.3022038   -1.1015066   -1.3072487  0.00    0.0015930    0.0002224   -0.0034397
h     5.4410567   -1.8680111    0.1648429  0.00    0.0028119   -0.0027378    0.0018909
h    -2.1833619    3.1808051   -0.1445900  0.00   -0.0001337    0.0000686   -0.0000567
h    -2.0871863    0.7170442   -0.1740220  0.00   -0.0002968   -0.0002691   -0.0000035
h    -0.1122383    4.4863821   -0.2377430  0.00    0.0000454    0.0003956   -0.0000804
h     2.0502180    3.3602903   -0.3582330  0.00    0.0002692    0.0002833   -0.0000946
h     2.3085723   -1.6019862   -0.5114595  0.00   -0.0003999   -0.0003162    0.0000304
o     6.0959441    1.6092925    1.6008778  0.00   -0.0003065    0.0011112    0.0012184
o     7.0341638    0.5413601   -0.3286974  0.00    0.0011636   -0.0008324   -0.0016525
h     7.8085007    1.1071305   -0.0041390  0.00    0.0001991    0.0001697    0.0001385
    27
 Energy =       0.1677329534
c    -1.2247927    2.6769267   -0.2670087  0.00   -0.0004201    0.0006033   -0.0000311
c    -1.1801456    1.3145709   -0.2484043  0.00   -0.0003535   -0.0005342    0.0000056
c     0.0277481    0.7126377   -0.2792275  0.00   -0.0000834    0.0000023    0.0000315
c    -0.0677823    3.4030187   -0.3214124  0.00   -0.0001004    0.0007425   -0.0000527
c     1.1414729    2.7719159   -0.3556735  0.00    0.0003038    0.0006048   -0.0000627
c     1.1646826    1.4112989   -0.3291095  0.00    0.0000854   -0.0000430   -0.0000784
n     0.2862712   -0.6827909   -0.2933824  0.00    0.0001123   -0.0008152    0.0000242
c     2.2084070    0.5599217   -0.3645588  0.00    0.0002285    0.0003148    0.0004793
c     1.7179832   -0.6966585   -0.3656003  0.00   -0.0000914   -0.0006345   -0.0000713
h    -0.3873232   -1.4826916   -0.2626501  0.00   -0.0004004   -0.0005704    0.0000540
c     3.6763134    0.9383732   -0.4943222  0.00   -0.0017903    0.0007076   -0.0000034
c     4.6281217    0.0264584    0.3191239  0.00    0.0012693    0.0009027    0.0013895
h     3.8138170    1.9832422   -0.1367849  0.00   -0.0003377    0.0015635    0.0006873
h     3.9614554    0.9245057   -1.5711597  0.00    0.0003949    0.0002153   -0.0024331
c     5.9607563    0.7213782    0.5688255  0.00   -0.0002679   -0.0006559    0.0005466