    13
 Energy =       0.1434177996
c    -3.7133889    1.6950595    0.3173519  0.00   -0.0450348    0.0538058    0.1573622
c    -2.4962693    2.6345192    0.2419999  0.00    0.1999379    0.1167696   -0.3157056
c    -4.9565486    2.3924193   -0.2155699  0.00    0.0114152   -0.0019650    0.0091873
h    -4.7854386    2.7464192   -1.2386596  0.00   -0.0035766   -0.0054596    0.0178496
h    -5.2149185    3.2645991    0.3947669  0.00    0.0028226   -0.0131690   -0.0125766
h    -5.8205083    1.7195795   -0.2420919  0.00    0.0127406    0.0117813   -0.0057757
n    -3.4097890    0.4519539   -0.4549189  0.00    0.0454914   -0.0399906   -0.0564111
h    -3.8575589    1.4177196    1.3669296  0.00    0.1094775    0.0972623    0.0428484
h    -4.2340588    0.2238779   -1.0206697  0.00    0.0216590    0.0312613    0.0218464
h    -2.6878492    0.6694128   -1.1486897  0.00   -0.0287264    0.0125997    0.0380590
o    -1.9513094    3.0041591   -0.7839488  0.00   -0.1318183   -0.0960896    0.2479139
o    -2.1005994    3.0267291    1.4825496  0.00   -0.0692306   -0.0546578    0.0082743
h    -2.6645092    2.5096893    2.1108994  0.00   -0.1251577   -0.1121483   -0.1528723
    13
 Energy =       0.0963720449
c    -3.6891663    1.6868982    0.2780123  0.00   -0.0070249    0.0249936    0.0677617
c    -2.5391919    2.6871051    0.2537903  0.00    0.0701150    0.0451025   -0.1143583
c    -5.0139869    2.3453160   -0.1417362  0.00    0.0028633    0.0011917    0.0044242
h    -4.9366211    2.7696992   -1.1677527  0.00   -0.0012178    0.0015274    0.0009725
h    -5.2828832    3.1682955    0.5535200  0.00   -0.0014735   -0.0023072   -0.0014720
h    -5.8400782    1.6059544   -0.1218340  0.00    0.0020883    0.0019069   -0.0006502
n    -3.3924041    0.4925600   -0.5575194  0.00    0.0179246   -0.0192630   -0.0202354
h    -3.7661143    1.3552231    1.3323872  0.00    0.0594925    0.0522320    0.0291304
h    -4.2115774    0.2423767   -1.1465638  0.00    0.0086662    0.0110762    0.0062780
h    -2.6375335    0.7142944   -1.2396774  0.00   -0.0094050    0.0063947    0.0142600
o    -1.9299238    3.0478929   -0.8691631  0.00   -0.0468229   -0.0418444    0.0894599
o    -2.1307566    3.1560861    1.4791412  0.00   -0.0090719    0.0179913   -0.0245189
h    -2.5225090    2.4844360    2.1573445  0.00   -0.0861339   -0.0990015   -0.0510519
    13
 Energy =       0.0843233993
c    -3.6975934    1.6605313    0.2597914  0.00   -0.0004159    0.0171715    0.0409138
c    -2.4825116    2.5879926    0.2454108  0.00    0.0362608    0.0252232   -0.0553852
c    -4.9948044    2.4261435   -0.0811382  0.00    0.0001186    0.0026254   -0.0019781
h    -4.9434598    2.8320857   -1.1168234  0.00   -0.0002525    0.0004752   -0.0002653
h    -5.1480874    3.2802593    0.6234792  0.00   -0.0017793    0.0040511    0.0035360
h    -5.8803866    1.7527213   -0.0022602  0.00   -0.0038499   -0.0017315   -0.0000967
n    -3.5306977    0.4753439   -0.6278332  0.00    0.0127246   -0.0208633   -0.0065738
h    -3.7532495    1.2974299    1.3096975  0.00    0.0379570    0.0318985    0.0197992
h    -4.3703305    0.3374225   -1.2443035  0.00   -0.0053165    0.0038762   -0.0033659
h    -2.7254088    0.6205000   -1.2851449  0.00    0.0015619    0.0054068    0.0039299
o    -1.8467323    2.9163015   -0.9108338  0.00   -0.0217645   -0.0214835    0.0434838
o    -2.0355996    3.0732187    1.4595269  0.00    0.0001498    0.0173139   -0.0180545
h    -2.4838847    2.4961873    2.1803804  0.00   -0.0553944   -0.0639635   -0.0259432
    13
 Energy =       0.0803555821
c    -3.7269353    1.6692836    0.2709978  0.00   -0.0000231    0.0122407    0.0268292
c    -2.4859791    2.5638907    0.2749758  0.00    0.0224406    0.0173428   -0.0345006
c    -4.9872106    2.4547159   -0.1563708  0.00   -0.0018959    0.0025712   -0.0004587
h    -4.8788048    2.8224301   -1.2040936  0.00    0.0000437    0.0011307   -0.0023652
h    -5.1499857    3.3357250    0.5106509  0.00   -0.0017271    0.0034492    0.0029642
h    -5.8907777    1.8051006   -0.0931106  0.00   -0.0030678   -0.0013554    0.0002115
n    -3.5592246    0.4454306   -0.5602728  0.00    0.0017427   -0.0171560    0.0127814
h    -3.8494015    1.3508862    1.3331360  0.00    0.0258858    0.0216577    0.0169638
h    -4.3373629    0.3509639   -1.2686107  0.00   -0.0129507    0.0028011   -0.0088779
h    -2.6608067    0.4878970   -1.1263918  0.00    0.0194979    0.0037998   -0.0092300
o    -1.7993859    2.8357284   -0.8819440  0.00   -0.0117354   -0.0139635    0.0254838
o    -2.0468677    3.0769079    1.4845172  0.00    0.0011118    0.0133486   -0.0134179
h    -2.5200038    2.5571778    2.2264654  0.00   -0.0393225   -0.0458668   -0.0163836
    13
 Energy =       0.0782714710
c    -3.7350449    1.6796660    0.2915860  0.00    0.0013640    0.0110834    0.0217571
c    -2.4683933    2.5413725    0.2730545  0.00    0.0165639    0.0137097   -0.0272508
c    -4.9591159    2.4774407   -0.2151805  0.00   -0.0027282    0.0034191    0.0009279
h    -4.8142526    2.7748886   -1.2832808  0.00    0.0006220    0.0019865   -0.0048533
h    -5.1081303    3.4049062    0.3922757  0.00   -0.0022151    0.0050892    0.0036913
h    -5.8853903    1.8626400   -0.1308628  0.00   -0.0032626   -0.0017224    0.0007725
n    -3.5811928    0.4074452   -0.4681989  0.00    0.0051829   -0.0165460    0.0177928
h    -3.8978360    1.4240044    1.3683405  0.00    0.0199833    0.0165068    0.0163370
h    -4.4068440    0.2280366   -1.1098576  0.00   -0.0177293   -0.0015378   -0.0146981
h    -2.7279094    0.4465189   -1.1007449  0.00    0.0197288    0.0039899   -0.0098672
o    -1.7619028    2.7410079   -0.8940031  0.00   -0.0073701   -0.0107613    0.0168011
o    -2.0279699    3.1124186    1.4587539  0.00    0.0026715    0.0129907   -0.0111111
h    -2.5187641    2.6557921    2.2280667  0.00   -0.0328110   -0.0382078   -0.0102993
    13
 Energy =       0.0750707149
c    -3.7194629    1.6709786    0.2970801  0.00    0.0002286    0.0067970    0.0151263
c    -2.4884212    2.5849585    0.2584697  0.00    0.0057514    0.0040968   -0.0060005
c    -4.9776412    2.4189819   -0.1974317  0.00   -0.0021379    0.0030971    0.0004003
h    -4.8583647    2.7109564   -1.2687636  0.00    0.0004225    0.0014398   -0.0033326
h    -5.1472830    3.3461780    0.4011438  0.00   -0.0013777    0.0034441    0.0023622
h    -5.8807790    1.7742395   -0.0947326  0.00   -0.0027553   -0.0015259    0.0005251
n    -3.5269600    0.4104902   -0.4669761  0.00    0.0032376   -0.0117984    0.0136218
h    -3.8631823    1.4027301    1.3721461  0.00    0.0133188    0.0105742    0.0109694
h    -4.3621024    0.1848730   -1.0750791  0.00   -0.0132832   -0.0009360   -0.0106959
h    -2.7020012    0.4901835   -1.1273385  0.00    0.0147650    0.0026567   -0.0072532
o    -1.8806036    2.8997611   -0.9530053  0.00    0.0017353   -0.0021807   -0.0026613
o    -2.0056944    3.1439767    1.4367895  0.00    0.0022265    0.0093164   -0.0064598
h    -2.4802505    2.7178302    2.2276464  0.00   -0.0221318   -0.0249811   -0.0066020
    13
 Energy =       0.0739125155
c    -3.7102315    1.6831469    0.3202407  0.00   -0.0023322    0.0041439    0.0102564
c    -2.4859488    2.6045164    0.1627309  0.00    0.0011375    0.0009753   -0.0034742
c    -4.9958252    2.3924282   -0.1567198  0.00   -0.0007957    0.0018900    0.0006741
h    -4.9257122    2.6314125   -1.2467741  0.00    0.0002958    0.0016083   -0.0047340
h    -5.1474405    3.3469127    0.4018426  0.00   -0.0006963    0.0032609    0.0023465
h    -5.8878116    1.7450809    0.0165979  0.00   -0.0036642   -0.0025314    0.0005691
n    -3.5485638    0.3830389   -0.3823611  0.00    0.0010564   -0.0102482    0.0113907
h    -3.8053392    1.4726766    1.4162625  0.00    0.0082213    0.0060469    0.0104770
h    -4.4077606    0.1164311   -0.9359099  0.00   -0.0113604   -0.0020409   -0.0096749
h    -2.7596960    0.4296759   -1.0860722  0.00    0.0120473    0.0017473   -0.0069188
o    -1.9710351    2.8744354   -1.1065138  0.00    0.0045008    0.0005518   -0.0096135
o    -1.9123881    3.2195253    1.2780364  0.00    0.0089464    0.0134686   -0.0032771
h    -2.3349938    2.8568569    2.1285886  0.00   -0.0173567   -0.0188725    0.0019789
    13
 Energy =       0.0748046814
c    -3.7160392    1.6938428    0.3260845  0.00   -0.0033895    0.0043033    0.0097975
c    -2.4912084    2.6019659    0.0873307  0.00   -0.0002213   -0.0005662   -0.0045970
c    -5.0224675    2.4053762   -0.0914664  0.00   -0.0017605    0.0019976    0.0008928
h    -5.0005154    2.6476111   -1.1838982  0.00    0.0003050    0.0017170   -0.0058399
h    -5.1490755    3.3581651    0.4765064  0.00   -0.0008046    0.0034696    0.0026300
h    -5.9061149    1.7563335    0.1188726  0.00   -0.0043387   -0.0027052    0.0007292
n    -3.6039042    0.3775853   -0.3604957  0.00    0.0002637   -0.0117969    0.0206847
h    -3.7588238    1.5043627    1.4310514  0.00    0.0075520    0.0056270    0.0118156
h    -4.4362197    0.1806772   -0.9896900  0.00   -0.0191228   -0.0030521   -0.0140966
h    -2.7522155    0.3546900   -0.9983944  0.00    0.0207015    0.0020266   -0.0127502
o    -2.0601032    2.8685277   -1.2163077  0.00    0.0056491    0.0012171   -0.0145131
o    -1.8198184    3.1908428    1.1663900  0.00    0.0128900    0.0171193   -0.0010654
h    -2.1762407    2.8161575    2.0439655  0.00   -0.0177240   -0.0193571    0.0063125
    13
 Energy =       0.0730466239
c    -3.7054279    1.6725897    0.3156547  0.00   -0.0021850    0.0016951    0.0023816
c    -2.4907196    2.6062069    0.1599198  0.00   -0.0007749   -0.0014204   -0.0041693
c    -5.0003291    2.3734453   -0.1413168  0.00   -0.0011342    0.0003282    0.0003449
h    -4.9504751    2.6058053   -1.2313182  0.00   -0.0000076    0.0005726   -0.0022141
h    -5.1463949    3.3284260    0.4132646  0.00   -0.0002673    0.0012511    0.0010241
h    -5.8842433    1.7245043    0.0502250  0.00   -0.0014954   -0.0008378    0.0003202
n    -3.5429400    0.3824552   -0.4002393  0.00   -0.0011831   -0.0059028    0.0120093
h    -3.7959683    1.4445810    1.4055323  0.00    0.0026593    0.0014428    0.0051186
h    -4.3965236    0.1285284   -0.9665966  0.00   -0.0109372   -0.0006264   -0.0078104
h    -2.7395568    0.4219397   -1.0883116  0.00    0.0125742   -0.0000195   -0.0073265
o    -1.9934772    2.8811498   -1.1138194  0.00    0.0020180    0.0007355   -0.0078453
o    -1.9116968    3.2423758    1.2661059  0.00    0.0087630    0.0105511   -0.0016953
h    -2.3349938    2.9441304    2.1408483  0.00   -0.0080298   -0.0077695    0.0098623
    13
 Energy =       0.0727842410
c    -3.7338786    1.6908813    0.3225418  0.00   -0.0018535    0.0002378    0.0021423
c    -2.4710147    2.5707407    0.2118078  0.00   -0.0003859   -0.0026953   -0.0074533
c    -4.9735164    2.4332595   -0.2300862  0.00   -0.0037376    0.0034093    0.0010778
h    -4.8536201    2.6271110   -1.3257482  0.00    0.0005355    0.0015742   -0.0058819
h    -5.1075011    3.4136682    0.2848993  0.00   -0.0011682    0.0027721    0.0015952
h    -5.8978854    1.8311486   -0.0643569  0.00   -0.0039587   -0.0018808    0.0012147
n    -3.5791525    0.3782903   -0.3553530  0.00    0.0006196   -0.0081134    0.0181708
h    -3.8977334    1.4947921    1.4139316  0.00    0.0022078    0.0003380    0.0092705
h    -4.4570830    0.0919307   -0.8746194  0.00   -0.0164293   -0.0030711   -0.0117441
h    -2.8053325    0.4143024   -1.0820910  0.00    0.0175699    0.0002544   -0.0110892
o    -1.9443922    2.8597690   -1.0489799  0.00    0.0030960    0.0013525   -0.0107757
o    -1.8717606    3.1414373    1.3471996  0.00    0.0137510    0.0157396   -0.0006269
h    -2.2998760    2.8088066    2.2108033  0.00   -0.0102466   -0.0099173    0.0140997
    13
 Energy =       0.0713015830
c    -3.7599704    1.7112455    0.3253400  0.00    0.0002346   -0.0027720   -0.0001223
c    -2.4562000    2.5378979    0.2948632  0.00    0.0005184   -0.0034723   -0.0066825
c    -4.9263243    2.4853124   -0.3428106  0.00   -0.0061587    0.0063944    0.0010542
h    -4.7207244    2.6365446   -1.4350460  0.00    0.0012571    0.0020086   -0.0086309
h    -5.0553476    3.4882768    0.1289035  0.00   -0.0018502    0.0031925    0.0014711
h    -5.8878465    1.9299196   -0.2231100  0.00   -0.0056718   -0.0020461    0.0017845
n    -3.5955256    0.3881312   -0.3214547  0.00    0.0058635   -0.0043367    0.0285883
h    -4.0188504    1.5406198    1.4046641  0.00   -0.0001414   -0.0012763    0.0108465
h    -4.5135632    0.0301111   -0.7262997  0.00   -0.0253337   -0.0087050   -0.0144256
h    -2.9104079    0.4580370   -1.1360795  0.00    0.0217993    0.0021984   -0.0178633
o    -1.8804924    2.8580163   -0.9365605  0.00    0.0034447    0.0017570   -0.0101707
o    -1.8586812    3.0260156    1.4694490  0.00    0.0134528    0.0144385    0.0019724
h    -2.3088125    2.6660100    2.3080900  0.00   -0.0074144   -0.0073811    0.0121783
    13
 Energy =       0.0689214721
c    -3.7801865    1.7308717    0.3210194  0.00    0.0010701   -0.0027714   -0.0013631
c    -2.4583957    2.5173359    0.3763199  0.00   -0.0002111   -0.0027971   -0.0023997
c    -4.8718068    2.5179969   -0.4390884  0.00   -0.0033450    0.0036267    0.0003842
h    -4.5886141    2.6440078   -1.5133929  0.00    0.0006496    0.0008696   -0.0050408
h    -5.0050178    3.5302739    0.0054727  0.00   -0.0008744    0.0009960    0.0005762
h    -5.8515430    1.9900143   -0.3818632  0.00   -0.0035031   -0.0009832    0.0009329
n    -3.5994299    0.4091910   -0.3076421  0.00    0.0038038    0.0002766    0.0188449
h    -4.1231183    1.5754793    1.3744219  0.00   -0.0010968   -0.0012811    0.0054562
h    -4.5282665   -0.0051200   -0.6000290  0.00   -0.0156974   -0.0058466   -0.0077820
h    -3.0156163    0.5084566   -1.1874414  0.00    0.0127257    0.0026191   -0.0119483
o    -1.8343208    2.8784793   -0.8163059  0.00    0.0019113    0.0009204   -0.0051702
o    -1.8766292    2.9166705    1.5864075  0.00    0.0062008    0.0063093    0.0029158
h    -2.3598014    2.5424806    2.3920704  0.00   -0.0016335   -0.0019381    0.0045940
    13
 Energy =       0.0677760828
c    -3.8008926    1.7620246    0.3175161  0.00    0.0017751   -0.0011555   -0.0007347
c    -2.4732627    2.5247433    0.4366243  0.00   -0.0018802   -0.0029856   -0.0042430
c    -4.8294507    2.5396843   -0.5317462  0.00   -0.0023638    0.0024781    0.0003201
h    -4.4694812    2.6471439   -1.5839753  0.00    0.0008689    0.0003197   -0.0040879
h    -4.9865139    3.5597559   -0.1142829  0.00   -0.0005818    0.0007169    0.0005982
h    -5.8131786    2.0180168   -0.5398096  0.00   -0.0028566   -0.0004468    0.0002321
n    -3.5979578    0.4265328   -0.2674892  0.00    0.0046683    0.0002197    0.0095254
h    -4.2137799    1.6422286    1.3490669  0.00   -0.0016766   -0.0008899    0.0036590
h    -4.5232446   -0.0349418   -0.4721016  0.00   -0.0095832   -0.0044971   -0.0038021
h    -3.0869810    0.5208102   -1.1859719  0.00    0.0058731    0.0026768   -0.0061362
o    -1.8319028    2.9543719   -0.7231978  0.00    0.0013164    0.0005122   -0.0046919
o    -1.8870378    2.8120395    1.6765995  0.00    0.0054986    0.0041885    0.0050850
h    -2.3790627    2.3837275    2.4487164  0.00   -0.0010582   -0.0011370    0.0042759
    13
 Energy =       0.0672077665
c    -3.8195872    1.8069268    0.3214013  0.00    0.0028379    0.0027259    0.0019153
c    -2.5023944    2.5791202    0.4623799  0.00   -0.0028786   -0.0018369   -0.0034791
c    -4.8106550    2.5245370   -0.6211265  0.00   -0.0030000    0.0011537   -0.0010684
h    -4.3951427    2.5882604   -1.6552871  0.00    0.0006713    0.0000935   -0.0031783
h    -5.0049906    3.5625050   -0.2633984  0.00   -0.0008765    0.0023633    0.0010880
h    -5.7826823    1.9860661   -0.6596904  0.00   -0.0013490    0.0002025   -0.0002400
n    -3.5839426    0.4375054   -0.1701941  0.00    0.0040833   -0.0043009    0.0036396
h    -4.2800819    1.7543888    1.3386084  0.00   -0.0017084   -0.0001297    0.0035079
h    -4.4963357   -0.0642229   -0.3133485  0.00   -0.0047768   -0.0035493   -0.0021174
h    -3.1031271    0.4792245   -1.1056116  0.00    0.0024451    0.0013970   -0.0035831
o    -1.8899218    3.0993030   -0.6770642  0.00    0.0017669    0.0010708   -0.0063841
o    -1.8823380    2.7587527    1.7054612  0.00    0.0052078    0.0040144    0.0024229
h    -2.3415471    2.2437706    2.4478187  0.00   -0.0024229   -0.0032045    0.0074768
    13
 Energy =       0.0667192646
c    -3.8390744    1.8521796    0.3249061  0.00    0.0017335    0.0026976    0.0011823
c    -2.5225396    2.6216451    0.4766974  0.00   -0.0032190   -0.0007486   -0.0021776
c    -4.7884330    2.5107590   -0.6973991  0.00   -0.0022375    0.0004557   -0.0006746
h    -4.3290383    2.5196603   -1.7136578  0.00    0.0005221    0.0001438   -0.0021577
h    -4.9982334    3.5664054   -0.4080787  0.00   -0.0006384    0.0020119    0.0006656
h    -5.7552021    1.9659155   -0.7470097  0.00   -0.0001478    0.0002216   -0.0000829
n    -3.5965348    0.4527372   -0.0657887  0.00    0.0011598   -0.0041487    0.0023392
h    -4.3357280    1.8721478    1.3256966  0.00   -0.0013275    0.0001051    0.0025652
h    -4.5053003   -0.0628445   -0.1545953  0.00   -0.0011936   -0.0016903   -0.0006687
h    -3.1286478    0.4232973   -1.0075064  0.00    0.0015854    0.0000748   -0.0033767
o    -1.9483831    3.2325298   -0.6368891  0.00    0.0014828    0.0011883   -0.0055180
o    -1.8566997    2.6934619    1.7051628  0.00    0.0035447    0.0016730    0.0034557
h    -2.2889318    2.1082432    2.4084108  0.00   -0.0012644   -0.0019843    0.0044482
    13
 Energy =       0.0664017103
c    -3.8599227    1.8977026    0.3303516  0.00    0.0015295    0.0032723    0.0015921
c    -2.5467291    2.6714572    0.4882024  0.00   -0.0039413   -0.0013617    0.0005928
c    -4.7685931    2.4818120   -0.7725954  0.00   -0.0029455   -0.0000806   -0.0009600
h    -4.2702463    2.4200003   -1.7691274  0.00    0.0008567   -0.0000509   -0.0029525
h    -4.9864126    3.5563443   -0.5668318  0.00   -0.0008551    0.0030414    0.0006016
h    -5.7338066    1.9340773   -0.8202028  0.00   -0.0001117    0.0000591   -0.0000677
n    -3.6098181    0.4720416    0.0526631  0.00    0.0003405   -0.0059278    0.0025079
h    -4.3898679    1.9939778    1.3102579  0.00   -0.0012000    0.0005775    0.0030143
h    -4.5178386   -0.0464905   -0.0130466  0.00   -0.0000036   -0.0005746   -0.0001928
h    -3.1246452    0.3690273   -0.8751681  0.00    0.0018337   -0.0006533   -0.0038238
o    -2.0268221    3.3905594   -0.5893890  0.00    0.0024892    0.0033687   -0.0081574
o    -1.8308117    2.6392579    1.6891439  0.00    0.0038812    0.0024676    0.0023703
h    -2.2272325    1.9763705    2.3456909  0.00   -0.0018736   -0.0041377    0.0054753
    13
 Energy =       0.0660240712
c    -3.8827943    1.9467848    0.3363334  0.00   -0.0002475    0.0019757   -0.0018792
c    -2.5562755    2.6996760    0.4874803  0.00   -0.0019796   -0.0008973    0.0005031
c    -4.7354516    2.4571982   -0.8405490  0.00   -0.0002501    0.0004975    0.0004943
h    -4.1981533    2.3151233   -1.8059188  0.00    0.0005780    0.0000871   -0.0009370
h    -4.9405552    3.5453196   -0.7250354  0.00   -0.0001722    0.0005998    0.0000445
h    -5.7081845    1.9226232   -0.8854290  0.00   -0.0001149   -0.0000437    0.0002202
n    -3.6629330    0.4994147    0.1858585  0.00   -0.0001483   -0.0020721    0.0022842
h    -4.4400552    2.1345917    1.2857979  0.00   -0.0006761   -0.0000756    0.0014425
h    -4.5829618   -0.0008401    0.1435181  0.00   -0.0005615   -0.0004362    0.0001930
h    -3.1593774    0.3064076   -0.7164150  0.00    0.0015069   -0.0003763   -0.0024332
o    -2.1051229    3.5343042   -0.5323913  0.00    0.0001178    0.0013213   -0.0037354
o    -1.7738591    2.5542313    1.6346311  0.00    0.0010301   -0.0027258    0.0056535
h    -2.1470228    1.8413029    2.2420680  0.00    0.0009175    0.0021456   -0.0018505
    13
 Energy =       0.0659420314
c    -3.8937066    1.9595341    0.3364472  0.00    0.0000300    0.0017374    0.0002475
c    -2.5881696    2.7464136    0.5041709  0.00   -0.0019205   -0.0026865    0.0030989
c    -4.7263270    2.4155350   -0.8784686  0.00   -0.0012116   -0.0000660   -0.0004763
h    -4.1582361    2.2614274   -1.8242205  0.00    0.0005675   -0.0002095   -0.0011310
h    -4.9624784    3.5013324   -0.7981289  0.00   -0.0004280    0.0013184    0.0001827
h    -5.6841935    1.8551564   -0.9366871  0.00   -0.0005768   -0.0001460   -0.0001525
n    -3.6387624    0.5130784    0.2338552  0.00    0.0007913   -0.0023813    0.0016681
h    -4.4789860    2.1632643    1.2655069  0.00   -0.0005241    0.0003986    0.0013829
h    -4.5470222   -0.0081258    0.1869631  0.00   -0.0006897   -0.0005470   -0.0000017
h    -3.1130760    0.3037949   -0.6515384  0.00    0.0010997   -0.0006400   -0.0019441
o    -2.1808835    3.6525027   -0.4751866  0.00    0.0020039    0.0041486   -0.0056534
o    -1.7882909    2.5730984    1.6342412  0.00    0.0012307    0.0001356    0.0021338
h    -2.1326143    1.8191260    2.2129944  0.00   -0.0003725   -0.0010624    0.0006451
    13
 Energy =       0.0658355447
c    -3.9077781    1.9914340    0.3406479  0.00    0.0001567    0.0023965   -0.0010231
c    -2.5859763    2.7536256    0.4939472  0.00   -0.0013583    0.0000602   -0.0011803
c    -4.6994888    2.3994448   -0.9172821  0.00   -0.0006931    0.0001570   -0.0000179
h    -4.1105862    2.1884019   -1.8389998  0.00    0.0006762   -0.0000902   -0.0012644
h    -4.9177182    3.4918397   -0.8984252  0.00   -0.0002912    0.0012617   -0.0000841
h    -5.6654757    1.8540572   -0.9711297  0.00    0.0001052    0.0000077    0.0002043
n    -3.6915740    0.5346413    0.3241562  0.00   -0.0004460   -0.0027790    0.0024025
h    -4.5063855    2.2623056    1.2440894  0.00   -0.0009432    0.0003253    0.0015836
h    -4.6127071    0.0361203    0.2893580  0.00   -0.0002023   -0.0003318    0.0001130
h    -3.1552648    0.2616664   -0.5374369  0.00    0.0015036   -0.0006694   -0.0021910
o    -2.2253292    3.7242579   -0.4361858  0.00   -0.0006404    0.0007906   -0.0020794
o    -1.7381015    2.5124560    1.5765115  0.00    0.0019876   -0.0013023    0.0035901
h    -2.0763610    1.7458870    2.1406982  0.00    0.0001452    0.0001736   -0.0000531
    13
 Energy =       0.0658002491
c    -3.9150218    1.9976092    0.3396798  0.00    0.0000733   -0.0001776    0.0004231
c    -2.6037235    2.7757145    0.5070842  0.00   -0.0003111   -0.0014958    0.0013239
c    -4.6881510    2.3785984   -0.9373752  0.00   -0.0003120   -0.0000862   -0.0001649
h    -4.0797493    2.1634626   -1.8438410  0.00    0.0000648   -0.0000813   -0.0001346
h    -4.9202972    3.4672260   -0.9362154  0.00   -0.0000689    0.0001192    0.0000579
h    -5.6466162    1.8208153   -1.0034111  0.00   -0.0001839   -0.0000385   -0.0001013
n    -3.6861674    0.5445028    0.3468712  0.00    0.0002722    0.0000134   -0.0000310
h    -4.5310794    2.2754667    1.2271213  0.00    0.0000027    0.0001078    0.0000995
h    -4.6026539    0.0380325    0.3074131  0.00   -0.0000621   -0.0000155   -0.0000273
h    -3.1377665    0.2634679   -0.5024768  0.00   -0.0000411   -0.0000572   -0.0000343
o    -2.2718114    3.7931231   -0.3835563  0.00    0.0007919    0.0019576   -0.0016803
o    -1.7431309    2.5125480    1.5715141  0.00    0.0000088    0.0004302   -0.0001906
h    -2.0665779    1.7255706    2.1171410  0.00   -0.0002347   -0.0006762    0.0004599
    13
 Energy =       0.0657948348
c    -3.9185856    2.0068454    0.3398110  0.00    0.0000581    0.0003282   -0.0000056
c    -2.6018028    2.7770076    0.5011612  0.00   -0.0000275   -0.0001110    0.0000778
c    -4.6785798    2.3702671   -0.9500798  0.00   -0.0001550   -0.0000141   -0.0000371
h    -4.0647311    2.1343258   -1.8477561  0.00    0.0001377   -0.0000502   -0.0002376
h    -4.9028807    3.4605070   -0.9707305  0.00   -0.0000703    0.0002620   -0.0000135
h    -5.6404886    1.8183610   -1.0132082  0.00   -0.0000451   -0.0000209    0.0000068
n    -3.7032783    0.5516902    0.3762902  0.00   -0.0000309   -0.0004386    0.0003959
h    -4.5383888    2.3071252    1.2175108  0.00   -0.0001504    0.0000915    0.0002558
h    -4.6240978    0.0528320    0.3403987  0.00   -0.0000679   -0.0000649    0.0000135
h    -3.1513815    0.2493951   -0.4637461  0.00    0.0002464   -0.0001575   -0.0003529
o    -2.2736189    3.7973825   -0.3852938  0.00    0.0000705    0.0002058   -0.0001974
o    -1.7344650    2.5067173    1.5583259  0.00    0.0000842    0.0000666    0.0000478
h    -2.0604475    1.7236816    2.1072655  0.00   -0.0000497   -0.0000967    0.0000467
    13
 Energy =       0.0657943641
c    -3.9188820    2.0074543    0.3400216  0.00   -0.0000008    0.0000013   -0.0000006
c    -2.6019365    2.7773277    0.5011327  0.00   -0.0000074   -0.0000070    0.0000017
c    -4.6783848    2.3700552   -0.9501021  0.00   -0.0000005   -0.0000003   -0.0000001
h    -4.0644179    2.1335351   -1.8472181  0.00    0.0000001    0.0000001   -0.0000003
h    -4.9024534    3.4600756   -0.9715009  0.00   -0.0000001    0.0000003    0.0000002
h    -5.6403391    1.8183115   -1.0132304  0.00    0.0000000   -0.0000000    0.0000000
n    -3.7042917    0.5525617    0.3774863  0.00    0.0000004   -0.0000008    0.0000003
h    -4.5386441    2.3084825    1.2171305  0.00   -0.0000001   -0.0000001    0.0000005
h    -4.6252879    0.0541094    0.3417891  0.00   -0.0000001   -0.0000001   -0.0000001
h    -3.1525423    0.2495343   -0.4620520  0.00    0.0000003    0.0000002   -0.0000006
o    -2.2764835    3.8012177   -0.3820169  0.00    0.0000013    0.0000126   -0.0000149
o    -1.7320780    2.5038168    1.5553408  0.00    0.0000070   -0.0000039    0.0000114
h    -2.0570052    1.7196559    2.1031682  0.00   -0.0000001   -0.0000023    0.0000024
    13
 Energy =       0.0657943635
c    -3.9189159    2.0074987    0.3400333  0.00   -0.0000000    0.0000000    0.0000000
c    -2.6019767    2.7773819    0.5011662  0.00   -0.0000000   -0.0000000    0.0000000
c    -4.6783404    2.3700195   -0.9501592  0.00   -0.0000000   -0.0000000   -0.0000000
h    -4.0643162    2.1334530   -1.8472229  0.00    0.0000000    0.0000000   -0.0000000
h    -4.9024193    3.4600364   -0.9716347  0.00   -0.0000000    0.0000000    0.0000000
h    -5.6402870    1.8182657   -1.0133157  0.00   -0.0000000    0.0000000   -0.0000000
n    -3.7043443    0.5526051    0.3776021  0.00    0.0000000   -0.0000000    0.0000000
h    -4.5387233    2.3085904    1.2170879  0.00   -0.0000000    0.0000000    0.0000000
h    -4.6253459    0.0541626    0.3419063  0.00    0.0000000   -0.0000000   -0.0000000
h    -3.1525680    0.2495127   -0.4618944  0.00    0.0000000   -0.0000000   -0.0000000
o    -2.2767042    3.8015272   -0.3817361  0.00    0.0000000    0.0000001   -0.0000001
o    -1.7319764    2.5036719    1.5551945  0.00    0.0000000   -0.0000000    0.0000000
h    -2.0568287    1.7194126    2.1029215  0.00   -0.0000000   -0.0000000    0.0000000
