    13
 Energy =       0.2320841688
c    -3.7133889    1.6950595    0.3173519  0.00    0.0153593   -0.0328861   -0.0170002
c    -2.4962693    2.6345192    0.2419999  0.00    0.0616815    0.3513511    0.1036145
c    -4.9565486    2.3924193   -0.2155699  0.00    0.0145781    0.0040668    0.0021204
h    -5.2099685    3.2528291    0.4143399  0.00    0.0028453   -0.0143709   -0.0106430
h    -5.8205883    1.7190695   -0.2147749  0.00    0.0119988    0.0109894   -0.0016551
h    -4.8083986    2.7651692   -1.2348596  0.00   -0.0069420   -0.0018317    0.0184611
n    -3.4097890    0.4519539   -0.4549189  0.00    0.8148567    0.2768405   -0.1070670
h    -3.8575589    1.4177196    1.3669296  0.00    0.0047721   -0.0141487   -0.0292653
h    -3.2072391   -0.2948399    0.2179739  0.00   -0.0091374    0.0396000   -0.0246295
h    -4.2689788    0.1396900   -0.9176007  0.00    0.0276402    0.0242993    0.0261664
o    -2.4571893    3.7760389    0.6681628  0.00   -0.0099427   -0.2739294   -0.1068090
o    -1.4389296    2.0221094   -0.3549299  0.00   -0.0944766   -0.0830123   -0.0029584
h    -1.7862895    1.1491097   -0.6669268  0.00   -0.8332332   -0.2869679    0.1496651
    13
 Energy =       0.1229598761
c    -3.7177440    1.6702118    0.3318039  0.00    0.0203843   -0.0089884   -0.0104824
c    -2.5221652    2.5831147    0.2830707  0.00    0.0133147    0.0324873    0.0154781
c    -4.9804081    2.3675873   -0.2038564  0.00    0.0121682   -0.0055246    0.0034595
h    -5.3391505    3.1294635    0.5433918  0.00   -0.0049405    0.0070018    0.0115298
h    -5.8110602    1.6297288   -0.3735281  0.00   -0.0082442   -0.0113488   -0.0043844
h    -4.7559844    2.8984709   -1.1713960  0.00    0.0049266    0.0088303   -0.0098053
n    -3.4091863    0.4903651   -0.4791140  0.00    0.3465475    0.1683886   -0.0379487
h    -3.8701721    1.3864188    1.3985499  0.00    0.0005036   -0.0028513   -0.0042004
h    -3.1272778   -0.3032601    0.1515925  0.00    0.0024373   -0.0005458   -0.0005835
h    -4.2475107    0.1302199   -0.9951779  0.00    0.0017037    0.0012793    0.0011649
o    -2.6157791    3.8639196    0.7727510  0.00   -0.0216630   -0.0258525   -0.0113715
o    -1.3831145    2.1024018   -0.3560736  0.00   -0.0030042    0.0017080    0.0010479
h    -1.6515836    1.1722055   -0.7348367  0.00   -0.3641340   -0.1645839    0.0460960
    13
 Energy =       0.1139860706
c    -3.6894856    1.6716114    0.3347150  0.00    0.0182519   -0.0100303   -0.0091851
c    -2.5181754    2.6175539    0.2105871  0.00    0.0133605    0.0235764    0.0119096
c    -5.0087018    2.3289802   -0.1211776  0.00    0.0075339   -0.0031676    0.0037710
h    -5.3386865    3.0898847    0.6374325  0.00   -0.0044284    0.0059108    0.0100750
h    -5.8282651    1.5673119   -0.2271598  0.00   -0.0092136   -0.0102200   -0.0036165
h    -4.8615287    2.8535052   -1.1072920  0.00    0.0044777    0.0086423   -0.0108589
n    -3.3969254    0.4910335   -0.4875058  0.00    0.2982365    0.1478066   -0.0313624
h    -3.7638937    1.3933980    1.4145444  0.00    0.0001146   -0.0029959   -0.0004605
h    -3.1910517   -0.3336816    0.1358587  0.00    0.0039496   -0.0042668    0.0025200
h    -4.2116188    0.1944701   -1.0871186  0.00   -0.0053471   -0.0021985   -0.0044318
o    -2.6372174    3.9327869    0.6139978  0.00   -0.0175666   -0.0154291   -0.0081357
o    -1.3700907    2.1324050   -0.4076511  0.00   -0.0020758    0.0029917    0.0014142
h    -1.6154959    1.1815882   -0.7420534  0.00   -0.3072934   -0.1406196    0.0383610
    13
 Energy =       0.1086549971
c    -3.6713433    1.6836905    0.3390426  0.00    0.0158913   -0.0101619   -0.0085008
c    -2.5231281    2.6513579    0.1494511  0.00    0.0127954    0.0177313    0.0101361
c    -5.0241409    2.2923121   -0.0891687  0.00    0.0057634   -0.0020602    0.0034280
h    -5.3539710    3.0578441    0.6627403  0.00   -0.0038910    0.0052524    0.0089193
h    -5.8218848    1.5040132   -0.1572174  0.00   -0.0091635   -0.0097627   -0.0031833
h    -4.9214680    2.8025821   -1.0875155  0.00    0.0039766    0.0082032   -0.0105283
n    -3.3768650    0.4792547   -0.4512341  0.00    0.2730340    0.1395178   -0.0281363
h    -3.6993453    1.4415231    1.4312125  0.00    0.0001320   -0.0028958    0.0014012
h    -3.2864989   -0.3588350    0.1901749  0.00    0.0054840   -0.0117989    0.0092789
h    -4.1419333    0.2434183   -1.1478408  0.00   -0.0140979   -0.0035940   -0.0119537
o    -2.6738491    3.9952690    0.4552447  0.00   -0.0158615   -0.0064784   -0.0057108
o    -1.3583864    2.1520002   -0.4256792  0.00   -0.0007877    0.0044654    0.0017340
h    -1.5783223    1.1764173   -0.7020333  0.00   -0.2732749   -0.1284182    0.0331156
    13
 Energy =       0.0987762095
c    -3.6886064    1.6760828    0.3331199  0.00    0.0131550   -0.0097494   -0.0072456
c    -2.5107596    2.6215708    0.1947552  0.00    0.0107252    0.0068289    0.0050716
c    -5.0095712    2.3259175   -0.1320473  0.00    0.0037608   -0.0014359    0.0025381
h    -5.3222766    3.1210871    0.5941693  0.00   -0.0035918    0.0047578    0.0075046
h    -5.8327969    1.5664532   -0.1900353  0.00   -0.0077224   -0.0082809   -0.0023444
h    -4.8752321    2.8045361   -1.1400800  0.00    0.0033307    0.0070774   -0.0090989
n    -3.4054229    0.4676843   -0.4585653  0.00    0.2213852    0.1125552   -0.0225829
h    -3.7608286    1.4267114    1.4222811  0.00    0.0001240   -0.0027040    0.0020102
h    -3.2961705   -0.3638443    0.1854790  0.00    0.0043075   -0.0095537    0.0075499
h    -4.1861457    0.2207337   -1.1303688  0.00   -0.0114873   -0.0031689   -0.0101017
o    -2.6109964    3.9452606    0.6139978  0.00   -0.0124596    0.0041615   -0.0015440
o    -1.3537250    2.1333836   -0.4046085  0.00   -0.0001872    0.0044142    0.0017026
h    -1.5786048    1.1752707   -0.7209198  0.00   -0.2213401   -0.1049022    0.0265405
    13
 Energy =       0.0859087253
c    -3.7162576    1.6733965    0.3260202  0.00    0.0094094   -0.0088791   -0.0054664
c    -2.4985771    2.5832877    0.2494436  0.00    0.0077201   -0.0019023   -0.0005782
c    -4.9854838    2.3723637   -0.2099179  0.00    0.0006762   -0.0006045    0.0018823
h    -5.2714856    3.2236367    0.4613537  0.00   -0.0038283    0.0053666    0.0063699
h    -5.8464555    1.6582049   -0.2435309  0.00   -0.0061288   -0.0065412   -0.0009038
h    -4.8024575    2.7824993   -1.2390260  0.00    0.0028377    0.0061601   -0.0086530
n    -3.4469777    0.4442861   -0.4435181  0.00    0.1545201    0.0782563   -0.0149469
h    -3.8583814    1.4365045    1.4125540  0.00   -0.0002297   -0.0025824    0.0035378
h    -3.2863083   -0.3607867    0.2212396  0.00    0.0029229   -0.0082341    0.0066812
h    -4.2604905    0.1547705   -1.0555142  0.00   -0.0102729   -0.0041554   -0.0098657
o    -2.5465714    3.8763497    0.7727510  0.00   -0.0068722    0.0109130    0.0021336
o    -1.3438816    2.1058556   -0.3617391  0.00    0.0003174    0.0042423    0.0017506
h    -1.5678085    1.1704789   -0.7229387  0.00   -0.1510719   -0.0720395    0.0180586
    13
 Energy =       0.0767455844
c    -3.7498301    1.6713604    0.3187021  0.00    0.0072648   -0.0096172   -0.0040202
c    -2.4909807    2.5363396    0.3164632  0.00    0.0067916   -0.0048327   -0.0031685
c    -4.9505566    2.4255004   -0.2987720  0.00   -0.0019751    0.0014020    0.0013684
h    -5.2038418    3.3279390    0.3161066  0.00   -0.0040772    0.0058972    0.0052928
h    -5.8553415    1.7693363   -0.3253180  0.00   -0.0059110   -0.0053289    0.0002631
h    -4.7072193    2.7652656   -1.3406581  0.00    0.0028268    0.0055475   -0.0088778
n    -3.5000391    0.4251044   -0.4313979  0.00    0.1153008    0.0645123   -0.0109920
h    -3.9736024    1.4464007    1.3956625  0.00   -0.0009517   -0.0027679    0.0052741
h    -3.2240890   -0.3402123    0.2498188  0.00    0.0050377   -0.0130852    0.0125508
h    -4.3737780    0.0652135   -0.9233892  0.00   -0.0202638   -0.0095992   -0.0152524
o    -2.4974020    3.7907367    0.9315041  0.00   -0.0031952    0.0133055    0.0040285
o    -1.3392636    2.0715231   -0.3103112  0.00    0.0008398    0.0052014    0.0022254
h    -1.5651925    1.1663400   -0.7312336  0.00   -0.1016876   -0.0506347    0.0113079
    13
 Energy =       0.0670824197
c    -3.7829361    1.6712198    0.3116944  0.00    0.0039797   -0.0071110   -0.0017114
c    -2.4781303    2.4721695    0.3818757  0.00    0.0046557   -0.0053365   -0.0045463
c    -4.8985126    2.4852851   -0.3806462  0.00   -0.0024003    0.0020005    0.0005881
h    -5.0932974    3.4399091    0.1716801  0.00   -0.0035032    0.0058822    0.0035635
h    -5.8515192    1.9040511   -0.3980627  0.00   -0.0050285   -0.0038031    0.0009685
h    -4.6018237    2.7381242   -1.4308235  0.00    0.0025688    0.0037156   -0.0070375
n    -3.5828237    0.4001860   -0.4124047  0.00    0.0594038    0.0307324   -0.0048483
h    -4.0836192    1.4726173    1.3743745  0.00   -0.0012181   -0.0026781    0.0045036
h    -3.2524219   -0.3331918    0.2702804  0.00    0.0020407   -0.0059867    0.0064813
h    -4.4905794    0.0232381   -0.8071816  0.00   -0.0123833   -0.0072119   -0.0095417
o    -2.4396401    3.6746938    1.0902572  0.00    0.0001826    0.0117435    0.0046229
o    -1.3287372    2.0207274   -0.2606507  0.00    0.0009358    0.0043932    0.0020348
h    -1.5470956    1.1518178   -0.7432158  0.00   -0.0492336   -0.0263403    0.0049225
    13
 Energy =       0.0628867025
c    -3.8147728    1.6810267    0.3052802  0.00    0.0018937   -0.0056282    0.0004758
c    -2.4567878    2.3899336    0.4320527  0.00    0.0049935   -0.0040049   -0.0042346
c    -4.8310934    2.5615249   -0.4555455  0.00   -0.0024059    0.0046366   -0.0001281
h    -4.9615728    3.5500521    0.0523193  0.00   -0.0030546    0.0056553    0.0023231
h    -5.8299235    2.0628042   -0.4886167  0.00   -0.0060710   -0.0032739    0.0011104
h    -4.4788967    2.7442234   -1.5019394  0.00    0.0026108    0.0028748   -0.0061692
n    -3.6909524    0.3829221   -0.3875120  0.00    0.0376053    0.0162209   -0.0029715
h    -4.1829081    1.5249274    1.3538407  0.00   -0.0019711   -0.0030475    0.0043775
h    -3.3122536   -0.3266741    0.2922479  0.00    0.0015951   -0.0033154    0.0048432
h    -4.6392456    0.0094122   -0.6757339  0.00   -0.0133063   -0.0081356   -0.0074811
o    -2.3604462    3.5507713    1.1993526  0.00    0.0014280    0.0095251    0.0042172
o    -1.3188093    1.9119611   -0.2148896  0.00    0.0019473    0.0042804    0.0019664
h    -1.5534742    1.0779624   -0.7436791  0.00   -0.0252648   -0.0157877    0.0016709
    13
 Energy =       0.0617526635
c    -3.8380146    1.6628978    0.2898632  0.00   -0.0014857   -0.0037037    0.0000809
c    -2.5083965    2.4056212    0.5281212  0.00    0.0027102   -0.0043657   -0.0036073
c    -4.8247840    2.5370652   -0.5114958  0.00   -0.0021038    0.0031516   -0.0002829
h    -4.9857437    3.5206919   -0.0049994  0.00   -0.0023482    0.0045546    0.0021242
h    -5.8159014    2.0299597   -0.5936019  0.00   -0.0056443   -0.0028048    0.0007209
h    -4.4277133    2.7257216   -1.5399442  0.00    0.0022532    0.0021935   -0.0056949
n    -3.6441730    0.3872210   -0.4325971  0.00    0.0284056    0.0096062   -0.0052176
h    -4.2691460    1.4704726    1.3097275  0.00   -0.0027326   -0.0022493    0.0060021
h    -3.2417274   -0.3203889    0.2344891  0.00    0.0013078   -0.0032556    0.0037996
h    -4.5745945   -0.0175868   -0.7299983  0.00   -0.0109589   -0.0064549   -0.0056748
o    -2.4928189    3.5297556    1.3581057  0.00    0.0018395    0.0131064    0.0073651
o    -1.3173900    2.0014815   -0.0787643  0.00    0.0079905    0.0062591    0.0021375
h    -1.4907333    1.1879351   -0.6617284  0.00   -0.0192331   -0.0160373   -0.0017529
    13
 Energy =       0.0612541092
c    -3.8628573    1.6648573    0.2678012  0.00   -0.0024682   -0.0039666    0.0002985
c    -2.5234611    2.3588616    0.5953923  0.00   -0.0008468   -0.0010374   -0.0004411
c    -4.7779444    2.5862398   -0.5649781  0.00   -0.0020562    0.0038822   -0.0007188
h    -4.9206489    3.5696591   -0.0557142  0.00   -0.0017447    0.0033901    0.0013776
h    -5.7835552    2.1195436   -0.6960232  0.00   -0.0057246   -0.0027258    0.0003841
h    -4.3306770    2.7681171   -1.5732284  0.00    0.0019556    0.0020246   -0.0052478
n    -3.6824088    0.3980705   -0.4709786  0.00    0.0182954    0.0069565   -0.0046013
h    -4.3517218    1.4675660    1.2601592  0.00   -0.0025517   -0.0024391    0.0058418
h    -3.3065980   -0.3279173    0.1911164  0.00    0.0011716   -0.0028997    0.0032454
h    -4.6162082    0.0187304   -0.7834775  0.00   -0.0080964   -0.0049058   -0.0040373
o    -2.5284802    3.4774148    1.4288450  0.00    0.0015864    0.0092619    0.0051785
o    -1.3001926    1.9145470    0.0799888  0.00    0.0127456    0.0038621   -0.0000384
h    -1.4463830    1.1051574   -0.5117259  0.00   -0.0122660   -0.0114028   -0.0012414
    13
 Energy =       0.0605217106
c    -3.8561455    1.6656384    0.2892878  0.00   -0.0031344   -0.0030320    0.0014979
c    -2.5205311    2.3877301    0.5666721  0.00   -0.0060407    0.0010610    0.0027037
c    -4.7940717    2.5442423   -0.5644689  0.00   -0.0020689    0.0041201   -0.0012104
h    -4.9474320    3.5413255   -0.0847491  0.00   -0.0016545    0.0038507    0.0015891
h    -5.7932042    2.0570229   -0.6713763  0.00   -0.0060216   -0.0029318    0.0002524
h    -4.3596739    2.7012388   -1.5827392  0.00    0.0019437    0.0021406   -0.0055818
n    -3.6697717    0.3734149   -0.4034212  0.00    0.0168990    0.0076357   -0.0064047
h    -4.3270834    1.4989315    1.2964727  0.00   -0.0025960   -0.0026206    0.0064367
h    -3.2494668   -0.3157977    0.2737523  0.00    0.0022620   -0.0046835    0.0052065
h    -4.6051119   -0.0400885   -0.6692828  0.00   -0.0101583   -0.0062163   -0.0047222
o    -2.5119862    3.4778751    1.4378294  0.00    0.0004727    0.0100719    0.0060803
o    -1.3171633    2.0077656   -0.0503205  0.00    0.0200890    0.0021533   -0.0032762
h    -1.4794948    1.2215483   -0.6704790  0.00   -0.0099920   -0.0115489   -0.0025714
    13
 Energy =       0.0591680555
c    -3.8607990    1.6710889    0.3090117  0.00   -0.0008543    0.0005508    0.0026977
c    -2.5328007    2.4030643    0.5665109  0.00   -0.0091471    0.0013255    0.0045479
c    -4.7772743    2.5015701   -0.6090443  0.00   -0.0023915    0.0024888   -0.0011399
h    -4.9377636    3.5227522   -0.1859710  0.00   -0.0012136    0.0037356    0.0016658
h    -5.7719253    2.0106930   -0.7120127  0.00   -0.0033402   -0.0015119    0.0000556
h    -4.3234015    2.6014198   -1.6248391  0.00    0.0015258    0.0014801   -0.0047128
n    -3.6673836    0.3411414   -0.3061220  0.00    0.0098389    0.0041763   -0.0067794
h    -4.3484877    1.5629180    1.3147591  0.00   -0.0018060   -0.0015556    0.0052677
h    -3.2031495   -0.2946515    0.3951259  0.00    0.0030243   -0.0051804    0.0058215
h    -4.6015912   -0.1055909   -0.5105297  0.00   -0.0085963   -0.0058079   -0.0037382
o    -2.5071144    3.4369993    1.5025749  0.00   -0.0016589    0.0088479    0.0063991
o    -1.3611261    2.1046627   -0.1503727  0.00    0.0187652    0.0001470   -0.0050526
h    -1.5383194    1.3647800   -0.8219137  0.00   -0.0041463   -0.0086961   -0.0050324
    13
 Energy =       0.0580269774
c    -3.8811646    1.6813879    0.3153911  0.00    0.0027365    0.0005777    0.0007574
c    -2.5548240    2.3926067    0.6038510  0.00   -0.0017727   -0.0031366   -0.0012204
c    -4.7247787    2.4756691   -0.6945486  0.00   -0.0032667    0.0009793   -0.0000684
h    -4.8772600    3.5238948   -0.3447241  0.00   -0.0010109    0.0025499    0.0009176
h    -5.7234863    2.0052129   -0.8187233  0.00   -0.0004695    0.0001967    0.0001679
h    -4.2198131    2.4966720   -1.6897700  0.00    0.0016765    0.0004186   -0.0038517
n    -3.6889036    0.3192717   -0.2169907  0.00    0.0032059   -0.0000289   -0.0027132
h    -4.4243484    1.6397265    1.2955896  0.00   -0.0014504   -0.0003134    0.0033667
h    -3.1936305   -0.2641019    0.5036502  0.00    0.0011159   -0.0018245    0.0020114
h    -4.6228144   -0.1432159   -0.3541596  0.00   -0.0025576   -0.0023385   -0.0009729
o    -2.5063796    3.3416526    1.6230583  0.00   -0.0011912    0.0063897    0.0056205
o    -1.4143565    2.1727203   -0.1715731  0.00    0.0030798   -0.0012964   -0.0019588
h    -1.5993767    1.4793507   -0.8838736  0.00   -0.0000956   -0.0021737   -0.0020562
    13
 Energy =       0.0577662982
c    -3.8896845    1.6885941    0.3202564  0.00   -0.0003303    0.0006181    0.0005932
c    -2.5670340    2.4038269    0.6114146  0.00   -0.0011355   -0.0010988    0.0000796
c    -4.7040762    2.4400914   -0.7379287  0.00    0.0002732   -0.0004682   -0.0001913
h    -4.8532335    3.5022010   -0.4402715  0.00    0.0000721    0.0002504    0.0001559
h    -5.7022916    1.9694256   -0.8628110  0.00    0.0001459   -0.0000398   -0.0000661
h    -4.1816210    2.4117607   -1.7190802  0.00   -0.0001558    0.0000448    0.0002104
n    -3.6912550    0.3097232   -0.1562275  0.00   -0.0001723    0.0001079   -0.0006485
h    -4.4549859    1.6858551    1.2847064  0.00    0.0002569    0.0000433   -0.0002631
h    -3.1736103   -0.2359799    0.5761173  0.00    0.0002564   -0.0002219    0.0003450
h    -4.6223841   -0.1650497   -0.2497787  0.00   -0.0002821   -0.0001884    0.0000318
o    -2.4969609    3.2818286    1.6863120  0.00   -0.0006577    0.0012396    0.0014255
o    -1.4509607    2.2524652   -0.2107779  0.00    0.0017483   -0.0007514   -0.0021729
h    -1.6430388    1.5761053   -0.9347540  0.00   -0.0000189    0.0004644    0.0005006
    13
 Energy =       0.0577610905
c    -3.8908195    1.6907650    0.3198883  0.00    0.0000022    0.0000163    0.0000158
c    -2.5684307    2.4062097    0.6123443  0.00   -0.0000003   -0.0000090    0.0000070
c    -4.7014902    2.4375082   -0.7449905  0.00   -0.0000179   -0.0000066   -0.0000020
h    -4.8485113    3.5018797   -0.4553422  0.00   -0.0000072    0.0000335    0.0000082
h    -5.7010600    1.9689618   -0.8679137  0.00   -0.0000037   -0.0000037    0.0000022
h    -4.1772736    2.4006974   -1.7252288  0.00    0.0000163   -0.0000015   -0.0000323
n    -3.6911118    0.3095154   -0.1485673  0.00    0.0000008   -0.0000034   -0.0000529
h    -4.4599381    1.6931275    1.2825087  0.00   -0.0000108    0.0000036    0.0000187
h    -3.1793303   -0.2333533    0.5896287  0.00    0.0000339   -0.0000341    0.0000396
h    -4.6220663   -0.1642930   -0.2465227  0.00   -0.0000183   -0.0000015    0.0000007
o    -2.4971320    3.2817571    1.6877721  0.00    0.0000013    0.0000045    0.0000004
o    -1.4520285    2.2534491   -0.2068012  0.00    0.0000028    0.0000098    0.0000011
h    -1.6419442    1.5746230   -0.9295985  0.00    0.0000008   -0.0000080   -0.0000063
    13
 Energy =       0.0577610861
c    -3.8908042    1.6907683    0.3198815  0.00   -0.0000000   -0.0000000    0.0000000
c    -2.5684217    2.4062273    0.6123278  0.00   -0.0000000   -0.0000000    0.0000000
c    -4.7014875    2.4374798   -0.7449726  0.00    0.0000000   -0.0000000   -0.0000000
h    -4.8484884    3.5018243   -0.4553407  0.00    0.0000000    0.0000000   -0.0000000
h    -5.7010601    1.9689466   -0.8678856  0.00    0.0000000   -0.0000000   -0.0000000
h    -4.1772995    2.4006678   -1.7251878  0.00    0.0000000   -0.0000000   -0.0000000
n    -3.6910949    0.3095346   -0.1485476  0.00   -0.0000000    0.0000000   -0.0000000
h    -4.4599071    1.6931264    1.2824886  0.00   -0.0000000   -0.0000000   -0.0000000
h    -3.1794619   -0.2333259    0.5897057  0.00    0.0000000   -0.0000000    0.0000000
h    -4.6220286   -0.1642647   -0.2466433  0.00   -0.0000000   -0.0000000    0.0000000
o    -2.4971212    3.2817538    1.6877702  0.00   -0.0000000    0.0000000    0.0000000
o    -1.4520136    2.2534508   -0.2068016  0.00    0.0000000    0.0000000    0.0000000
h    -1.6419477    1.5746582   -0.9296173  0.00   -0.0000000   -0.0000000   -0.0000000
