    27
 Energy =       0.8888657756
c    -1.4235396    2.6054793   -0.0667700  0.00   -0.0462996    0.0383762    0.0027402
c    -1.3072796    1.2134697   -0.1072300  0.00   -0.0853363   -0.0325728    0.0019984
c    -0.0178900    0.6711998   -0.1697000  0.00   -0.0888748   -0.1878520   -0.0010529
c    -0.2940599    3.4190890   -0.0891300  0.00   -0.0230809    0.0691646    0.0029260
c     0.9872197    2.8590292   -0.1560400  0.00    0.0107162    0.0642529    0.0010338
c     1.1340797    1.4562096   -0.1970299  0.00    0.0527916    0.0517029    0.0021460
n     0.3879399   -0.6395298   -0.2140799  0.00    0.1447811    0.1093063   -0.0038934
c     2.2666594    0.5727398   -0.2659299  0.00    0.1388602   -0.0559912   -0.0193440
c     1.7555995   -0.7123598   -0.2706899  0.00   -0.0964273   -0.0971929    0.0047919
h    -0.2400399   -1.4313496   -0.2047299  0.00    0.0367233    0.0479477   -0.0003633
c     3.7030089    1.0223397   -0.3320099  0.00    1.2344740    1.0160724    0.0476254
c     4.7465686   -0.0024900    0.1378100  0.00   -0.1018543    0.1648218    0.0030618
h     3.7978489    1.9290294    0.2803699  0.00    2.5761617    0.4368427   -1.1910333
h     3.9233889    1.3348996   -1.3618196  0.00    0.1112473    0.0838188    0.1214631
c     6.0911583    0.7171698    0.3515799  0.00    0.3381732   -0.1471151    0.0841383
n     4.9813086   -1.1161597   -0.8485798  0.00    0.0849674   -0.0803604   -0.0237099
h     4.4627987   -0.4486599    1.0982597  0.00    0.0093501   -0.0111108   -0.0268188
h     5.9519483   -1.0348997   -1.1684897  0.00   -0.0319572    0.0268405    0.0464096
h     4.9673786   -2.0001494   -0.3277699  0.00    0.0014746    0.0355885   -0.0113094
h    -2.4108593    3.0588691   -0.0157800  0.00   -0.0007447    0.0002115    0.0000405
h    -2.1896094    0.5822398   -0.0890100  0.00   -0.0036078    0.0037999    0.0000877
h    -0.4052699    4.5000487   -0.0535400  0.00    0.0008561    0.0000509    0.0002742
h     1.8590495    3.5066790   -0.1715100  0.00   -0.0010415    0.0026311    0.0006069
h     2.2327294   -1.6813195   -0.3062999  0.00   -0.0418659   -0.0117856    0.0036105
o     7.1078880    0.2061599    0.7909508  0.00   -0.2418811    0.1241864   -0.1072222
o     6.0134283    2.0241194   -0.0177607  0.00   -0.1383795   -0.0533581   -0.0169142
h     5.0733186    2.1528494   -0.3079899  0.00   -3.8392259   -1.5982762    1.0787069
    27
 Energy =       0.8277387677
c    -1.4115149    2.6087238   -0.0082366  0.00   -0.0425701    0.0353003    0.0025097
c    -1.2969974    1.2196471   -0.0536812  0.00   -0.0784967   -0.0299970    0.0018267
c    -0.0125609    0.6767179   -0.1162339  0.00   -0.0817463   -0.1723367   -0.0007980
c    -0.2822262    3.4190693   -0.0292300  0.00   -0.0212479    0.0636145    0.0026745
c     0.9950323    2.8575289   -0.0993105  0.00    0.0098505    0.0591174    0.0009291
c     1.1356831    1.4586691   -0.1429454  0.00    0.0483955    0.0476440    0.0019203
n     0.3844157   -0.6393387   -0.1864607  0.00    0.1332109    0.1001209   -0.0037374
c     2.2634002    0.5820825   -0.2258047  0.00    0.1271847   -0.0514240   -0.0178619
c     1.7571098   -0.7017987   -0.2457781  0.00   -0.0889124   -0.0889463    0.0045045
h    -0.2446710   -1.4339957   -0.1872486  0.00    0.0337440    0.0440330   -0.0003862
c     3.6998477    1.0308507   -0.3287725  0.00    1.1368854    0.9384800    0.0470539
c     4.7469316   -0.0106404    0.0880897  0.00   -0.0932993    0.1535213    0.0042142
h     3.8056768    1.9089399    0.2266011  0.00    2.3698019    0.3981405   -1.0985303
h     3.8710977    1.3622664   -1.3591349  0.00    0.1007872    0.0771111    0.1102600
c     6.0896655    0.6959605    0.3153655  0.00    0.3107914   -0.1347150    0.0776949
n     4.9582794   -1.0783281   -0.9505488  0.00    0.0783971   -0.0721072   -0.0257343
h     4.4785041   -0.4972780    1.0369563  0.00    0.0085063   -0.0104870   -0.0235424
h     5.9302824   -1.0044048   -1.2748401  0.00   -0.0293186    0.0245026    0.0425289
h     4.9088208   -1.9966509   -0.4865230  0.00    0.0012531    0.0284773   -0.0087164
h    -2.3981653    3.0634440    0.0432573  0.00   -0.0006868    0.0001941    0.0000369
h    -2.1797346    0.5888258   -0.0422728  0.00   -0.0033345    0.0034757    0.0000744
h    -0.3914492    4.5001954    0.0084265  0.00    0.0007852    0.0000511    0.0002514
h     1.8687873    3.5025052   -0.1168714  0.00   -0.0009641    0.0024305    0.0005519
h     2.2464102   -1.6633005   -0.3153197  0.00   -0.0381959   -0.0114214    0.0032620
o     7.1020072    0.1515041    0.7633811  0.00   -0.2222092    0.1135897   -0.0983689
o     6.0358792    2.0076513   -0.0499612  0.00   -0.1268635   -0.0488919   -0.0155246
h     5.0942604    2.1558565   -0.3458218  0.00   -3.5317479   -1.4694774    0.9929072
    27
 Energy =       0.6830210036
c    -1.3861891    2.5933541   -0.0164006  0.00   -0.0318595    0.0264565    0.0018666
c    -1.2732007    1.2123361   -0.0633036  0.00   -0.0590227   -0.0225643    0.0013705
c    -0.0015372    0.6701827   -0.1267748  0.00   -0.0612096   -0.1297375   -0.0006063
c    -0.2592737    3.3969917   -0.0368625  0.00   -0.0160504    0.0477518    0.0019968
c     1.0080461    2.8337391   -0.1069512  0.00    0.0074931    0.0444902    0.0006773
c     1.1343602    1.4462331   -0.1515824  0.00    0.0360741    0.0360915    0.0014339
n     0.3773866   -0.6617130   -0.1995749  0.00    0.0996139    0.0750136   -0.0026596
c     2.2509648    0.5913059   -0.2342518  0.00    0.0960466   -0.0384664   -0.0134826
c     1.7646303   -0.6910803   -0.2654226  0.00   -0.0672771   -0.0661033    0.0034792
h    -0.2508666   -1.4671849   -0.2002371  0.00    0.0254751    0.0330952   -0.0002827
c     3.6895870    1.0424371   -0.3326969  0.00    0.8895919    0.7336062    0.0368647
c     4.7215491   -0.0045348    0.0962768  0.00   -0.0713255    0.1174667    0.0035548
h     3.7984025    1.9363366    0.2254152  0.00    1.8572401    0.3130318   -0.8583824
h     3.8805751    1.3330588   -1.3743548  0.00    0.0794177    0.0586483    0.0850280
c     6.0378978    0.7066578    0.4055797  0.00    0.2324487   -0.1004662    0.0591907
n     4.9578947   -1.0196440   -0.9821086  0.00    0.0583891   -0.0519143   -0.0238133
h     4.4140307   -0.5232628    1.0228328  0.00    0.0056824   -0.0086371   -0.0164840
h     5.9457429   -0.9481316   -1.2802292  0.00   -0.0210012    0.0190229    0.0318077
h     4.8659580   -1.9688177   -0.5748809  0.00    0.0000291    0.0171216   -0.0047505
h    -2.3719084    3.0497957    0.0358138  0.00   -0.0005188    0.0001435    0.0000270
h    -2.1550361    0.5803861   -0.0524786  0.00   -0.0024995    0.0026107    0.0000539
h    -0.3653169    4.4784925    0.0014157  0.00    0.0005849    0.0000419    0.0001885
h     1.8859050    3.4730320   -0.1247690  0.00   -0.0006479    0.0017693    0.0004232
h     2.2951781   -1.6303929   -0.3478138  0.00   -0.0280086   -0.0091472    0.0024071
o     7.0639291    0.0988620    0.8516641  0.00   -0.1666954    0.0824578   -0.0747627
o     6.0156678    2.0462409    0.1087919  0.00   -0.0713980   -0.0332130    0.0044477
h     5.1103949    2.1900227   -0.3600152  0.00   -2.7905724   -1.1485702    0.7604066
    27
 Energy =       0.6201353586
c    -1.3591182    2.6286176   -0.0388733  0.00   -0.0276972    0.0229090    0.0016222
c    -1.2581254    1.2499348   -0.0812188  0.00   -0.0512359   -0.0196526    0.0011785
c     0.0036638    0.6975032   -0.1461683  0.00   -0.0529296   -0.1123594   -0.0006546
c    -0.2263249    3.4199004   -0.0641255  0.00   -0.0139820    0.0414582    0.0017508
c     1.0324408    2.8449346   -0.1346507  0.00    0.0065006    0.0386659    0.0006071
c     1.1415200    1.4606727   -0.1753483  0.00    0.0312808    0.0313142    0.0012479
n     0.3619839   -0.6441202   -0.2066993  0.00    0.0864224    0.0648340   -0.0021417
c     2.2457634    0.6029147   -0.2545781  0.00    0.0832562   -0.0333451   -0.0116349
c     1.7543459   -0.6748606   -0.2818692  0.00   -0.0582469   -0.0573834    0.0029099
h    -0.2755706   -1.4464437   -0.1976327  0.00    0.0219801    0.0286132   -0.0001959
c     3.6914817    1.0377290   -0.3472763  0.00    0.7787383    0.6445810    0.0318065
c     4.6997849   -0.0122272    0.1319073  0.00   -0.0624616    0.1047546    0.0050915
h     3.8113956    1.9241432    0.2198096  0.00    1.6275146    0.2732842   -0.7515889
h     3.9081831    1.2992157   -1.3941627  0.00    0.0697476    0.0513867    0.0736580
c     6.0377067    0.6807299    0.3885937  0.00    0.2019333   -0.0860444    0.0515236
n     4.8871139   -1.0941974   -0.8899557  0.00    0.0493237   -0.0459761   -0.0258406
h     4.3843745   -0.4613985    1.0954736  0.00    0.0039257   -0.0084734   -0.0116919
h     5.8686155   -1.0676586   -1.2239590  0.00   -0.0159088    0.0162321    0.0263608
h     4.7913025   -2.0161270   -0.4161278  0.00   -0.0006924    0.0111132   -0.0021829
h    -2.3405395    3.0941358    0.0143929  0.00   -0.0005024    0.0001397    0.0000257
h    -2.1447438    0.6247527   -0.0643995  0.00   -0.0022075    0.0022196    0.0000494
h    -0.3218751    4.5025774   -0.0291542  0.00    0.0004959    0.0001011    0.0001668
h     1.9173762    3.4743457   -0.1562029  0.00   -0.0005023    0.0015881    0.0003665
h     2.2897885   -1.6119209   -0.3615206  0.00   -0.0239760   -0.0079045    0.0020695
o     7.0645832    0.0487800    0.8438005  0.00   -0.1445338    0.0711019   -0.0645708
o     6.0542441    2.0150651    0.0582505  0.00   -0.0596285   -0.0272007    0.0042847
h     5.1354013    2.1877046   -0.3712238  0.00   -2.4466143   -1.0059570    0.6657827
    27
 Energy =       0.4819305880
c    -1.3107783    2.6675871   -0.0254646  0.00   -0.0169294    0.0136370    0.0009475
c    -1.2298168    1.2958588   -0.0649160  0.00   -0.0311559   -0.0121333    0.0006188
c     0.0111730    0.7271315   -0.1338151  0.00   -0.0314998   -0.0680044   -0.0006129
c    -0.1695682    3.4361232   -0.0583179  0.00   -0.0087761    0.0251801    0.0010892
c     1.0709723    2.8416556   -0.1330581  0.00    0.0039883    0.0236771    0.0004056
c     1.1471766    1.4670981   -0.1695399  0.00    0.0188154    0.0190224    0.0007619
n     0.3302738   -0.6346766   -0.1952069  0.00    0.0523716    0.0387955   -0.0009319
c     2.2280198    0.6147804   -0.2539650  0.00    0.0506876   -0.0200306   -0.0068671
c     1.7366102   -0.6549283   -0.2863274  0.00   -0.0353463   -0.0346588    0.0015798
h    -0.3215000   -1.4362205   -0.1793752  0.00    0.0131679    0.0173465   -0.0000320
c     3.6810160    1.0350317   -0.3647160  0.00    0.5287817    0.4402943    0.0197199
c     4.6800570   -0.0232905    0.1332701  0.00   -0.0393492    0.0677894    0.0041056
h     3.8176581    1.9229068    0.2073761  0.00    1.1041093    0.1837617   -0.5098842
h     3.8977035    1.2809878   -1.4184314  0.00    0.0473231    0.0348845    0.0496725
c     6.0358094    0.6483032    0.3344789  0.00    0.1228582   -0.0514077    0.0314215
n     4.7913337   -1.1425716   -0.8500865  0.00    0.0244167   -0.0269087   -0.0179342
h     4.3744097   -0.4129717    1.1303858  0.00    0.0017087   -0.0054705   -0.0050864
h     5.7732233   -1.2073525   -1.2038691  0.00   -0.0036913    0.0086083    0.0138773
h     4.6325494   -2.0466499   -0.3486553  0.00   -0.0019463    0.0029465    0.0000801
h    -2.2846412    3.1484285    0.0309608  0.00   -0.0004628    0.0001227    0.0000203
h    -2.1239314    0.6815326   -0.0430101  0.00   -0.0014071    0.0012398    0.0000250
h    -0.2466965    4.5206046   -0.0269377  0.00    0.0002574    0.0002495    0.0001094
h     1.9678942    3.4536681   -0.1632159  0.00   -0.0000435    0.0010529    0.0002290
h     2.2917563   -1.5791457   -0.3861961  0.00   -0.0129573   -0.0050566    0.0011444
o     7.0787037   -0.0252680    0.8069378  0.00   -0.0879502    0.0419207   -0.0389301
o     6.1138092    1.9788289   -0.0259120  0.00   -0.0313416   -0.0150455    0.0035191
h     5.1815551    2.2072515   -0.3953117  0.00   -1.6656289   -0.6818131    0.4509516
    27
 Energy =       0.4190604674
c    -1.2781632    2.7085501   -0.0002268  0.00   -0.0126894    0.0100393    0.0006832
c    -1.2174006    1.3391437   -0.0425036  0.00   -0.0231168   -0.0090894    0.0004300
c     0.0099902    0.7531378   -0.1168990  0.00   -0.0231023   -0.0500421   -0.0004085
c    -0.1269904    3.4576780   -0.0369559  0.00   -0.0065999    0.0187369    0.0007937
c     1.1005166    2.8445709   -0.1177730  0.00    0.0030548    0.0176098    0.0002881
c     1.1517125    1.4733805   -0.1557598  0.00    0.0139298    0.0140090    0.0005451
n     0.3006072   -0.6186001   -0.1892525  0.00    0.0387110    0.0283454   -0.0006969
c     2.2158456    0.6140505   -0.2495134  0.00    0.0374673   -0.0146565   -0.0049830
c     1.7123580   -0.6476145   -0.2891452  0.00   -0.0259648   -0.0256647    0.0011774
h    -0.3648347   -1.4134067   -0.1744332  0.00    0.0095440    0.0126971   -0.0000261
c     3.6736198    1.0203063   -0.3772521  0.00    0.4077264    0.3396003    0.0145408
c     4.6780403   -0.0435804    0.1118926  0.00   -0.0285317    0.0505894    0.0029582
h     3.8206876    1.9124276    0.1990925  0.00    0.8509939    0.1420055   -0.3928325
h     3.8806563    1.2675975   -1.4343081  0.00    0.0363982    0.0269973    0.0381486
c     6.0384380    0.6230074    0.2995044  0.00    0.0905550   -0.0372886    0.0237910
n     4.7657621   -1.1626401   -0.8695825  0.00    0.0070117   -0.0059386   -0.0171883
h     4.3829627   -0.4246078    1.1163729  0.00    0.0012253   -0.0037894   -0.0034135
h     5.7741184   -1.3320422   -1.1353760  0.00    0.0121989    0.0041796    0.0066015
h     4.4737962   -2.0566657   -0.3920778  0.00   -0.0069953   -0.0102025    0.0069631
h    -2.2444368    3.2040822    0.0605180  0.00   -0.0004850    0.0001490    0.0000217
h    -2.1199770    0.7372354   -0.0196465  0.00   -0.0011338    0.0008293    0.0000164
h    -0.1868761    4.5433452   -0.0045054  0.00    0.0001659    0.0003437    0.0000853
h     2.0068762    3.4422507   -0.1529028  0.00    0.0001307    0.0008483    0.0001681
h     2.2628508   -1.5714166   -0.4090844  0.00   -0.0084478   -0.0041866    0.0008275
o     7.0926825   -0.0692982    0.7652055  0.00   -0.0647439    0.0306221   -0.0289418
o     6.1397738    1.9550936   -0.0561498  0.00   -0.0228151   -0.0110834    0.0027200
h     5.2121558    2.2087178   -0.4121566  0.00   -1.2844867   -0.5256601    0.3477308
    27
 Energy =       0.3500698243
c    -1.2659644    2.7089786    0.0399186  0.00   -0.0078724    0.0060354    0.0003906
c    -1.2109862    1.3423669    0.0092165  0.00   -0.0142130   -0.0056466    0.0001430
c     0.0079797    0.7517056   -0.0748750  0.00   -0.0141047   -0.0306255   -0.0005326
c    -0.1137783    3.4505904   -0.0179955  0.00   -0.0039784    0.0115348    0.0005195
c     1.1056748    2.8316897   -0.1086537  0.00    0.0019892    0.0108429    0.0002439
c     1.1459076    1.4650377   -0.1341216  0.00    0.0085378    0.0086141    0.0004041
n     0.2869303   -0.6285643   -0.1361347  0.00    0.0234469    0.0172485   -0.0000664
c     2.2016925    0.6119678   -0.2340674  0.00    0.0228862   -0.0088775   -0.0029243
c     1.7042247   -0.6484468   -0.2587092  0.00   -0.0157964   -0.0156458    0.0004815
h    -0.3797332   -1.4266985   -0.1036835  0.00    0.0056699    0.0075875    0.0000798
c     3.6578594    1.0196088   -0.3901384  0.00    0.2781009    0.2306465    0.0097157
c     4.6725624   -0.0447305    0.0795976  0.00   -0.0172667    0.0316089    0.0025909
h     3.8140676    1.9248611    0.1796632  0.00    0.5795784    0.0977218   -0.2678586
h     3.8448710    1.2641512   -1.4534095  0.00    0.0248776    0.0185311    0.0257726
c     6.0371065    0.6145524    0.2551347  0.00    0.0551815   -0.0223944    0.0154296
n     4.7263852   -1.1543111   -0.9091450  0.00   -0.0069708    0.0040577   -0.0118053
h     4.3877927   -0.4251480    1.0882151  0.00    0.0007790   -0.0022966   -0.0019770
h     5.7106126   -1.2633934   -1.2941291  0.00    0.0209794    0.0012107   -0.0008874
h     4.5323111   -2.0642255   -0.4075253  0.00   -0.0070606   -0.0127342    0.0091084
h    -2.2291663    3.2092475    0.1083554  0.00   -0.0003562    0.0000848    0.0000121
h    -2.1149295    0.7433858    0.0492926  0.00   -0.0008237    0.0004103    0.0000103
h    -0.1678559    4.5367872    0.0048891  0.00    0.0001252    0.0002793    0.0000555
h     2.0143350    3.4243755   -0.1619651  0.00    0.0002770    0.0005814    0.0001066
h     2.2685328   -1.5647554   -0.3823819  0.00   -0.0047612   -0.0026400    0.0004418
o     7.1020617   -0.1009225    0.7111841  0.00   -0.0394216    0.0182445   -0.0180652
o     6.1677989    1.9476664   -0.0999881  0.00   -0.0132545   -0.0068049    0.0019288
h     5.2484793    2.2389264   -0.4414626  0.00   -0.8765490   -0.3575748    0.2366822
    27
 Energy =       0.3354001773
c    -1.2644292    2.7109054    0.0546754  0.00   -0.0071184    0.0054013    0.0003559
c    -1.2099429    1.3444916    0.0423022  0.00   -0.0127239   -0.0052025    0.0001113
c     0.0072542    0.7525418   -0.0447194  0.00   -0.0126149   -0.0272827   -0.0005269
c    -0.1129164    3.4509636   -0.0238877  0.00   -0.0034217    0.0104140    0.0004687
c     1.1047588    2.8305178   -0.1173343  0.00    0.0018232    0.0098337    0.0002315
c     1.1438758    1.4642149   -0.1242042  0.00    0.0076988    0.0077260    0.0003687
n     0.2844048   -0.6297428   -0.0855714  0.00    0.0208856    0.0152171   -0.0000077
c     2.1983435    0.6112468   -0.2213008  0.00    0.0204681   -0.0077484   -0.0026042
c     1.7016041   -0.6494383   -0.2226791  0.00   -0.0141303   -0.0140817    0.0003863
h    -0.3818634   -1.4281984   -0.0337853  0.00    0.0048710    0.0065327    0.0001021
c     3.6533488    1.0195767   -0.3958464  0.00    0.2498706    0.2069080    0.0087419
c     4.6779524   -0.0389892    0.0689373  0.00   -0.0160125    0.0290391    0.0024717
h     3.8052344    1.9377843    0.1567299  0.00    0.5200479    0.0880119   -0.2405422
h     3.8303334    1.2542545   -1.4630854  0.00    0.0224575    0.0167311    0.0231282
c     6.0525555    0.6141974    0.1960435  0.00    0.0443962   -0.0164354    0.0129322
n     4.6985236   -1.1669432   -0.9003005  0.00   -0.0075067    0.0036501   -0.0116343
h     4.4163175   -0.3983509    1.0918713  0.00    0.0005618   -0.0021597   -0.0012190
h     5.6657199   -1.2779038   -1.3244717  0.00    0.0201159    0.0010892   -0.0012907
h     4.5309251   -2.0685092   -0.3754798  0.00   -0.0066510   -0.0121605    0.0087750
h    -2.2268281    3.2123744    0.1252003  0.00   -0.0003281    0.0000697    0.0000110
h    -2.1134655    0.7460985    0.0996888  0.00   -0.0008499    0.0002543    0.0000154
h    -0.1663797    4.5374789   -0.0155038  0.00    0.0001446    0.0003622    0.0000487
h     2.0127143    3.4225606   -0.1874642  0.00    0.0003651    0.0006173    0.0000907
h     2.2659717   -1.5667140   -0.3375491  0.00   -0.0042413   -0.0024122    0.0003737
o     7.1478654   -0.1257074    0.5524310  0.00   -0.0291737    0.0126201   -0.0146604
o     6.1773776    1.9533345   -0.1383535  0.00   -0.0117719   -0.0059683    0.0016143
h     5.2555166    2.2526586   -0.4592619  0.00   -0.7871618   -0.3210265    0.2122582
    27
 Energy =       0.3160502068
c    -1.2587318    2.7139722    0.0649887  0.00   -0.0060437    0.0046530    0.0002968
c    -1.2084873    1.3482392    0.0353337  0.00   -0.0107586   -0.0045067    0.0001017
c     0.0058623    0.7537512   -0.0573967  0.00   -0.0106654   -0.0229168   -0.0003754
c    -0.1051212    3.4508562   -0.0029229  0.00   -0.0028755    0.0088875    0.0003770
c     1.1097622    2.8277161   -0.1020895  0.00    0.0015462    0.0084296    0.0001787
c     1.1433509    1.4626405   -0.1257354  0.00    0.0065168    0.0065589    0.0003009
n     0.2774629   -0.6303408   -0.1216701  0.00    0.0177480    0.0126091   -0.0000687
c     2.1939686    0.6101921   -0.2329363  0.00    0.0173724   -0.0064050   -0.0021831
c     1.6966321   -0.6490144   -0.2544958  0.00   -0.0120030   -0.0119979    0.0003715
h    -0.3911311   -1.4287802   -0.0848953  0.00    0.0040096    0.0053708    0.0000756
c     3.6494719    1.0158507   -0.4031604  0.00    0.2137513    0.1770648    0.0069742
c     4.6672722   -0.0463860    0.0642480  0.00   -0.0142805    0.0253521    0.0020048
h     3.8141848    1.9264961    0.1656059  0.00    0.4466483    0.0753653   -0.2056665
h     3.8283080    1.2548364   -1.4702673  0.00    0.0191380    0.0143004    0.0196770
c     6.0361641    0.6077620    0.2393589  0.00    0.0320477   -0.0102917    0.0082883
n     4.7099893   -1.1561673   -0.9232737  0.00   -0.0069460    0.0032423   -0.0104199
h     4.3823800   -0.4238361    1.0752925  0.00    0.0003266   -0.0019081   -0.0005504
h     5.6760413   -1.2385990   -1.3530465  0.00    0.0177074    0.0007502   -0.0013554
h     4.5617763   -2.0687451   -0.4139026  0.00   -0.0058178   -0.0107965    0.0076871
h    -2.2195862    3.2176679    0.1401773  0.00   -0.0002857    0.0000793    0.0000099
h    -2.1138809    0.7518214    0.0825680  0.00   -0.0007527    0.0001592    0.0000138
h    -0.1549719    4.5374064    0.0187048  0.00    0.0001245    0.0004052    0.0000409
h     2.0200114    3.4171521   -0.1637640  0.00    0.0003327    0.0005664    0.0000751
h     2.2643215   -1.5631893   -0.3841044  0.00   -0.0034770   -0.0021763    0.0002998
o     7.1048176   -0.1204749    0.7111841  0.00   -0.0180037    0.0061446   -0.0091140
o     6.1873155    1.9393452   -0.1225772  0.00   -0.0097927   -0.0044429    0.0012399
h     5.2775894    2.2545305   -0.4641424  0.00   -0.6755672   -0.2744964    0.1817205
    27
 Energy =       0.2696832181
c    -1.2515010    2.7108404    0.1274699  0.00   -0.0030806    0.0020967    0.0001024
c    -1.2049570    1.3470788    0.0997953  0.00   -0.0053060   -0.0020890   -0.0000336
c     0.0030537    0.7499246   -0.0138905  0.00   -0.0051047   -0.0109152   -0.0002636
c    -0.0983772    3.4430197    0.0362895  0.00   -0.0013549    0.0043176    0.0001664
c     1.1102124    2.8165635   -0.0836330  0.00    0.0009429    0.0039536    0.0000954
c     1.1369622    1.4547008   -0.1040324  0.00    0.0031636    0.0031364    0.0001976
n     0.2671731   -0.6389536   -0.0830469  0.00    0.0081570    0.0060027    0.0001497
c     2.1809999    0.6067991   -0.2285326  0.00    0.0082060   -0.0030356   -0.0008693
c     1.6885188   -0.6515037   -0.2407420  0.00   -0.0054782   -0.0056724    0.0000624
h    -0.4013139   -1.4396141   -0.0345591  0.00    0.0018119    0.0024703    0.0000700
c     3.6326114    1.0131894   -0.4302843  0.00    0.1258207    0.1034184    0.0032821
c     4.6600222   -0.0473899    0.0178383  0.00   -0.0064544    0.0125584    0.0014046
h     3.8173653    1.9286771    0.1424748  0.00    0.2674221    0.0457581   -0.1215146
h     3.7886346    1.2512214   -1.5033298  0.00    0.0113317    0.0085000    0.0111023
c     6.0317963    0.5982347    0.2045133  0.00    0.0142065   -0.0045601    0.0034985
n     4.6880246   -1.1434304   -0.9798564  0.00   -0.0149540    0.0107471   -0.0053671
h     4.3755942   -0.4346525    1.0255351  0.00    0.0000942   -0.0008328   -0.0001196
h     5.6088327   -1.1492876   -1.5117996  0.00    0.0212225   -0.0000138   -0.0072117
h     4.6555024   -2.0682550   -0.4673912  0.00   -0.0046202   -0.0139772    0.0096454
h    -2.2094900    3.2172863    0.2191924  0.00   -0.0002928    0.0000656    0.0000126
h    -2.1104427    0.7525956    0.1644658  0.00   -0.0005121    0.0000164    0.0000088
h    -0.1445420    4.5296158    0.0559136  0.00    0.0000640    0.0002058    0.0000200
h     2.0209180    3.4027884   -0.1642292  0.00    0.0003474    0.0003291    0.0000277
h     2.2653685   -1.5599225   -0.3805124  0.00   -0.0011590   -0.0011747    0.0001177
o     7.0804183   -0.1387926    0.7255096  0.00   -0.0075423    0.0017959   -0.0034441
o     6.2259660    1.9254006   -0.1667119  0.00   -0.0034234   -0.0017267    0.0010168
h     5.3374212    2.2885685   -0.5093648  0.00   -0.4035081   -0.1613748    0.1078432
    27
 Energy =       0.2431125161
c    -1.2481591    2.7027855    0.2272883  0.00   -0.0019582    0.0010227    0.0000524
c    -1.2020003    1.3400873    0.1921137  0.00   -0.0031367   -0.0008788   -0.0000222
c     0.0016841    0.7438759    0.0443661  0.00   -0.0026312   -0.0055979   -0.0001497
c    -0.0980990    3.4348112    0.1093345  0.00   -0.0008399    0.0024165    0.0000834
c     1.1060879    2.8090401   -0.0444999  0.00    0.0008956    0.0018498    0.0000059
c     1.1312233    1.4487584   -0.0713638  0.00    0.0017500    0.0016122    0.0001236
n     0.2630212   -0.6463836   -0.0399329  0.00    0.0036763    0.0031057    0.0002234
c     2.1710700    0.6049608   -0.2262038  0.00    0.0042681   -0.0016902   -0.0003513
c     1.6824143   -0.6535212   -0.2328570  0.00   -0.0022880   -0.0028756   -0.0000766
h    -0.4033463   -1.4492398    0.0203232  0.00    0.0008183    0.0011766    0.0000558
c     3.6164341    1.0151842   -0.4638685  0.00    0.0757644    0.0618393    0.0015912
c     4.6580579   -0.0455194   -0.0503195  0.00   -0.0028332    0.0065612    0.0011153
h     3.8198379    1.9289183    0.1166583  0.00    0.1653618    0.0286915   -0.0739685
h     3.7431209    1.2618431   -1.5403114  0.00    0.0068967    0.0052666    0.0061485
c     6.0377267    0.5882348    0.1325652  0.00    0.0070831   -0.0024364    0.0021439
n     4.6653300   -1.1272275   -1.0611144  0.00   -0.0156483    0.0117000   -0.0030039
h     4.3869640   -0.4476924    0.9554403  0.00    0.0000136   -0.0004153    0.0002024
h     5.5338337   -1.0714007   -1.6705527  0.00    0.0191698   -0.0000162   -0.0088001
h     4.7315701   -2.0560798   -0.5599576  0.00   -0.0029707   -0.0135389    0.0093325
h    -2.2036755    3.2087519    0.3460921  0.00   -0.0005175    0.0001611    0.0000446
h    -2.1054180    0.7449842    0.2771506  0.00   -0.0004989   -0.0000322    0.0000220
h    -0.1436791    4.5212468    0.1348336  0.00   -0.0000102    0.0001290    0.0000148
h     2.0145964    3.3953749   -0.1462984  0.00    0.0004244    0.0002201   -0.0000102
h     2.2621035   -1.5578057   -0.3919034  0.00   -0.0002810   -0.0007722    0.0000302
o     7.0786637   -0.1692224    0.6461472  0.00   -0.0036153    0.0006755   -0.0016652
o     6.2625658    1.9161856   -0.2262793  0.00   -0.0005438   -0.0009247    0.0009290
h     5.3928439    2.3237525   -0.5597691  0.00   -0.2483490   -0.0972494    0.0659287
    27
 Energy =       0.2296416673
c    -1.2446824    2.6895942    0.3400265  0.00   -0.0015125    0.0008999    0.0000618
c    -1.1976024    1.3278665    0.2818282  0.00   -0.0023300   -0.0003984    0.0000247
c     0.0026710    0.7356989    0.0965380  0.00   -0.0015879   -0.0034039   -0.0000697
c    -0.0986387    3.4247287    0.2071272  0.00   -0.0009183    0.0017903    0.0000976
c     1.1020676    2.8029578    0.0155333  0.00    0.0009224    0.0010429   -0.0000515
c     1.1276908    1.4437773   -0.0336735  0.00    0.0011074    0.0009376    0.0000892
n     0.2633701   -0.6535258   -0.0173696  0.00    0.0020581    0.0017051    0.0001805
c     2.1644680    0.6053302   -0.2257197  0.00    0.0028396   -0.0012946   -0.0001869
c     1.6791310   -0.6538358   -0.2418245  0.00   -0.0009607   -0.0018759   -0.0001208
h    -0.4001679   -1.4590484    0.0440919  0.00    0.0004922    0.0007107    0.0000337
c     3.6031046    1.0228885   -0.4895675  0.00    0.0503820    0.0413310    0.0008649
c     4.6564744   -0.0447614   -0.1252142  0.00   -0.0012551    0.0040983    0.0012198
h     3.8231210    1.9235356    0.1117887  0.00    0.1136747    0.0200368   -0.0499108
h     3.7020878    1.2945715   -1.5640068  0.00    0.0045941    0.0036975    0.0033997
c     6.0442507    0.5753306    0.0556202  0.00    0.0041329   -0.0015224    0.0016382
n     4.6428207   -1.1008174   -1.1616436  0.00   -0.0157754    0.0114580   -0.0018551
h     4.4015120   -0.4740699    0.8739821  0.00   -0.0000248   -0.0003534    0.0006875
h     5.4605264   -0.9867300   -1.8293058  0.00    0.0176527    0.0001016   -0.0100055
h     4.7911552   -2.0352588   -0.6895167  0.00   -0.0015403   -0.0134079    0.0090168
h    -2.1978941    3.1924436    0.4890164  0.00   -0.0007327    0.0003472    0.0000866
h    -2.0980803    0.7301480    0.3779728  0.00   -0.0004177    0.0000040    0.0000246
h    -0.1448810    4.5106631    0.2510636  0.00   -0.0001241    0.0002588    0.0000298
h     2.0075410    3.3917339   -0.0978195  0.00    0.0003629    0.0001310   -0.0000194
h     2.2591877   -1.5533827   -0.4281352  0.00    0.0001327   -0.0007980   -0.0000374
o     7.0809297   -0.2063844    0.5443302  0.00   -0.0017202   -0.0000846   -0.0007780
o     6.2903261    1.9082298   -0.2759154  0.00    0.0006459   -0.0004715    0.0008265
h     5.4342832    2.3530192   -0.5921257  0.00   -0.1700980   -0.0649398    0.0447530
    27
 Energy =       0.2234728004
c    -1.2325944    2.6943224    0.4290088  0.00   -0.0012648    0.0008710    0.0000676
c    -1.1908522    1.3333556    0.3517128  0.00   -0.0019282   -0.0002739    0.0000387
c     0.0043863    0.7399890    0.1406401  0.00   -0.0011567   -0.0025540   -0.0000463
c    -0.0862466    3.4275141    0.2892922  0.00   -0.0009107    0.0015199    0.0001068
c     1.1092395    2.8044607    0.0717868  0.00    0.0008573    0.0007837   -0.0000641
c     1.1291772    1.4462934    0.0035953  0.00    0.0008392    0.0006599    0.0000603
n     0.2591014   -0.6487192    0.0042898  0.00    0.0015269    0.0011236    0.0001354
c     2.1602462    0.6083267   -0.2146521  0.00    0.0022443   -0.0010740   -0.0000876
c     1.6719690   -0.6494307   -0.2398240  0.00   -0.0006107   -0.0015121   -0.0001339
h    -0.4057625   -1.4534157    0.0642973  0.00    0.0003719    0.0005284    0.0000242
c     3.5955382    1.0283251   -0.4913102  0.00    0.0377305    0.0320560    0.0005051
c     4.6515811   -0.0601440   -0.1976013  0.00   -0.0001913    0.0033800    0.0022320
h     3.8361568    1.8994349    0.1501230  0.00    0.0894076    0.0167586   -0.0380220
h     3.6716321    1.3477971   -1.5559579  0.00    0.0034121    0.0032968    0.0012397
c     6.0512157    0.5366888   -0.0201535  0.00    0.0022839   -0.0011588    0.0015090