    27
 Energy =       2.7275239678
c    -1.4235396    2.6054793   -0.0667700  0.00   -0.0469322    0.0383774    0.0028484
c    -1.3072796    1.2134697   -0.1072300  0.00   -0.0852551   -0.0325792    0.0020302
c    -0.0178900    0.6711998   -0.1697000  0.00   -0.0894739   -0.1881189   -0.0006182
c    -0.2940599    3.4190890   -0.0891300  0.00   -0.0161556    0.0691011   -0.0003272
c     0.9872197    2.8590292   -0.1560400  0.00    1.2598625    0.5029862   -1.4279520
c     1.1340797    1.4562096   -0.1970299  0.00    0.0786101    0.0876568   -0.0222615
n     0.3879399   -0.6395298   -0.2140799  0.00    0.1451168    0.1113966   -0.0047017
c     2.2666594    0.5727398   -0.2659299  0.00    0.1517706   -0.0744395    0.0031358
c     1.7555995   -0.7123598   -0.2706899  0.00   -0.1003126   -0.0972098    0.0039742
h    -0.2400399   -1.4313496   -0.2047299  0.00    0.0367241    0.0479065   -0.0001302
c     3.7030089    1.0223397   -0.3320099  0.00   -0.0292418    0.0911315   -0.0210073
c     4.2197688    1.4064496   -1.7267995  0.00    0.0403570   -0.0259755    0.1509470
h     4.3261788    0.2093419    0.0639454  0.00   -0.0086661    0.0100235   -0.0004408
h     3.8370289    1.8640295    0.3610799  0.00   -0.0094891   -0.0040620   -0.0176470
c     3.6319390    2.7753292   -2.1168494  0.00    0.0010231    0.2001831   -0.3376699
n     3.8331589    0.4251339   -2.8019292  0.00   -0.0135176    0.0007838   -0.1128198
h     5.3112285    1.5100896   -1.7329195  0.00   -0.0185118   -0.0117620   -0.0181517
h     3.2153791    0.9204687   -3.4531490  0.00    0.0351463    0.0186799    0.0443168
h     4.6719087    0.2293189   -3.3596190  0.00   -0.0264141    0.0135858    0.0211383
h    -2.4108593    3.0588691   -0.0157800  0.00   -0.0008492    0.0003080    0.0000895
h    -2.1896094    0.5822398   -0.0890100  0.00   -0.0036302    0.0036183    0.0001339
h    -0.4052699    4.5000487   -0.0535400  0.00    0.0011934   -0.0006289    0.0002858
h     1.8590495    3.5066790   -0.1715100  0.00   11.1832601   -3.7736004  -13.9910575
h     2.2327294   -1.6813195   -0.3062999  0.00   -0.0413705   -0.0122415    0.0036066
o     3.8981789    3.3994790   -3.1304891  0.00   -0.0571895   -0.1484579    0.2438967
o     2.7558992    3.2202791   -1.1760297  0.00  -11.7249893    3.3165810   12.8740804
h     1.8876295    3.2967291   -1.6502395  0.00   -0.6610656   -0.1432441    2.6043013
    27
 Energy =       2.3385790703
c    -1.3831332    2.6367859    0.0336305  0.00   -0.0389649    0.0318422    0.0022538
c    -1.2843273    1.2520440   -0.0334265  0.00   -0.0706448   -0.0271575    0.0015108
c    -0.0130888    0.6947460   -0.1192457  0.00   -0.0741995   -0.1525830    0.0000009
c    -0.2472332    3.4319230    0.0150328  0.00   -0.0136967    0.0572398   -0.0004557
c     1.0210802    2.8596256   -0.0778271  0.00    1.0565440    0.4220921   -1.1982614
c     1.1429780    1.4574453   -0.1552062  0.00    0.0631967    0.0736738   -0.0182250
n     0.3454421   -0.6337646   -0.2212251  0.00    0.1184786    0.0904425   -0.0035427
c     2.2482313    0.5591273   -0.2930115  0.00    0.1240227   -0.0614732    0.0028257
c     1.7198087   -0.7126175   -0.3376490  0.00   -0.0819097   -0.0799701    0.0028275
h    -0.3051243   -1.4156676   -0.2118351  0.00    0.0297323    0.0391998    0.0000058
c     3.7080392    0.9389514   -0.4083126  0.00   -0.0247772    0.0740774   -0.0199461
c     4.1952229    1.3833258   -1.8008056  0.00    0.0352147   -0.0222404    0.1251106
h     4.3092912    0.0661155   -0.0948077  0.00   -0.0041416    0.0042499    0.0007866
h     3.9191872    1.7318288    0.3316169  0.00   -0.0069402   -0.0002745   -0.0108777
c     3.6484015    2.7848016   -2.0938797  0.00   -0.0003623    0.1656690   -0.2782264
n     3.7540332    0.4562175   -2.9001344  0.00   -0.0109673   -0.0030957   -0.0944568
h     5.2935213    1.4534377   -1.8219830  0.00   -0.0142867   -0.0096163   -0.0142109
h     3.1425437    0.9986873   -3.5302698  0.00    0.0276538    0.0163582    0.0345752
h     4.5772631    0.2355492   -3.4794116  0.00   -0.0203007    0.0112079    0.0167443
h    -2.3641308    3.1017957    0.1035164  0.00   -0.0009988    0.0004223    0.0002109
h    -2.1740279    0.6307970   -0.0221464  0.00   -0.0031247    0.0028514    0.0001409
h    -0.3449519    4.5137956    0.0725818  0.00    0.0008354   -0.0001803    0.0003762
h     1.8964482    3.5159518   -0.0989282  0.00    9.3904165   -3.1667270  -11.7474473
h     2.2036937   -1.6757028   -0.4604097  0.00   -0.0320499   -0.0132912    0.0020597
o     3.8813798    3.4669861   -3.1160092  0.00   -0.0473680   -0.1198412    0.1998535
o     2.8058208    3.2247379   -1.1164398  0.00   -9.8450739    2.7879861   10.8122252
h     1.9296677    3.3025589   -1.5958922  0.00   -0.5562878   -0.1208621    2.1841421
    27
 Energy =       1.8014952970
c    -1.3881304    2.5323582    0.0476365  0.00   -0.0268108    0.0229359    0.0017731
c    -1.2484721    1.1623708   -0.0225402  0.00   -0.0494653   -0.0187907    0.0012727
c     0.0249989    0.6456641   -0.1284058  0.00   -0.0513723   -0.1048773   -0.0010367
c    -0.2817333    3.3516931    0.0180487  0.00   -0.0096801    0.0387951    0.0000271
c     0.9945274    2.8246531   -0.0931613  0.00    0.7393620    0.2710612   -0.8682132
c     1.1493935    1.4372865   -0.1755002  0.00    0.0473780    0.0530715   -0.0138605
n     0.4025250   -0.6938874   -0.1941131  0.00    0.0793163    0.0622003   -0.0003068
c     2.2619517    0.5879291   -0.3059954  0.00    0.0873984   -0.0416817    0.0010432
c     1.7900941   -0.6947279   -0.3456215  0.00   -0.0560204   -0.0533706    0.0006219
h    -0.2184219   -1.5113635   -0.1530923  0.00    0.0192327    0.0251684    0.0003000
c     3.7143047    0.9897405   -0.4218890  0.00   -0.0182393    0.0531460   -0.0142665
c     4.1558736    1.4375401   -1.8241361  0.00    0.0247286   -0.0134920    0.0891818
h     4.3346023    0.1195251   -0.1299359  0.00   -0.0028256    0.0019330   -0.0001620
h     3.9271437    1.7821707    0.3209525  0.00   -0.0045037   -0.0006307   -0.0081066
c     3.6640137    2.8597334   -2.0710596  0.00   -0.0011885    0.1161675   -0.1918792
n     3.6262987    0.5249894   -2.8906626  0.00   -0.0169761   -0.0031273   -0.0636147
h     5.2609516    1.4638039   -1.8899212  0.00   -0.0078317   -0.0071791   -0.0104289
h     3.0281607    1.0862103   -3.5281867  0.00    0.0180208    0.0129535    0.0237110
h     4.4185099    0.1977706   -3.4812577  0.00   -0.0075348    0.0042312    0.0054293
h    -2.3802027    2.9697547    0.1412588  0.00   -0.0010594    0.0009965    0.0007267
h    -2.1172697    0.5124868    0.0118727  0.00   -0.0029256    0.0019017    0.0004012
h    -0.4104027    4.4299716    0.0960013  0.00    0.0009173    0.0007767    0.0011378
h     1.8753927    3.6421057   -0.0723161  0.00    6.9522441   -2.2992189   -8.6431359
h     2.3453121   -1.6185557   -0.4814143  0.00   -0.0208217   -0.0114440    0.0003827
o     3.9229123    3.5304227   -3.1457710  0.00   -0.0325855   -0.0841726    0.1368756
o     2.7978738    3.3392737   -1.1202007  0.00   -7.2806666    2.0596670    7.9687234
h     1.9758289    3.3505629   -1.5930675  0.00   -0.3780909   -0.0870206    1.5834033
    27
 Energy =       1.5626578305
c    -1.3388857    2.6486149    0.1067248  0.00   -0.0232596    0.0203132    0.0017205
c    -1.2456735    1.2799923   -0.0029182  0.00   -0.0420398   -0.0169467    0.0010109
c     0.0039033    0.7238937   -0.1248956  0.00   -0.0422579   -0.0822860    0.0005542
c    -0.2074422    3.4308457    0.0789733  0.00   -0.0088358    0.0333741    0.0003637
c     1.0487273    2.8655721   -0.0596693  0.00    0.6300912    0.2318052   -0.7269142
c     1.1506793    1.4749509   -0.1524608  0.00    0.0400261    0.0453982   -0.0114159
n     0.3160972   -0.6313704   -0.2852657  0.00    0.0664995    0.0461673   -0.0022951
c     2.2260809    0.5916472   -0.3004931  0.00    0.0742767   -0.0342361    0.0013028
c     1.7143045   -0.6719094   -0.3866485  0.00   -0.0451888   -0.0448668    0.0007809
h    -0.3447832   -1.4253822   -0.3060871  0.00    0.0129631    0.0173941   -0.0006857
c     3.6940370    0.9312780   -0.4042331  0.00   -0.0148619    0.0448315   -0.0122078
c     4.1519073    1.3417120   -1.8125660  0.00    0.0209646   -0.0114039    0.0747187
h     4.2788555    0.0388460   -0.1001871  0.00   -0.0018026    0.0005829   -0.0004307
h     3.9345861    1.7271450    0.3281570  0.00   -0.0035849   -0.0004757   -0.0066337
c     3.6952339    2.7667150   -2.0918810  0.00   -0.0003849    0.0956688   -0.1605123
n     3.6132664    0.4124522   -2.8555439  0.00   -0.0153020   -0.0026935   -0.0519617
h     5.2593000    1.3473749   -1.8672175  0.00   -0.0063038   -0.0060085   -0.0090947
h     3.0374558    0.9644773   -3.5250159  0.00    0.0143391    0.0121673    0.0189817
h     4.4056366    0.0390175   -3.4218922  0.00   -0.0049321    0.0030193    0.0029159
h    -2.3158679    3.1164179    0.2163837  0.00   -0.0014835    0.0011471    0.0010305
h    -2.1363604    0.6580372    0.0064800  0.00   -0.0031465    0.0008033    0.0002599
h    -0.3021754    4.5125606    0.1680299  0.00    0.0007434    0.0012528    0.0016229
h     1.9089848    3.6208640   -0.1000310  0.00    5.9076553   -1.9568545   -7.3455322
h     2.2507433   -1.6035049   -0.5515895  0.00   -0.0176034   -0.0105418   -0.0002537
o     4.0068861    3.4074510   -3.1903504  0.00   -0.0265446   -0.0693105    0.1128966
o     2.8523008    3.3144989   -1.1528743  0.00   -6.1769861    1.7507891    6.7884481
h     1.9682388    3.3772852   -1.6454063  0.00   -0.3330409   -0.0690904    1.3213304
    27
 Energy =       1.4077868390
c    -1.3386453    2.6352188    0.1082794  0.00   -0.0205264    0.0179370    0.0016351
c    -1.2308408    1.2675258    0.0353889  0.00   -0.0366872   -0.0154295    0.0008287
c     0.0199859    0.7236095   -0.0918038  0.00   -0.0364404   -0.0692502    0.0000834
c    -0.2182363    3.4280068    0.0413393  0.00   -0.0071467    0.0296359    0.0004611
c     1.0402491    2.8748516   -0.1036222  0.00    0.5553881    0.2031907   -0.6384265
c     1.1549281    1.4858866   -0.1584588  0.00    0.0354106    0.0403384   -0.0099940
n     0.3432057   -0.6399023   -0.1826207  0.00    0.0573774    0.0378137   -0.0014078
c     2.2346212    0.6146704   -0.2904322  0.00    0.0653447   -0.0290117    0.0011029
c     1.7416384   -0.6565185   -0.3289547  0.00   -0.0386761   -0.0388905    0.0002066
h    -0.3061678   -1.4470151   -0.1473340  0.00    0.0096184    0.0129343   -0.0002820
c     3.6990407    0.9637144   -0.4132749  0.00   -0.0130725    0.0388073   -0.0103823
c     4.1355785    1.3387334   -1.8383375  0.00    0.0186990   -0.0094000    0.0653233
h     4.2959885    0.0851952   -0.0906966  0.00   -0.0014542    0.0001393   -0.0003218
h     3.9392643    1.7832406    0.2946208  0.00   -0.0028600   -0.0000951   -0.0054745
c     3.6763961    2.7550624   -2.1489512  0.00   -0.0007953    0.0829661   -0.1392398
n     3.5896441    0.3772021   -2.8448652  0.00   -0.0140068   -0.0031528   -0.0450210
h     5.2432598    1.3489931   -1.9041858  0.00   -0.0054078   -0.0051282   -0.0080163
h     3.0139177    0.9042049   -3.5361665  0.00    0.0119525    0.0111182    0.0158411
h     4.3782786   -0.0279729   -3.3963023  0.00   -0.0039138    0.0021197    0.0016543
h    -2.3189208    3.0942996    0.2238254  0.00   -0.0013279    0.0010272    0.0010222
h    -2.1128720    0.6342476    0.0849965  0.00   -0.0034070    0.0000745    0.0003662
h    -0.3247863    4.5107646    0.1048487  0.00    0.0008449    0.0015340    0.0015121
h     1.8765315    3.6468630   -0.1680949  0.00    5.1945109   -1.7196142   -6.4599761
h     2.2963546   -1.5805966   -0.4746730  0.00   -0.0154308   -0.0096461   -0.0003819
o     4.0332508    3.3846912   -3.2527745  0.00   -0.0223330   -0.0599270    0.0973204
o     2.8326892    3.3346635   -1.2276148  0.00   -5.4287393    1.5390652    5.9727694
h     1.9316829    3.4198428   -1.7266134  0.00   -0.2969213   -0.0591558    1.1587972
    27
 Energy =       1.2198609938
c    -1.3933949    2.5169297    0.0863458  0.00   -0.0178429    0.0152849    0.0014917
c    -1.2272679    1.1567910    0.0297310  0.00   -0.0309387   -0.0134161    0.0006647
c     0.0424784    0.6650263   -0.0932952  0.00   -0.0303214   -0.0564360   -0.0000679
c    -0.3094338    3.3541484    0.0048923  0.00   -0.0059775    0.0253245    0.0005445
c     0.9698981    2.8555020   -0.1366889  0.00    0.4601996    0.1624796   -0.5270574
c     1.1421907    1.4728728   -0.1688104  0.00    0.0294956    0.0330468   -0.0081321
n     0.4204443   -0.6911497   -0.1611766  0.00    0.0456942    0.0298003   -0.0009286
c     2.2551886    0.6518941   -0.2823367  0.00    0.0540210   -0.0231660    0.0005753
c     1.8233566   -0.6386014   -0.3038558  0.00   -0.0307306   -0.0321449   -0.0000712
h    -0.1905510   -1.5309310   -0.1164251  0.00    0.0067028    0.0087050   -0.0001044
c     3.7087774    1.0596819   -0.3878148  0.00   -0.0098702    0.0313243   -0.0092367
c     4.1469008    1.4151688   -1.8184252  0.00    0.0176039   -0.0061996    0.0561133
h     4.3406223    0.2173702   -0.0305715  0.00    0.0000132   -0.0011215    0.0002982
h     3.9006352    1.9124043    0.2994706  0.00   -0.0018433    0.0013550   -0.0032556
c     3.6144345    2.7947137   -2.1840728  0.00   -0.0057912    0.0702234   -0.1099701
n     3.6842647    0.3820323   -2.7955935  0.00   -0.0130913   -0.0091794   -0.0367790
h     5.2561614    1.4942301   -1.8562214  0.00   -0.0017612   -0.0038388   -0.0059246
h     3.0780000    0.8373224   -3.5164607  0.00    0.0063117    0.0111459    0.0091197
h     4.5111122    0.0126782   -3.3197692  0.00   -0.0007699    0.0004762    0.0001933
h    -2.3928909    2.9355465    0.1972278  0.00   -0.0020476    0.0013152    0.0009442
h    -2.0813724    0.4862766    0.0897803  0.00   -0.0037207   -0.0006610    0.0003600
h    -0.4644511    4.4330827    0.0495592  0.00    0.0005639    0.0026916    0.0012633
h     1.7603177    3.6979583   -0.2261435  0.00    4.3188582   -1.4216756   -5.3707467
h     2.4321473   -1.5326228   -0.4275628  0.00   -0.0114612   -0.0095977   -0.0005810
o     4.0449580    3.4469989   -3.2656859  0.00   -0.0148955   -0.0482182    0.0761714
o     2.7327757    3.3739114   -1.2966414  0.00   -4.5070285    1.2776425    4.9664399
h     1.8207347    3.4802468   -1.8019335  0.00   -0.2513725   -0.0451601    0.9586757
    27
 Energy =       1.1582849508
c    -1.4168239    2.3950095    0.1391600  0.00   -0.0175018    0.0144716    0.0014762
c    -1.2017818    1.0432040    0.0753366  0.00   -0.0294746   -0.0129860    0.0006596
c     0.0827254    0.5977152   -0.0662705  0.00   -0.0282700   -0.0524630   -0.0000590
c    -0.3659226    3.2705165    0.0463599  0.00   -0.0060078    0.0242607    0.0005898
c     0.9290884    2.8215750   -0.1152917  0.00    0.4247806    0.1468574   -0.4848635
c     1.1527401    1.4442582   -0.1560134  0.00    0.0278405    0.0303624   -0.0074740
n     0.5051306   -0.7468655   -0.1455951  0.00    0.0412173    0.0270302   -0.0006912
c     2.2909488    0.6621994   -0.2954081  0.00    0.0507046   -0.0213793    0.0007392
c     1.9035321   -0.6413059   -0.3172623  0.00   -0.0272611   -0.0300298   -0.0002342
h    -0.0740460   -1.6099207   -0.0919636  0.00    0.0054569    0.0069220   -0.0000298
c     3.7330104    1.1127623   -0.4256598  0.00   -0.0088191    0.0289557   -0.0082258
c     4.1356521    1.5006344   -1.8604820  0.00    0.0165668   -0.0061565    0.0511922
h     4.3965916    0.2848656   -0.0907776  0.00    0.0005335   -0.0016448    0.0005189
h     3.9131801    1.9622322    0.2691066  0.00   -0.0016861    0.0013417   -0.0029052
c     3.5560655    2.8682964   -2.1960474  0.00   -0.0059336    0.0636675   -0.1006885
n     3.6913510    0.4644518   -2.8408567  0.00   -0.0124317   -0.0089943   -0.0329889
h     5.2419850    1.6155854   -1.9131362  0.00   -0.0009008   -0.0034879   -0.0056067
h     3.0576780    0.9064106   -3.5471120  0.00    0.0052605    0.0108131    0.0078771
h     4.5218738    0.1272841   -3.3820200  0.00    0.0002030    0.0001005   -0.0003036
h    -2.4300190    2.7767934    0.2641158  0.00   -0.0027532    0.0015406    0.0009745
h    -2.0305797    0.3416605    0.1438938  0.00   -0.0041428   -0.0011425    0.0003897
h    -0.5618193    4.3433081    0.0952314  0.00    0.0003530    0.0034097    0.0011984
h     1.6746011    3.7291162   -0.2217976  0.00    4.0010659   -1.3123789   -4.9753811
h     2.5438135   -1.5106050   -0.4597740  0.00   -0.0099448   -0.0096168   -0.0006761
o     3.9877682    3.5838217   -3.2437444  0.00   -0.0125425   -0.0429229    0.0678437
o     2.6555414    3.3955123   -1.2942089  0.00   -4.1724556    1.1827037    4.6020672
h     1.7337516    3.5209666   -1.8022608  0.00   -0.2338571   -0.0392341    0.8846012
    27
 Energy =       0.8701641246
c    -1.4697712    2.3647946    0.1588181  0.00   -0.0112683    0.0073171    0.0016304
c    -1.2225040    1.0228448    0.0944174  0.00   -0.0182585   -0.0095154    0.0007728
c     0.0594879    0.6074488   -0.0745851  0.00   -0.0165285   -0.0336443    0.0000712
c    -0.4468527    3.2692286    0.0386026  0.00   -0.0033466    0.0139082    0.0004569
c     0.8493065    2.8526595   -0.1429904  0.00    0.2714977    0.1114798   -0.3284712
c     1.1023118    1.4734102   -0.1785490  0.00    0.0187920    0.0185793   -0.0044481
n     0.4969261   -0.7369130   -0.1517202  0.00    0.0261190    0.0160177   -0.0001636
c     2.2537801    0.7075744   -0.3192630  0.00    0.0317381   -0.0127416   -0.0000291
c     1.8944419   -0.5963619   -0.3323370  0.00   -0.0156017   -0.0182268   -0.0003735
h    -0.0602931   -1.6167378   -0.0928151  0.00    0.0045056    0.0028254    0.0001329
c     3.7152858    1.1307714   -0.4270108  0.00   -0.0057079    0.0189489   -0.0052156
c     4.1646555    1.5036894   -1.8597828  0.00    0.0102127   -0.0026159    0.0302849
h     4.3634649    0.2986543   -0.0745747  0.00    0.0010664   -0.0006100   -0.0005003
h     3.8987328    1.9787702    0.2695660  0.00   -0.0008739    0.0012624   -0.0021386
c     3.5938495    2.8571458   -2.2074120  0.00   -0.0100628    0.0348891   -0.0583819
n     3.7528066    0.4575549   -2.8353475  0.00   -0.0116628   -0.0059318   -0.0064038
h     5.2714267    1.6327432   -1.8778156  0.00   -0.0001265   -0.0004522   -0.0040895
h     3.2164311    0.9003226   -3.6306417  0.00   -0.0041552    0.0135298   -0.0060364
h     4.6169334    0.0487666   -3.2799378  0.00    0.0105715   -0.0031272   -0.0064310
h    -2.4905298    2.7137112    0.3111222  0.00   -0.0028606   -0.0007205    0.0015972
h    -2.0281114    0.2974249    0.1878376  0.00   -0.0025603   -0.0028926    0.0008706
h    -0.6678166    4.3343692    0.0954914  0.00   -0.0004556    0.0012382    0.0013694
h     1.6449061    3.7005647   -0.2344828  0.00    2.7486933   -0.9011782   -3.4005817
h     2.5676942   -1.4428068   -0.4640896  0.00   -0.0043569   -0.0061728   -0.0010874
o     4.1147497    3.6363141   -3.1983178  0.00   -0.0024761   -0.0195562    0.0364885
o     2.6455310    3.3489416   -1.3444892  0.00   -2.8696796    0.8090643    3.1446898
h     1.7891937    3.5145970   -1.8621711  0.00   -0.1432144   -0.0316745    0.6059873
    27
 Energy =       0.7996604025
c    -1.4723431    2.3865279    0.1742412  0.00   -0.0099813    0.0061894    0.0015721
c    -1.2354522    1.0444294    0.0997041  0.00   -0.0159910   -0.0085966    0.0007879
c     0.0401548    0.6204876   -0.0819950  0.00   -0.0143494   -0.0295327    0.0001391
c    -0.4443544    3.2839162    0.0517361  0.00   -0.0031203    0.0120384    0.0005123
c     0.8466101    2.8588587   -0.1409225  0.00    0.2389663    0.0989038   -0.2898392
c     1.0879850    1.4777110   -0.1867933  0.00    0.0164526    0.0162008   -0.0038702
n     0.4627933   -0.7282755   -0.1713364  0.00    0.0230570    0.0137771   -0.0001413
c     2.2314388    0.7025788   -0.3373831  0.00    0.0277669   -0.0112084   -0.0001065
c     1.8613771   -0.5971594   -0.3565831  0.00   -0.0134543   -0.0160588   -0.0003842
h    -0.1025150   -1.6036433   -0.1164053  0.00    0.0041336    0.0022480    0.0001482
c     3.7007076    1.1047173   -0.4380548  0.00   -0.0049272    0.0165781   -0.0047194
c     4.1644110    1.4837351   -1.8661691  0.00    0.0092946   -0.0021147    0.0267373
h     4.3359845    0.2612028   -0.0893576  0.00    0.0011150   -0.0005224   -0.0005625
h     3.8940835    1.9437100    0.2670781  0.00   -0.0006885    0.0012793   -0.0018844
c     3.6322982    2.8562821   -2.1952155  0.00   -0.0175373    0.0198446   -0.0406197
n     3.7311015    0.4604896   -2.8550325  0.00   -0.0147592   -0.0070441    0.0042879
h     5.2746151    1.5862360   -1.8774678  0.00    0.0002493    0.0000478   -0.0035708
h     3.2930057    0.9381325   -3.6962688  0.00   -0.0077932    0.0174410   -0.0133739
h     4.5906627   -0.0320783   -3.2287308  0.00    0.0176813   -0.0068444   -0.0079845
h    -2.4893025    2.7412965    0.3364801  0.00   -0.0026504   -0.0009480    0.0016027
h    -2.0451551    0.3242194    0.1949088  0.00   -0.0021514   -0.0028590    0.0008983
h    -0.6575156    4.3499546    0.1164411  0.00   -0.0006463    0.0009388    0.0013497
h     1.6505769    3.6932238   -0.2329918  0.00    2.4257031   -0.7950683   -3.0005958
h     2.5297538   -1.4468262   -0.4915212  0.00   -0.0035913   -0.0053748   -0.0010722
o     4.2735028    3.6970649   -3.0796106  0.00    0.0064631   -0.0051010    0.0204757
o     2.6583921    3.3344788   -1.3546146  0.00   -2.5329120    0.7136935    2.7751054
h     1.8132198    3.5182121   -1.8766135  0.00   -0.1263295   -0.0279074    0.5351080
    27
 Energy =       0.7680549508
c    -1.4668418    2.4578498    0.1221883  0.00   -0.0098254    0.0060744    0.0015435
c    -1.2511184    1.1108574    0.0652974  0.00   -0.0155569   -0.0083294    0.0007889
c     0.0197915    0.6644691   -0.0939369  0.00   -0.0137159   -0.0282319    0.0001251
c    -0.4220814    3.3368539    0.0036059  0.00   -0.0032566    0.0117842    0.0005375
c     0.8636693    2.8865320   -0.1660701  0.00    0.2282938    0.0946178   -0.2764047
c     1.0811595    1.5036834   -0.1913911  0.00    0.0158072    0.0154129   -0.0036962
n     0.4238816   -0.6915652   -0.1625915  0.00    0.0216806    0.0129792   -0.0001293
c     2.2149171    0.7134853   -0.3117234  0.00    0.0267442   -0.0108170    0.0000066
c     1.8288028   -0.5815159   -0.3223454  0.00   -0.0123581   -0.0154495   -0.0004280
h    -0.1556949   -1.5579365   -0.1091370  0.00    0.0037879    0.0019645    0.0001354
c     3.6880041    1.1012680   -0.3912123  0.00   -0.0049498    0.0158057   -0.0038502
c     4.1793049    1.4312039   -1.8224869  0.00    0.0095224   -0.0022831    0.0267497
h     4.3089334    0.2628612   -0.0041379  0.00    0.0015144   -0.0011389   -0.0002613
h     3.8738226    1.9611277    0.2910337  0.00   -0.0007178    0.0015236   -0.0013574
c     3.6435523    2.7873112   -2.2197345  0.00   -0.0222029    0.0090805   -0.0278042
n     3.7753595    0.3651740   -2.7796379  0.00   -0.0142131   -0.0087797    0.0036003
h     5.2886429    1.5425527   -1.8133385  0.00    0.0005431   -0.0001431   -0.0032750
h     3.3164792    0.8040169   -3.6313442  0.00   -0.0082150    0.0172600   -0.0141233
h     4.6481296   -0.1089970   -3.1457599  0.00    0.0172954   -0.0067478   -0.0076536
h    -2.4800310    2.8314720    0.2659272  0.00   -0.0028613   -0.0007343    0.0015820
h    -2.0738304    0.4049795    0.1564805  0.00   -0.0022362   -0.0028205    0.0008735
h    -0.6174357    4.4073642    0.0524176  0.00   -0.0006981    0.0012108    0.0013224
h     1.6858026    3.6884258   -0.2577886  0.00    2.3173964   -0.7595776   -2.8665066
h     2.4893741   -1.4407812   -0.4354655  0.00   -0.0032077   -0.0053649   -0.0010779
o     4.2132756    3.5401478   -3.2383637  0.00    0.0135487    0.0058768    0.0055130
o     2.6968246    3.3329203   -1.3848792  0.00   -2.4219574    0.6834101    2.6531221
h     1.8533428    3.5057222   -1.9080839  0.00   -0.1201619   -0.0265826    0.5106678
    27
 Energy =       0.6997978103
c    -1.4772621    2.4875668    0.0544233  0.00   -0.0087276    0.0056292    0.0014003
c    -1.2601147    1.1398511    0.0325570  0.00   -0.0136629   -0.0075950    0.0007385
c     0.0122661    0.6908458   -0.0976448  0.00   -0.0120159   -0.0244740    0.0000824
c    -0.4313814    3.3637293   -0.0705883  0.00   -0.0032364    0.0104653    0.0005418
c     0.8554481    2.9082159   -0.2104732  0.00    0.2011731    0.0842351   -0.2435612
c     1.0719497    1.5281208   -0.1977888  0.00    0.0135923    0.0134246   -0.0032085
n     0.4198208   -0.6667400   -0.1264019  0.00    0.0191531    0.0107528   -0.0000921
c     2.2082962    0.7419023   -0.2775489  0.00    0.0235206   -0.0095715   -0.0000031
c     1.8286987   -0.5541668   -0.2625438  0.00   -0.0104919   -0.0137982   -0.0003982
h    -0.1586218   -1.5335721   -0.0627303  0.00    0.0034154    0.0015498    0.0001750
c     3.6795706    1.1382340   -0.3396705  0.00   -0.0048070    0.0135727   -0.0026564
c     4.1947321    1.4050587   -1.7771911  0.00    0.0096457   -0.0014144    0.0269847
h     4.2985456    0.3226907    0.0993067  0.00    0.0022121   -0.0020128    0.0004121
h     3.8438983    2.0320510    0.3055322  0.00   -0.0005534    0.0024458   -0.0001059
c     3.6322248    2.7255701   -2.2646078  0.00   -0.0232189    0.0018957   -0.0142499
n     3.8414646    0.2736663   -2.6810097  0.00   -0.0126997   -0.0127578    0.0024602
h     5.3005523    1.5469235   -1.7477563  0.00    0.0012067   -0.0000501   -0.0024318
h     3.3649561    0.6488712   -3.5537091  0.00   -0.0089426    0.0162051   -0.0156248
h     4.7336672   -0.1800055   -3.0230753  0.00    0.0160891   -0.0064928   -0.0069151
h    -2.4925091    2.8642607    0.1732508  0.00   -0.0028070   -0.0005622    0.0014446
h    -2.0834015    0.4357271    0.1280074  0.00   -0.0018999   -0.0026255    0.0008103
h    -0.6271898    4.4353231   -0.0527604  0.00   -0.0008811    0.0014538    0.0011852
h     1.6805371    3.6908121   -0.3133181  0.00    2.0411100   -0.6698464   -2.5252265
h     2.4972904   -1.4114567   -0.3414626  0.00   -0.0022977   -0.0051479   -0.0009854
o     4.1274741    3.3813947   -3.3951341  0.00    0.0166107    0.0142745   -0.0088115
o     2.7014586    3.3319957   -1.4513791  0.00   -2.1356315    0.6038576    2.3379217
h     1.8636651    3.5126127   -1.9787610  0.00   -0.1058553   -0.0234135    0.4501138
    27
 Energy =       0.6516832955
c    -1.4529865    2.6089306   -0.0012727  0.00   -0.0089917    0.0053477    0.0013762
c    -1.2843309    1.2533595   -0.0159350  0.00   -0.0132471   -0.0074892    0.0007667
c    -0.0268243    0.7586498   -0.1245383  0.00   -0.0108867   -0.0224244    0.0000834
c    -0.3729896    3.4466068   -0.1113953  0.00   -0.0033429    0.0105246    0.0005157
c     0.8982439    2.9416847   -0.2276970  0.00    0.1822848    0.0769606   -0.2196837
c     1.0619783    1.5574359   -0.2083298  0.00    0.0128967    0.0119803   -0.0029158
n     0.3338054   -0.6130878   -0.1446367  0.00    0.0165252    0.0091586   -0.0000643
c     2.1716128    0.7364436   -0.2643718  0.00    0.0218127   -0.0085121    0.0001928
c     1.7504825   -0.5469874   -0.2517898  0.00   -0.0084519   -0.0129875   -0.0004143
h    -0.2765350   -1.4596293   -0.0917680  0.00    0.0023329    0.0003926    0.0002127
c     3.6541322    1.0895491   -0.2990409  0.00   -0.0042648    0.0123622   -0.0018041
c     4.2070647    1.3154025   -1.7300078  0.00    0.0093469   -0.0020685    0.0239745
h     4.2391626    0.2633377    0.1674031  0.00    0.0025415   -0.0025391    0.0007566
h     3.8309065    1.9894258    0.3342275  0.00   -0.0005380    0.0023525    0.0000571
c     3.6950305    2.6430082   -2.2584235  0.00   -0.0206541    0.0008488   -0.0125832
n     3.8434026    0.1735334   -2.6152065  0.00   -0.0116096   -0.0120991    0.0034045
h     5.3161671    1.4257655   -1.6765228  0.00    0.0018702   -0.0001008   -0.0023609
h     3.3293773    0.5320510   -3.4728610  0.00   -0.0087709    0.0147824   -0.0155243
h     4.7311666   -0.2659348   -2.9847416  0.00    0.0152433   -0.0061327   -0.0063829
h    -2.4562482    3.0230138    0.0989185  0.00   -0.0034644   -0.0001657    0.0014013
h    -2.1343498    0.5792686    0.0671992  0.00   -0.0024632   -0.0029255    0.0008099
h    -0.5286468    4.5254995   -0.1009497  0.00   -0.0009519    0.0022208    0.0010814
h     1.7593347    3.6716626   -0.3196733  0.00    1.8515111   -0.6071429   -2.2898089
h     2.3943805   -1.4250956   -0.3130778  0.00   -0.0015995   -0.0052061   -0.0009357
o     4.2049472    3.2359163   -3.4174089  0.00    0.0162299    0.0140913   -0.0105209
o     2.7852001    3.3154577   -1.4699375  0.00   -1.9384797    0.5497161    2.1207607
h     1.9525521    3.4842147   -2.0006404  0.00   -0.0948788   -0.0209450    0.4076055
    27
 Energy =       0.5983145322
c    -1.4242111    2.7283551   -0.0618148  0.00   -0.0089984    0.0049994    0.0013048
c    -1.3040030    1.3669077   -0.0676935  0.00   -0.0125647   -0.0071616    0.0007658
c    -0.0632628    0.8274557   -0.1528032  0.00   -0.0095826   -0.0200237    0.0000781
c    -0.3120758    3.5263836   -0.1567516  0.00   -0.0033496    0.0103405    0.0004727
c     0.9412737    2.9729817   -0.2475660  0.00    0.1610996    0.0687471   -0.1932158
c     1.0523941    1.5870766   -0.2199899  0.00    0.0119368    0.0103294   -0.0025770
n     0.2507845   -0.5566224   -0.1620343  0.00    0.0137415    0.0075169   -0.0000558
c     2.1341897    0.7335588   -0.2504604  0.00    0.0197090   -0.0073590    0.0003846
c     1.6731438   -0.5360368   -0.2393237  0.00   -0.0064200   -0.0119378   -0.0003942
h    -0.3896698   -1.3822383   -0.1194522  0.00    0.0013139   -0.0005754    0.0002271
c     3.6257063    1.0453676   -0.2556647  0.00   -0.0037660    0.0110213   -0.0008865
c     4.2170335    1.2262955   -1.6780068  0.00    0.0089753   -0.0026783    0.0206673
h     4.1760621    0.2119801    0.2406859  0.00    0.0027725   -0.0030046    0.0010978
h     3.8135621    1.9526438    0.3635076  0.00   -0.0005403    0.0022271    0.0002265
c     3.7545252    2.5550810   -2.2529140  0.00   -0.0178282   -0.0002993   -0.0104131