    13
 Energy =       0.1075009962
c    -3.7133889    1.6950595    0.3173519  0.00   -0.0727379    0.0266330    0.0989776
c    -2.4962693    2.6345192    0.2419999  0.00    0.2277244    0.1409832   -0.2992212
c    -4.9565486    2.3924193   -0.2155699  0.00    0.0174086   -0.0004598   -0.0000217
h    -5.2099685    3.2528291    0.4143399  0.00    0.0016576   -0.0135391   -0.0108616
h    -5.8205883    1.7190695   -0.2147749  0.00    0.0116434    0.0109608   -0.0016942
h    -4.8083986    2.7651692   -1.2348596  0.00   -0.0081869   -0.0015664    0.0188986
n    -3.4097890    0.4519539   -0.4549189  0.00    0.0237677   -0.0677215   -0.0119795
h    -3.8575589    1.4177196    1.3669296  0.00    0.0096070   -0.0092789   -0.0276992
h    -3.2072391   -0.2948399    0.2179739  0.00   -0.0166864    0.0298449   -0.0188012
h    -4.2689788    0.1396900   -0.9176007  0.00    0.0236057    0.0215336    0.0253919
o    -1.9513094    3.0041591   -0.7839488  0.00   -0.1404101   -0.0900703    0.2464013
o    -2.1005994    3.0267291    1.4825496  0.00   -0.0375693   -0.0337040   -0.0113138
h    -1.1397697    2.7938992    1.5347396  0.00   -0.0398237   -0.0136152   -0.0080770
    13
 Energy =       0.0860395808
c    -3.6940278    1.6947272    0.3094822  0.00   -0.0315524    0.0128191    0.0411833
c    -2.5307688    2.6858534    0.2806487  0.00    0.1036936    0.0524633   -0.1278576
c    -4.9876951    2.3550151   -0.1807864  0.00    0.0078271    0.0013082   -0.0000892
h    -5.2812164    3.1801277    0.4976794  0.00   -0.0007138   -0.0042270   -0.0029880
h    -5.8175923    1.6237169   -0.2028709  0.00    0.0034934    0.0027100   -0.0005784
h    -4.8541974    2.7781394   -1.1955318  0.00   -0.0031066    0.0006400    0.0070223
n    -3.3629031    0.5025976   -0.5131330  0.00    0.0137562   -0.0238281   -0.0055134
h    -3.8183651    1.3852463    1.3659651  0.00    0.0047928   -0.0043874   -0.0110080
h    -3.1013732   -0.2885932    0.1107593  0.00   -0.0060476    0.0074792   -0.0055250
h    -4.1881423    0.1731362   -1.0552536  0.00    0.0068796    0.0056527    0.0069826
o    -1.9629892    3.0784480   -0.8394208  0.00   -0.0599870   -0.0393800    0.1056053
o    -2.1174101    3.1854823    1.4941593  0.00   -0.1021544    0.0518266   -0.0101660
h    -1.2237259    2.6444801    1.6825141  0.00    0.0631192   -0.0630766    0.0029322
    13
 Energy =       0.0872029646
c    -3.6639675    1.6786486    0.2960783  0.00   -0.0317438    0.0116608    0.0393717
c    -2.5653412    2.7457416    0.2666312  0.00    0.1031455    0.0514288   -0.1293582
c    -5.0180592    2.2723029   -0.1240458  0.00    0.0067184    0.0023138    0.0007440
h    -5.3561430    3.0343446    0.6121995  0.00   -0.0030470   -0.0009591   -0.0004964
h    -5.7945021    1.4808485   -0.1690411  0.00    0.0011323    0.0001278    0.0001326
h    -4.9417261    2.7677019   -1.1165550  0.00   -0.0021669    0.0029592    0.0032827
n    -3.2854874    0.5350599   -0.5780865  0.00    0.0155895   -0.0232350   -0.0088533
h    -3.7320689    1.3219594    1.3458053  0.00    0.0038439   -0.0061016   -0.0084829
h    -2.9660296   -0.2673723    0.0071478  0.00   -0.0048018    0.0038215   -0.0036521
h    -4.0994171    0.1834485   -1.1239705  0.00    0.0066586    0.0045685    0.0064212
o    -1.9790188    3.1264841   -0.8494355  0.00   -0.0593060   -0.0389138    0.1032240
o    -2.2186574    3.3159760    1.4750716  0.00   -0.1003742    0.0556399   -0.0057977
h    -1.3199884    2.8032332    1.7124120  0.00    0.0643514   -0.0633108    0.0034642
    13
 Energy =       0.0816294958
c    -3.7010395    1.6907826    0.3182474  0.00   -0.0251564    0.0083914    0.0290801
c    -2.5371734    2.6867294    0.2994217  0.00    0.0818210    0.0390216   -0.1040735
c    -4.9954666    2.3473188   -0.2068109  0.00    0.0027325    0.0015817    0.0023787
h    -5.3100174    3.1930122    0.4534464  0.00   -0.0054680    0.0041606    0.0026878
h    -5.8252328    1.6062453   -0.2231277  0.00   -0.0011941   -0.0021658    0.0011229
h    -4.8381713    2.7536260   -1.2376179  0.00   -0.0000618    0.0053473   -0.0041995
n    -3.3469657    0.4884671   -0.4851108  0.00    0.0159014   -0.0161474   -0.0130333
h    -3.8511192    1.3920822    1.3832904  0.00    0.0014686   -0.0068904   -0.0021097
h    -3.1106186   -0.3080571    0.1554368  0.00   -0.0018258   -0.0034679    0.0018798
h    -4.1522356    0.1623391   -1.0631048  0.00    0.0039665    0.0030998    0.0041179
o    -1.9691953    3.0826860   -0.8403337  0.00   -0.0470464   -0.0301288    0.0792510
o    -2.1075471    3.1987701    1.5119272  0.00   -0.0778012    0.0484246   -0.0012232
h    -1.1956241    2.7043752    1.6885473  0.00    0.0526638   -0.0512268    0.0041209
    13
 Energy =       0.0769334141
c    -3.7150218    1.6894462    0.3283267  0.00   -0.0185102    0.0060561    0.0192614
c    -2.5059722    2.6266164    0.3046853  0.00    0.0559914    0.0245856   -0.0713392
c    -4.9831864    2.4027290   -0.1872088  0.00    0.0020643    0.0014416    0.0008449
h    -5.2401082    3.2752623    0.4626051  0.00   -0.0044031    0.0043187    0.0028480
h    -5.8507123    1.7043424   -0.1786480  0.00   -0.0022655   -0.0026186    0.0008398
h    -4.8205628    2.7793878   -1.2268983  0.00    0.0002473    0.0037856   -0.0032222
n    -3.4279132    0.4720453   -0.4744395  0.00    0.0151638   -0.0079162   -0.0098187
h    -3.8702920    1.4059392    1.3970882  0.00    0.0007772   -0.0046955   -0.0011924
h    -3.2693717   -0.3489312    0.1636233  0.00   -0.0002611   -0.0070361    0.0040158
h    -4.2334546    0.2129749   -1.0924293  0.00   -0.0013133    0.0011802   -0.0000346
o    -1.9752425    3.0580613   -0.8627839  0.00   -0.0329044   -0.0197333    0.0510364
o    -1.9946986    3.0806509    1.5129139  0.00   -0.0569341    0.0401562    0.0019052
h    -1.0538703    2.6398523    1.6073767  0.00    0.0423477   -0.0395243    0.0048555
    13
 Energy =       0.0735269210
c    -3.7175187    1.6877999    0.3461195  0.00   -0.0123134    0.0044482    0.0107676
c    -2.4966975    2.6026429    0.2882275  0.00    0.0326109    0.0080872   -0.0391269
c    -4.9866738    2.4100710   -0.1502349  0.00    0.0017047    0.0005618    0.0004939
h    -5.2049812    3.3026130    0.4839047  0.00   -0.0028467    0.0032748    0.0023847
h    -5.8655493    1.7281738   -0.1011007  0.00   -0.0021446   -0.0021811    0.0005116
h    -4.8463441    2.7556546   -1.2029130  0.00    0.0004283    0.0024151   -0.0026481
n    -3.4707010    0.4567712   -0.4434347  0.00    0.0124366   -0.0013585   -0.0069003
h    -3.8530837    1.4275047    1.4241140  0.00    0.0002155   -0.0027084   -0.0001467
h    -3.3890270   -0.3731659    0.1993323  0.00    0.0005753   -0.0082778    0.0051305
h    -4.2566292    0.2467095   -1.1076081  0.00   -0.0040684    0.0003851   -0.0023258
o    -2.0629679    3.1201361   -0.9091939  0.00   -0.0200971   -0.0075849    0.0195617
o    -1.8860323    2.9898927    1.4783752  0.00   -0.0505043    0.0360648    0.0083503
h    -0.9042010    2.6435733    1.4486236  0.00    0.0440032   -0.0331264    0.0039476
    13
 Energy =       0.0736934741
c    -3.7159286    1.6797461    0.3359914  0.00   -0.0129525    0.0048227    0.0118331
c    -2.5238580    2.6360361    0.3514042  0.00    0.0275582    0.0032881   -0.0306703
c    -4.9930845    2.3774374   -0.1752459  0.00    0.0017419    0.0006589    0.0005945
h    -5.2516907    3.2489789    0.4740271  0.00   -0.0028327    0.0037948    0.0028346
h    -5.8534838    1.6693923   -0.1646669  0.00   -0.0029299   -0.0026749    0.0005158
h    -4.8358521    2.7522749   -1.2157926  0.00    0.0006200    0.0023173   -0.0029979
n    -3.4051074    0.4835908   -0.4870969  0.00    0.0138634   -0.0022913   -0.0075497
h    -3.8781626    1.3790171    1.4010290  0.00   -0.0003488   -0.0024885    0.0010835
h    -3.3421024   -0.3677662    0.1295800  0.00    0.0004340   -0.0084200    0.0054915
h    -4.1524763    0.2833848   -1.1996994  0.00   -0.0055820   -0.0010319   -0.0044387
o    -2.1139874    3.2788892   -0.8023549  0.00   -0.0146261   -0.0013000    0.0083197
o    -1.9295677    2.9528246    1.5724701  0.00   -0.0449097    0.0335748    0.0117089
h    -0.9451051    2.6245707    1.5345663  0.00    0.0399642   -0.0302501    0.0032751
    13
 Energy =       0.0755893157
c    -3.7071851    1.6811053    0.3285754  0.00   -0.0144321    0.0050093    0.0135224
c    -2.5596471    2.6927858    0.3664685  0.00    0.0261670   -0.0002453   -0.0248167
c    -5.0095645    2.3276864   -0.1901289  0.00    0.0012689    0.0012804    0.0003036
h    -5.3044766    3.1912747    0.4554700  0.00   -0.0030619    0.0043473    0.0031155
h    -5.8433258    1.5873141   -0.1824335  0.00   -0.0035727   -0.0032060    0.0005080
h    -4.8611892    2.7066551   -1.2305685  0.00    0.0006121    0.0023773   -0.0030411
n    -3.3346629    0.5078898   -0.5046621  0.00    0.0174979    0.0011214   -0.0092479
h    -3.8695675    1.3621701    1.3884776  0.00   -0.0006372   -0.0023752    0.0013604
h    -3.1833493   -0.3365791    0.1125059  0.00    0.0015032   -0.0138294    0.0086220
h    -4.0982922    0.2466042   -1.1830411  0.00   -0.0089354   -0.0016431   -0.0068861
o    -2.2206602    3.4310106   -0.7598541  0.00   -0.0114858    0.0039589    0.0011838
o    -1.9601748    2.9837371    1.5916546  0.00   -0.0461268    0.0334975    0.0122350
h    -0.9883115    2.6167228    1.5617476  0.00    0.0412027   -0.0302933    0.0031410
    13
 Energy =       0.0751705998
c    -3.6849332    1.6781750    0.3495961  0.00   -0.0141326    0.0034348    0.0112518
c    -2.5499216    2.7057306    0.3000233  0.00    0.0228281   -0.0018141   -0.0216100
c    -5.0282265    2.2884022   -0.1104403  0.00   -0.0004154    0.0021305    0.0007793
h    -5.3153490    3.1454769    0.5464254  0.00   -0.0029553    0.0039973    0.0029115
h    -5.8405055    1.5247278   -0.0629365  0.00   -0.0043214   -0.0036054    0.0006574
h    -4.9387780    2.6696009   -1.1580474  0.00    0.0006587    0.0027755   -0.0043773
n    -3.3387335    0.4860302   -0.4678359  0.00    0.0302440    0.0174905   -0.0067340
h    -3.7798932    1.3875746    1.4281670  0.00   -0.0010811   -0.0023497    0.0041872
h    -3.3421024   -0.3898308    0.1427277  0.00    0.0021148   -0.0287479    0.0194832
h    -4.0401161    0.3236130   -1.2535389  0.00   -0.0218778   -0.0033466   -0.0207544
o    -2.2402628    3.3753076   -0.8802296  0.00   -0.0090842    0.0061082   -0.0034375
o    -1.9124254    3.0645481    1.4894692  0.00   -0.0412516    0.0318847    0.0143363
h    -0.9291595    2.7390208    1.4308312  0.00    0.0392739   -0.0279577    0.0033064
    13
 Energy =       0.0772494404
c    -3.6499245    1.6816195    0.3579548  0.00   -0.0131107   -0.0002449    0.0122304
c    -2.5865084    2.7851071    0.2439678  0.00    0.0233862   -0.0047658   -0.0170629
c    -5.0555295    2.1945159   -0.0491485  0.00   -0.0034778    0.0052438    0.0010035
h    -5.3747744    3.0350373    0.6151730  0.00   -0.0034725    0.0046112    0.0029054
h    -5.8126088    1.3745025    0.0332755  0.00   -0.0067333   -0.0060468    0.0011700
h    -5.0354874    2.5791394   -1.1013113  0.00    0.0004816    0.0040382   -0.0063441
n    -3.2626187    0.4988260   -0.4548377  0.00    0.0315045    0.0169048   -0.0057858
h    -3.6763093    1.4010997    1.4450746  0.00   -0.0009205   -0.0038691    0.0061568
h    -3.3021190   -0.3837411    0.1448735  0.00    0.0019523   -0.0287696    0.0199078
h    -3.9241203    0.3507785   -1.2785947  0.00   -0.0223648   -0.0042999   -0.0226585
o    -2.3990159    3.4851648   -0.9514875  0.00   -0.0063086    0.0117180   -0.0114053
o    -1.9117113    3.1934854    1.3980737  0.00   -0.0427357    0.0342397    0.0182972
h    -0.9496788    2.8028419    1.3511982  0.00    0.0417993   -0.0287596    0.0015856
    13
 Energy =       0.0749265017
c    -3.6783245    1.6741039    0.3591602  0.00   -0.0130277   -0.0018929    0.0138582
c    -2.5461249    2.7125695    0.2716535  0.00    0.0227649   -0.0081293   -0.0103677
c    -5.0446799    2.2694436   -0.0770176  0.00   -0.0049467    0.0070847    0.0008220
h    -5.3301689    3.1262608    0.5823728  0.00   -0.0037376    0.0051161    0.0029672
h    -5.8489891    1.4918399   -0.0100240  0.00   -0.0079743   -0.0072248    0.0013791
h    -4.9811635    2.6522844   -1.1286703  0.00    0.0004483    0.0045172   -0.0068966
n    -3.3411068    0.4727044   -0.4501210  0.00    0.0314337    0.0149385   -0.0056741
h    -3.7436812    1.3916494    1.4447094  0.00   -0.0008696   -0.0045015    0.0065213
h    -3.3741073   -0.4012042    0.1613605  0.00    0.0017732   -0.0277849    0.0193267
h    -4.0268398    0.3236174   -1.2532060  0.00   -0.0216949   -0.0047831   -0.0226919
o    -2.2402628    3.3583385   -0.9361209  0.00   -0.0025001    0.0166622   -0.0194661
o    -1.8952022    3.0995180    1.4466624  0.00   -0.0565339    0.0377578    0.0223363
h    -0.8897558    2.8272512    1.3434525  0.00    0.0548646   -0.0317599   -0.0021146
    13
 Energy =       0.0696723116
c    -3.7052128    1.6699637    0.3641832  0.00   -0.0098782   -0.0022223    0.0113841
c    -2.5118540    2.6335997    0.2927745  0.00    0.0134153   -0.0092246    0.0001921
c    -5.0259748    2.3408137   -0.0944923  0.00   -0.0046679    0.0064633    0.0002724
h    -5.2698251    3.2162874    0.5550973  0.00   -0.0030842    0.0043349    0.0023698
h    -5.8722458    1.6108537   -0.0326108  0.00   -0.0067178   -0.0062417    0.0012026
h    -4.9275922    2.7079676   -1.1470500  0.00    0.0003373    0.0035568   -0.0052176
n    -3.4295021    0.4490015   -0.4349451  0.00    0.0221958    0.0085769   -0.0045643
h    -3.8024776    1.3974644    1.4482278  0.00   -0.0006472   -0.0037289    0.0048070
h    -3.4857321   -0.4125025    0.1814773  0.00    0.0013654   -0.0192331    0.0130677
h    -4.1207724    0.3165356   -1.2281340  0.00   -0.0145319   -0.0037867   -0.0156415
o    -2.0971648    3.1995854   -0.9246197  0.00    0.0035635    0.0165541   -0.0213170
o    -1.8593682    2.9935883    1.4717405  0.00   -0.0595285    0.0305069    0.0201098
h    -0.8326847    2.8752184    1.3025626  0.00    0.0581786   -0.0255556   -0.0066651
    13
 Energy =       0.0642855375
c    -3.7259436    1.6656999    0.3697918  0.00   -0.0063748   -0.0013212    0.0076092
c    -2.4750251    2.5458904    0.3052320  0.00    0.0065884   -0.0056243    0.0028243
c    -4.9934604    2.4134040   -0.1089351  0.00   -0.0033471    0.0049753   -0.0003323
h    -5.1844223    3.3110350    0.5261287  0.00   -0.0022902    0.0035760    0.0018437
h    -5.8835255    1.7410175   -0.0449731  0.00   -0.0051519   -0.0047816    0.0009271
h    -4.8637766    2.7550757   -1.1643644  0.00    0.0003186    0.0023148   -0.0032233
n    -3.5243616    0.4233396   -0.4138277  0.00    0.0129301    0.0036185   -0.0040245
h    -3.8513737    1.4127635    1.4536812  0.00   -0.0005683   -0.0025323    0.0028636
h    -3.6358547   -0.4231783    0.2064424  0.00    0.0010148   -0.0119774    0.0074976
h    -4.2100392    0.3247731   -1.2088710  0.00   -0.0078182   -0.0024998   -0.0084015
o    -1.9924059    3.0408323   -0.9136756  0.00    0.0053844    0.0110945   -0.0143164
o    -1.8085093    2.8743295    1.4824852  0.00   -0.0493590    0.0180903    0.0155398
h    -0.7917086    2.9133949    1.2650970  0.00    0.0486731   -0.0149325   -0.0088073
    13
 Energy =       0.0620049568
c    -3.7535544    1.6678193    0.3602717  0.00   -0.0042075   -0.0032948    0.0058753
c    -2.4512983    2.4716424    0.3390879  0.00    0.0055617   -0.0033525    0.0005411
c    -4.9546537    2.4955880   -0.1601954  0.00   -0.0035951    0.0064625   -0.0004267
h    -5.0972333    3.4154478    0.4554752  0.00   -0.0022190    0.0038350    0.0016710
h    -5.8919895    1.8887124   -0.1063954  0.00   -0.0059924   -0.0049100    0.0011467
h    -4.7759691    2.8080619   -1.2178542  0.00    0.0005957    0.0024448   -0.0034771
n    -3.6022683    0.4194962   -0.4239047  0.00    0.0169678    0.0067212   -0.0006424
h    -3.9330841    1.4210855    1.4383534  0.00   -0.0006542   -0.0027592    0.0031694
h    -3.6258674   -0.4161969    0.2223775  0.00    0.0002038   -0.0125478    0.0099498
h    -4.3687924    0.2835299   -1.1413329  0.00   -0.0122878   -0.0037907   -0.0140304
o    -1.9198825    2.9592704   -0.8597407  0.00    0.0046410    0.0080844   -0.0105302
o    -1.7841542    2.7336229    1.5335982  0.00   -0.0350444    0.0132013    0.0146266
h    -0.7816593    2.8502971    1.3144708  0.00    0.0360303   -0.0100942   -0.0078730
    13
 Energy =       0.0607573415
c    -3.7851635    1.6734471    0.3417525  0.00   -0.0038212   -0.0054066    0.0044628
c    -2.4490117    2.4207048    0.3985613  0.00    0.0044615   -0.0030794   -0.0008423
c    -4.9172907    2.5631547   -0.2333931  0.00   -0.0043369    0.0081602   -0.0005097
h    -5.0313049    3.4970000    0.3664774  0.00   -0.0022152    0.0037814    0.0014156
h    -5.8905773    2.0121305   -0.2087685  0.00   -0.0070947   -0.0050753    0.0013607
h    -4.6801102    2.8509995   -1.2877460  0.00    0.0009419    0.0028213   -0.0045696
n    -3.6482577    0.4353038   -0.4591292  0.00    0.0283291    0.0202047   -0.0018718
h    -4.0365058    1.4177031    1.4050991  0.00   -0.0012652   -0.0031010    0.0051043
h    -3.5206180   -0.3963855    0.1950500  0.00    0.0028263   -0.0234510    0.0202857
h    -4.5080341    0.2359064   -1.0612848  0.00   -0.0263454   -0.0060762   -0.0234847
o    -1.8595568    2.9344661   -0.7624006  0.00    0.0051739    0.0077834   -0.0113500
o    -1.8072098    2.6010198    1.6244556  0.00   -0.0270212    0.0113998    0.0172116
h    -0.8067663    2.7529267    1.4355378  0.00    0.0303671   -0.0079613   -0.0072127
    13
 Energy =       0.0571743979
c    -3.8169184    1.6772445    0.3269294  0.00   -0.0012300   -0.0056263    0.0018339
c    -2.4452847    2.3407570    0.4560831  0.00    0.0031451   -0.0010367   -0.0018752
c    -4.8536097    2.6339877   -0.3106851  0.00   -0.0032125    0.0069344   -0.0004553
h    -4.9209814    3.5861771    0.2648383  0.00   -0.0016180    0.0028968    0.0008234
h    -5.8649557    2.1597999   -0.3176430  0.00   -0.0060785   -0.0034952    0.0011547
h    -4.5531589    2.8776457   -1.3596314  0.00    0.0011397    0.0022359   -0.0041748
n    -3.7191648    0.4394997   -0.4730868  0.00    0.0179518    0.0108529    0.0013119
h    -4.1428431    1.4356510    1.3723928  0.00   -0.0014144   -0.0028230    0.0043090
h    -3.5149847   -0.3731222    0.1711236  0.00    0.0009333   -0.0115877    0.0109056
h    -4.6242972    0.2128366   -0.9767536  0.00   -0.0162679   -0.0044294   -0.0149553
o    -1.7912270    2.8573653   -0.6649007  0.00    0.0035285    0.0040864   -0.0069208
o    -1.8357000    2.4422666    1.7065192  0.00   -0.0185786    0.0032888    0.0145078
h    -0.8572809    2.7082680    1.5590255  0.00    0.0217014   -0.0012970   -0.0064649
    13
 Energy =       0.0549321595
c    -3.8503955    1.6881062    0.3024741  0.00   -0.0012039   -0.0060339    0.0010904
c    -2.4578885    2.2804312    0.5204766  0.00    0.0009593   -0.0011600   -0.0022884
c    -4.7918707    2.6970483   -0.3938407  0.00   -0.0022918    0.0062264   -0.0006788
h    -4.8268965    3.6583850    0.1668210  0.00   -0.0010856    0.0018597    0.0003143
h    -5.8287076    2.2882943   -0.4489590  0.00   -0.0055170   -0.0022331    0.0008006
h    -4.4262759    2.9053749   -1.4294446  0.00    0.0012072    0.0017681   -0.0040021
n    -3.7751879    0.4599244   -0.5080652  0.00    0.0238821    0.0209051   -0.0034461
h    -4.2532394    1.4526065    1.3220066  0.00   -0.0019692   -0.0026648    0.0041800
h    -3.4233742   -0.3302354    0.1079775  0.00    0.0064743   -0.0163466    0.0160357
h    -4.7418242    0.1729162   -0.8554664  0.00   -0.0283046   -0.0069100   -0.0147364
o    -1.7359297    2.8210205   -0.5460181  0.00    0.0036865    0.0033831   -0.0067322
o    -1.8968325    2.2920470    1.7984709  0.00   -0.0092321    0.0004100    0.0135918
h    -0.9319840    2.6124577    1.7177786  0.00    0.0133946    0.0007961   -0.0041286
    13
 Energy =       0.0529896688
c    -3.8800280    1.7067755    0.2809072  0.00    0.0000756   -0.0027473   -0.0001225
c    -2.4779193    2.2275439    0.5814665  0.00   -0.0005834   -0.0010110   -0.0020723
c    -4.7187922    2.7471061   -0.4844640  0.00   -0.0013915    0.0029525    0.0005598
h    -4.7346824    3.7176052    0.0579678  0.00   -0.0003785    0.0002766   -0.0000365
h    -5.7673306    2.3938943   -0.6027286  0.00   -0.0025992   -0.0004937    0.0001382
h    -4.2806101    2.9139322   -1.4978478  0.00    0.0009048    0.0008465   -0.0027923
n    -3.8300057    0.4697374   -0.5129908  0.00    0.0067304    0.0031687    0.0009699
h    -4.3554858    1.5071683    1.2741644  0.00   -0.0012935   -0.0014503    0.0021963
h    -3.4010258   -0.2898916    0.0710515  0.00    0.0000115   -0.0017851    0.0026608
h    -4.8045192    0.1496142   -0.7435839  0.00   -0.0058681   -0.0013546   -0.0038090
o    -1.6942410    2.7943723   -0.4229313  0.00    0.0018926    0.0014041   -0.0035542
o    -1.9705551    2.1451778    1.8766689  0.00   -0.0026620   -0.0016678    0.0069619
h    -1.0252114    2.5153412    1.8765318  0.00    0.0051613    0.0018613   -0.0011001
    13
 Energy =       0.0525825952
c    -3.8964743    1.7256062    0.2716872  0.00    0.0004386   -0.0006562    0.0006047
c    -2.4960556    2.2271895    0.6034288  0.00   -0.0008755   -0.0004630   -0.0014367
c    -4.6949058    2.7590488   -0.5366520  0.00   -0.0005224    0.0005660    0.0001796
h    -4.7171975    3.7392949   -0.0123748  0.00   -0.0001328    0.0002020    0.0001378
h    -5.7399300    2.4138127   -0.6870463  0.00   -0.0005620    0.0000523   -0.0000271
h    -4.2219619    2.9006463   -1.5360657  0.00    0.0002905    0.0001693   -0.0009327
n    -3.8548091    0.4733883   -0.4979556  0.00    0.0072321    0.0094847   -0.0042016
h    -4.3999982    1.5561056    1.2546304  0.00   -0.0004101   -0.0004437    0.0006700
h    -3.3288291   -0.2509428    0.0580564  0.00    0.0046633   -0.0054392    0.0055751
h    -4.8347172    0.1011229   -0.6145239  0.00   -0.0116282   -0.0037936   -0.0019466
o    -1.7014605    2.8327743   -0.3672520  0.00    0.0006390    0.0005316   -0.0016567
o    -1.9981958    2.0757074    1.8940433  0.00    0.0001489   -0.0004541    0.0031877
h    -1.0558716    2.4446229    1.9242357  0.00    0.0007185    0.0002439   -0.0001532
    13
 Energy =       0.0524650642
c    -3.9066093    1.7402255    0.2691843  0.00    0.0002633    0.0000060    0.0000388
c    -2.5065534    2.2272674    0.6242327  0.00   -0.0006799   -0.0001629   -0.0007654
c    -4.6719891    2.7660509   -0.5789650  0.00   -0.0004848    0.0003743    0.0000403
h    -4.6943450    3.7574560   -0.0761410  0.00   -0.0001035    0.0002464    0.0000930
h    -5.7166392    2.4295007   -0.7481679  0.00   -0.0001879    0.0000362   -0.0000034
h    -4.1732852    2.8809283   -1.5688211  0.00    0.0002477    0.0000911   -0.0005588
n    -3.8683737    0.4707115   -0.4724185  0.00   -0.0002629   -0.0012222    0.0003185
h    -4.4338948    1.6006309    1.2441345  0.00   -0.0003267   -0.0000715    0.0005680
h    -3.3411559   -0.2400065    0.0891973  0.00   -0.0004552    0.0003486   -0.0005095
h    -4.8412170    0.0972219   -0.5714850  0.00    0.0009711    0.0002429   -0.0000318
o    -1.7090150    2.8729989   -0.3175646  0.00    0.0005159    0.0005214   -0.0012771
o    -2.0098736    2.0148029    1.9060438  0.00    0.0002742   -0.0004916    0.0020570
h    -1.0674556    2.3805884    1.9549819  0.00    0.0002287    0.0000814    0.0000304
    13
 Energy =       0.0524573177
c    -3.9082543    1.7458218    0.2712634  0.00    0.0001076    0.0001663    0.0002771
c    -2.5109888    2.2418589    0.6246299  0.00    0.0000333    0.0000218    0.0002110
c    -4.6714924    2.7523768   -0.6004596  0.00   -0.0000810   -0.0000466   -0.0001197
h    -4.6975548    3.7536635   -0.1179293  0.00    0.0000060    0.0001769    0.0000932
h    -5.7143973    2.4100679   -0.7678039  0.00    0.0000164   -0.0000074   -0.0000196
h    -4.1687831    2.8482997   -1.5897057  0.00   -0.0000068    0.0000190   -0.0000727
n    -3.8649390    0.4620042   -0.4447970  0.00   -0.0000000    0.0001209   -0.0005220
h    -4.4394478    1.6246699    1.2458856  0.00    0.0000263    0.0000024    0.0000717
h    -3.3324560   -0.2344154    0.1310633  0.00    0.0002528   -0.0003104    0.0003008
h    -4.8369346    0.0813970   -0.5328873  0.00   -0.0003035   -0.0001792   -0.0000080
o    -1.7244395    2.9070164   -0.3118602  0.00    0.0000761    0.0000144   -0.0000098
o    -2.0050807    2.0162860    1.8991376  0.00   -0.0001293    0.0000142   -0.0001786
h    -1.0656384    2.3893301    1.9476745  0.00    0.0000023    0.0000076   -0.0000234
    13
 Energy =       0.0524569697
c    -3.9083231    1.7460584    0.2713045  0.00   -0.0000001   -0.0000002    0.0000018
c    -2.5115179    2.2429900    0.6253267  0.00   -0.0000156   -0.0000045   -0.0000003
c    -4.6719661    2.7518717   -0.6007175  0.00   -0.0000003    0.0000001   -0.0000001
h    -4.6987040    3.7531073   -0.1185474  0.00    0.0000001    0.0000001   -0.0000000
h    -5.7146849    2.4090005   -0.7681419  0.00   -0.0000001   -0.0000001   -0.0000002
h    -4.1690021    2.8478847   -1.5897606  0.00    0.0000001   -0.0000001   -0.0000001
n    -3.8635666    0.4624553   -0.4445669  0.00    0.0000016    0.0000004   -0.0000016
h    -4.4399571    1.6244918    1.2455786  0.00   -0.0000001    0.0000001    0.0000002
h    -3.3322134   -0.2338100    0.1320011  0.00    0.0000014   -0.0000005    0.0000007
h    -4.8351957    0.0819163   -0.5346063  0.00   -0.0000030   -0.0000008    0.0000003
o    -1.7276898    2.9146651   -0.3087884  0.00    0.0000146    0.0000160   -0.0000289
o    -2.0032020    2.0116130    1.8979918  0.00   -0.0000008   -0.0000120    0.0000296
h    -1.0643837    2.3861326    1.9471378  0.00    0.0000023    0.0000015   -0.0000013
    13
 Energy =       0.0524569689
c    -3.9083144    1.7460394    0.2713037  0.00    0.0000000   -0.0000000    0.0000000
c    -2.5115062    2.2429654    0.6253181  0.00   -0.0000000   -0.0000000   -0.0000000
c    -4.6719630    2.7518737   -0.6006889  0.00   -0.0000000    0.0000000   -0.0000000
h    -4.6986933    3.7530986   -0.1184963  0.00    0.0000000    0.0000000   -0.0000000
h    -5.7146852    2.4090106   -0.7681082  0.00    0.0000000    0.0000000   -0.0000000
h    -4.1690095    2.8479066   -1.5897354  0.00    0.0000000   -0.0000000   -0.0000000
n    -3.8635642    0.4624516   -0.4445941  0.00    0.0000000    0.0000000   -0.0000000
h    -4.4399395    1.6244529    1.2455801  0.00   -0.0000000    0.0000000    0.0000000
h    -3.3322485   -0.2338387    0.1319763  0.00    0.0000000   -0.0000000    0.0000000
h    -4.8351964    0.0819363   -0.5346788  0.00   -0.0000000   -0.0000000    0.0000000
o    -1.7276371    2.9145096   -0.3088268  0.00    0.0000000    0.0000000   -0.0000000
o    -2.0032370    2.0117352    1.8980117  0.00    0.0000000   -0.0000000    0.0000000
h    -1.0644122    2.3862358    1.9471501  0.00    0.0000000    0.0000000   -0.0000000
