    13
 Energy =       0.1321467769
c    -3.7133889    1.6950595    0.3173519  0.00   -0.0485775    0.0568983    0.1514392
c    -2.4962693    2.6345192    0.2419999  0.00    0.2045476    0.1067855   -0.3146648
c    -4.9565486    2.3924193   -0.2155699  0.00    0.0032287    0.0127727    0.0129035
h    -4.7854386    2.7464192   -1.2386596  0.00   -0.0043412   -0.0020652    0.0177338
h    -5.2149185    3.2645991    0.3947669  0.00    0.0021535   -0.0119693   -0.0122884
h    -5.8205083    1.7195795   -0.2420919  0.00    0.0080201    0.0159978   -0.0029650
n    -3.4097890    0.4519539   -0.4549189  0.00    0.0795106   -0.0561759   -0.0169833
h    -3.8575589    1.4177196    1.3669296  0.00    0.1155575    0.0895350    0.0396462
h    -2.5963493    0.6418898   -1.0496997  0.00   -0.0235287    0.0187008    0.0455202
h    -3.0749291   -0.2623099    0.1989099  0.00   -0.0099298    0.0310067   -0.0224396
o    -1.9513094    3.0041591   -0.7839488  0.00   -0.1324722   -0.0959267    0.2466608
o    -2.1005994    3.0267291    1.4825496  0.00   -0.0701902   -0.0527384    0.0087822
h    -2.6645092    2.5096893    2.1108994  0.00   -0.1239784   -0.1128214   -0.1533448
    13
 Energy =       0.1218835103
c    -3.6907235    1.6881340    0.3033762  0.00   -0.0426908    0.0516792    0.1339507
c    -2.5246950    2.6877813    0.2339640  0.00    0.1803092    0.0919877   -0.2795566
c    -4.9904373    2.3521389   -0.1408464  0.00    0.0022110    0.0143562    0.0135436
h    -4.9104363    2.6943490   -1.1850759  0.00   -0.0035465   -0.0006589    0.0116285
h    -5.2182246    3.2271953    0.4819741  0.00    0.0018925   -0.0103906   -0.0102800
h    -5.8394313    1.6548315   -0.0833388  0.00    0.0038381    0.0122417   -0.0022884
n    -3.3775638    0.4936699   -0.5400149  0.00    0.0704141   -0.0506350   -0.0190354
h    -3.7741286    1.3546487    1.3494384  0.00    0.1020601    0.0783196    0.0386871
h    -2.5630134    0.7205193   -1.1269512  0.00   -0.0199134    0.0172693    0.0394482
h    -3.0554019   -0.2755664    0.0637051  0.00   -0.0074512    0.0239097   -0.0173404
o    -1.9511474    3.0438317   -0.8048528  0.00   -0.1176700   -0.0854845    0.2178785
o    -2.1740935    3.1463179    1.4700019  0.00   -0.0394284   -0.0078309   -0.0161569
h    -2.5728202    2.4545756    2.1071386  0.00   -0.1300246   -0.1347635   -0.1104789
    13
 Energy =       0.0852269475
c    -3.6916322    1.6910352    0.3071892  0.00   -0.0185754    0.0290146    0.0730235
c    -2.4945849    2.6396381    0.2742624  0.00    0.0899701    0.0453756   -0.1400029
c    -4.9605079    2.3931800   -0.1730679  0.00    0.0002494    0.0077137    0.0075574
h    -4.8304908    2.7441742   -1.2164957  0.00   -0.0015794    0.0001381    0.0047679
h    -5.1942602    3.2660955    0.4621855  0.00    0.0009344   -0.0052382   -0.0050439
h    -5.8221690    1.6993810   -0.1549330  0.00    0.0012982    0.0056128   -0.0013597
n    -3.4517148    0.4865324   -0.5260181  0.00    0.0311470   -0.0211097   -0.0116501
h    -3.8111657    1.3864514    1.3648177  0.00    0.0631748    0.0495316    0.0263173
h    -2.6210968    0.6389206   -1.1364263  0.00   -0.0060151    0.0099193    0.0180864
h    -3.2141550   -0.3247792    0.0839994  0.00   -0.0027480    0.0058618   -0.0052917
o    -1.9015663    2.9953962   -0.8431578  0.00   -0.0602345   -0.0447391    0.1080823
o    -2.0732632    3.1019454    1.4994196  0.00   -0.0066990    0.0112182   -0.0192334
h    -2.5755100    2.5244560    2.1867434  0.00   -0.0909224   -0.0932987   -0.0552530
    13
 Energy =       0.0773803822
c    -3.6837616    1.6825057    0.2944909  0.00   -0.0119800    0.0246341    0.0565801
c    -2.4615751    2.5989809    0.2669993  0.00    0.0666174    0.0337786   -0.1025819
c    -4.9505006    2.4402002   -0.1107872  0.00   -0.0017039    0.0053948    0.0043444
h    -4.8462426    2.8342611   -1.1442925  0.00   -0.0014478    0.0005788    0.0022347
h    -5.1389817    3.2903819    0.5753177  0.00    0.0002846   -0.0020135   -0.0021292
h    -5.8287199    1.7649239   -0.0941209  0.00    0.0006354    0.0039657   -0.0012252
n    -3.5217114    0.5064341   -0.5968447  0.00    0.0196921   -0.0124701   -0.0156061
h    -3.7715087    1.3410618    1.3482965  0.00    0.0491809    0.0385218    0.0223510
h    -2.6687190    0.6171948   -1.1905778  0.00   -0.0026060    0.0079986    0.0124876
h    -3.3729081   -0.3630962   -0.0275000  0.00   -0.0003532   -0.0049854    0.0008373
o    -1.8582684    2.9469212   -0.8709036  0.00   -0.0441673   -0.0330893    0.0794544
o    -2.0119812    3.0591686    1.4867314  0.00   -0.0037671    0.0097612   -0.0148117
h    -2.5272383    2.5234887    2.1917091  0.00   -0.0703851   -0.0720752   -0.0419355
    13
 Energy =       0.0730491289
c    -3.6925084    1.6920542    0.3058731  0.00   -0.0076439    0.0217563    0.0481356
c    -2.4825639    2.6243025    0.2914790  0.00    0.0547467    0.0276571   -0.0832574
c    -4.9482955    2.4108964   -0.2027747  0.00   -0.0040468    0.0031736    0.0033525
h    -4.8037067    2.7334483   -1.2598274  0.00   -0.0012054    0.0014407   -0.0016103
h    -5.1732586    3.3076396    0.4165646  0.00   -0.0007760    0.0014630    0.0003234
h    -5.8207956    1.7276529   -0.1742671  0.00    0.0004575    0.0030444   -0.0010314
n    -3.4764134    0.4758026   -0.5198981  0.00    0.0153426   -0.0112565   -0.0168937
h    -3.8380169    1.4052011    1.3729157  0.00    0.0404442    0.0318599    0.0217533
h    -2.5971412    0.5646117   -1.0820609  0.00   -0.0005217    0.0056807    0.0090451
h    -3.3428542   -0.3626564    0.0998290  0.00    0.0003125   -0.0066309    0.0023011
o    -1.8726899    2.9768689   -0.8535338  0.00   -0.0360196   -0.0269021    0.0646142
o    -2.0399010    3.1018170    1.5094419  0.00   -0.0029125    0.0083246   -0.0120956
h    -2.5539713    2.5847880    2.2247770  0.00   -0.0581776   -0.0596108   -0.0346366
    13
 Energy =       0.0680349266
c    -3.6992036    1.7042864    0.3049964  0.00   -0.0033736    0.0142186    0.0321333
c    -2.4887959    2.6365968    0.3067740  0.00    0.0345120    0.0184774   -0.0521965
c    -4.9334784    2.4038118   -0.2762110  0.00   -0.0039566    0.0017101    0.0023405
h    -4.7481395    2.6836723   -1.3401885  0.00   -0.0006673    0.0013306   -0.0026685
h    -5.1796657    3.3242601    0.3002210  0.00   -0.0009849    0.0020332    0.0009424
h    -5.8073379    1.7208073   -0.2517294  0.00    0.0002040    0.0019600   -0.0006184
n    -3.4633676    0.4633305   -0.4726994  0.00   -0.0074837    0.0048644   -0.0157225
h    -3.8942418    1.4569161    1.3760655  0.00    0.0273527    0.0221559    0.0170331
h    -2.5029683    0.4718747   -0.9233078  0.00    0.0181611    0.0029822   -0.0032683
h    -3.4749250   -0.3738963    0.1774464  0.00   -0.0000701   -0.0174537    0.0131004
o    -1.8585677    2.9780151   -0.8501872  0.00   -0.0225200   -0.0174219    0.0406566
o    -2.0383897    3.1261709    1.5212082  0.00   -0.0012722    0.0061750   -0.0083926
h    -2.5530356    2.6465812    2.2561301  0.00   -0.0399015   -0.0410317   -0.0233396
    13
 Energy =       0.0609052359
c    -3.7181420    1.6943313    0.3303178  0.00    0.0034028    0.0022983    0.0044961
c    -2.4823309    2.5997794    0.3178956  0.00    0.0003709   -0.0006989   -0.0017341
c    -4.9147164    2.3915335   -0.3190841  0.00   -0.0010709   -0.0000407    0.0008606
h    -4.6920082    2.6120713   -1.3894850  0.00    0.0004182    0.0006505   -0.0022354
h    -5.1544726    3.3441457    0.2044457  0.00   -0.0007108    0.0015770    0.0008426
h    -5.8041098    1.7261401   -0.2815388  0.00   -0.0002171   -0.0003000    0.0003065
n    -3.5165838    0.4151684   -0.3799282  0.00   -0.0227480    0.0089421   -0.0061278
h    -3.9670651    1.5000886    1.4036323  0.00    0.0080353    0.0072074    0.0089082
h    -2.6445547    0.4527515   -0.9925551  0.00    0.0237462    0.0040688   -0.0131631
h    -3.3781126   -0.3667667    0.3234835  0.00   -0.0014761   -0.0168809    0.0160218
o    -1.8695737    2.9204671   -0.8882007  0.00   -0.0007115   -0.0004740   -0.0015846
o    -1.9858573    3.1473822    1.4994647  0.00    0.0099223    0.0100979   -0.0103397
h    -2.5145895    2.8053343    2.3000707  0.00   -0.0189615   -0.0164475    0.0037490
    13
 Energy =       0.0613205026
c    -3.7066964    1.7014351    0.3403719  0.00    0.0027037    0.0011531    0.0043294
c    -2.4752381    2.6131673    0.2314475  0.00   -0.0006046   -0.0023189   -0.0013479
c    -4.9480936    2.3824498   -0.2437543  0.00   -0.0020365    0.0004528    0.0013696
h    -4.7928890    2.5887196   -1.3311722  0.00    0.0006369    0.0010054   -0.0046016
h    -5.1603662    3.3413494    0.2807583  0.00   -0.0007638    0.0017928    0.0012444
h    -5.8315177    1.7127784   -0.1415316  0.00   -0.0020677   -0.0012465    0.0004108
n    -3.5444746    0.4126324   -0.3645838  0.00   -0.0228651    0.0082091   -0.0066247
h    -3.8869520    1.5234609    1.4332159  0.00    0.0071201    0.0066543    0.0111758
h    -2.6751672    0.4225101   -0.9819848  0.00    0.0236501    0.0037994   -0.0133096
h    -3.4239541   -0.3703055    0.3407294  0.00   -0.0013069   -0.0168362    0.0156366
o    -1.9554583    2.9322536   -1.0223119  0.00    0.0017034    0.0009784   -0.0078167
o    -1.8854729    3.1603026    1.3739424  0.00    0.0136494    0.0131932   -0.0079026
h    -2.3558364    2.8216731    2.2133916  0.00   -0.0198191   -0.0168370    0.0074365
    13
 Energy =       0.0602635133
c    -3.7075603    1.6859080    0.3378665  0.00    0.0016534    0.0008780    0.0024729
c    -2.4861249    2.6169814    0.2901571  0.00   -0.0019172   -0.0039240   -0.0034144
c    -4.9327308    2.3526478   -0.2940032  0.00   -0.0018664    0.0001624    0.0009478
h    -4.7380415    2.5626772   -1.3735027  0.00    0.0005170    0.0006961   -0.0039201
h    -5.1770344    3.3074388    0.2236936  0.00   -0.0006493    0.0016069    0.0012211
h    -5.8113803    1.6723044   -0.2277162  0.00   -0.0020747   -0.0011080    0.0002669
n    -3.4971988    0.4044705   -0.3662326  0.00   -0.0178510    0.0071079   -0.0062979
h    -3.9337066    1.4927768    1.4179192  0.00    0.0044635    0.0044353    0.0086187
h    -2.6527093    0.4548112   -1.0089521  0.00    0.0180754    0.0025966   -0.0101316
h    -3.3105803   -0.3653788    0.3356665  0.00   -0.0005776   -0.0144214    0.0125807
o    -1.8879152    2.9106982   -0.9359923  0.00    0.0022522    0.0010094   -0.0099731
o    -1.9925447    3.2226116    1.4535158  0.00    0.0124677    0.0125695   -0.0013571
h    -2.5145895    2.9244797    2.2760988  0.00   -0.0144929   -0.0116087    0.0089860
    13
 Energy =       0.0600906183
c    -3.7348377    1.7012892    0.3371934  0.00    0.0011387   -0.0003000    0.0020634
c    -2.4650208    2.5700754    0.3156016  0.00   -0.0025239   -0.0052305   -0.0075302
c    -4.9120344    2.4242647   -0.3293120  0.00   -0.0026038    0.0016648    0.0006383
h    -4.6801394    2.6227056   -1.4046329  0.00    0.0007517    0.0011090   -0.0049521
h    -5.1249303    3.3918470    0.1799359  0.00   -0.0010074    0.0023723    0.0013703
h    -5.8244892    1.7852421   -0.2833922  0.00   -0.0035991   -0.0020343    0.0004641
n    -3.5676856    0.4064149   -0.3551890  0.00   -0.0193406    0.0063775   -0.0066322
h    -4.0005706    1.5258673    1.4123005  0.00    0.0037581    0.0035918    0.0097208
h    -2.7314360    0.4337053   -1.0122908  0.00    0.0200819    0.0026423   -0.0115198
h    -3.3851598   -0.3597142    0.3533025  0.00   -0.0006028   -0.0156598    0.0137071
o    -1.8648911    2.8816368   -0.9058560  0.00    0.0024006    0.0011238   -0.0110771
o    -1.9198646    3.0933661    1.5004743  0.00    0.0166988    0.0163936    0.0026227
h    -2.4310573    2.7657266    2.3203828  0.00   -0.0151521   -0.0120504    0.0111246
    13
 Energy =       0.0589462950
c    -3.7705917    1.7181145    0.3394777  0.00    0.0007967   -0.0025517    0.0009638
c    -2.4521045    2.5145874    0.3722385  0.00   -0.0016217   -0.0050298   -0.0083667
c    -4.8744540    2.4934435   -0.3971978  0.00   -0.0036934    0.0040306    0.0003546
h    -4.5780794    2.6702894   -1.4613130  0.00    0.0011490    0.0015662   -0.0059785
h    -5.0652230    3.4759146    0.0916465  0.00   -0.0012802    0.0024433    0.0010057
h    -5.8204060    1.9007127   -0.3917210  0.00   -0.0049261   -0.0026468    0.0006468
n    -3.6343321    0.4063696   -0.3246229  0.00   -0.0173373    0.0052348   -0.0057777
h    -4.1065578    1.5696874    1.3996032  0.00    0.0010299    0.0013895    0.0095184
h    -2.8429646    0.4295380   -1.0338634  0.00    0.0181659    0.0023503   -0.0114990
h    -3.3901159   -0.3326589    0.3929888  0.00    0.0000565   -0.0142609    0.0134402
o    -1.8172720    2.8370933   -0.8276995  0.00    0.0026653    0.0013812   -0.0092726
o    -1.8855863    2.9523620    1.5820619  0.00    0.0160562    0.0151934    0.0053989
h    -2.4044294    2.6069735    2.3869195  0.00   -0.0110608   -0.0091002    0.0095662
    13
 Energy =       0.0570725723
c    -3.8110738    1.7351372    0.3439598  0.00    0.0016662   -0.0036215   -0.0003368
c    -2.4561431    2.4567091    0.4572567  0.00   -0.0001270   -0.0036008   -0.0028771
c    -4.8173949    2.5488996   -0.4852567  0.00   -0.0035366    0.0043940    0.0000747
h    -4.4375966    2.6950892   -1.5261394  0.00    0.0012347    0.0012250   -0.0050369
h    -4.9948695    3.5460786   -0.0253993  0.00   -0.0009706    0.0011082    0.0002323
h    -5.7885424    2.0033531   -0.5398468  0.00   -0.0039096   -0.0017985    0.0004834
n    -3.6911685    0.4069201   -0.2790240  0.00   -0.0195666    0.0098408   -0.0056124
h    -4.2370637    1.6188762    1.3731382  0.00   -0.0022567   -0.0009570    0.0058201
h    -3.0017177    0.4500590   -1.0859881  0.00    0.0146001    0.0029689   -0.0136611
h    -3.2962370   -0.2752957    0.4321774  0.00    0.0054159   -0.0151386    0.0177877
o    -1.7615012    2.7870155   -0.7038511  0.00    0.0024155    0.0012876   -0.0042387
o    -1.8987210    2.8026098    1.6944344  0.00    0.0073341    0.0069710    0.0038678
h    -2.4500874    2.4669752    2.4730573  0.00   -0.0022994   -0.0026793    0.0034969
    13
 Energy =       0.0559431851
c    -3.8407530    1.7540382    0.3416915  0.00    0.0001394   -0.0008107    0.0000040
c    -2.4737916    2.4198747    0.5442455  0.00   -0.0017588   -0.0017816   -0.0013424
c    -4.7469284    2.5860607   -0.5713473  0.00   -0.0005696    0.0005423    0.0004598
h    -4.2829896    2.7068513   -1.5769144  0.00    0.0003964    0.0000827   -0.0013502
h    -4.9224784    3.5933896   -0.1366163  0.00   -0.0000201   -0.0002668    0.0000247
h    -5.7268327    2.0756126   -0.6985999  0.00   -0.0009010   -0.0001506   -0.0001046
n    -3.7237580    0.4108500   -0.2411590  0.00    0.0023663    0.0001096   -0.0011514
h    -4.3443035    1.6722752    1.3324958  0.00   -0.0006530   -0.0006214    0.0003895
h    -3.1265323    0.4526858   -1.1026920  0.00   -0.0008227    0.0008505    0.0018960
h    -3.2236398   -0.2139862    0.4344511  0.00   -0.0010744    0.0008502   -0.0002439
o    -1.7168970    2.7717957   -0.5680914  0.00    0.0008327    0.0002485   -0.0011410
o    -1.9493252    2.6618612    1.8160654  0.00    0.0035223    0.0013612    0.0006332
h    -2.5638871    2.3511180    2.5549893  0.00   -0.0014574   -0.0004139    0.0019262
    13
 Energy =       0.0559315874
c    -3.8386900    1.7478007    0.3399732  0.00    0.0003423   -0.0001604    0.0005053
c    -2.4662605    2.4009759    0.5459560  0.00   -0.0012097   -0.0012025   -0.0009156
c    -4.7497797    2.6101607   -0.5400676  0.00   -0.0007856    0.0003610    0.0000473
h    -4.2948521    2.7580809   -1.5461049  0.00    0.0003527    0.0001181   -0.0013489
h    -4.9168687    3.6057467   -0.0745106  0.00   -0.0001119    0.0003189    0.0002431
h    -5.7327532    2.1074677   -0.6728085  0.00   -0.0006761   -0.0001400   -0.0001176
n    -3.7359715    0.4193996   -0.2804873  0.00    0.0008772   -0.0001826   -0.0012861
h    -4.3315699    1.6417986    1.3339353  0.00   -0.0005324   -0.0004108    0.0006444
h    -3.1575825    0.4825885   -1.1544469  0.00   -0.0001676    0.0005049    0.0006199
h    -3.2210132   -0.2238655    0.3674145  0.00   -0.0002251   -0.0000975    0.0004658
o    -1.7125622    2.7647483   -0.5644840  0.00    0.0006003    0.0001772   -0.0009109
o    -1.9359296    2.6229809    1.8186174  0.00    0.0025738    0.0010069    0.0006415
h    -2.5482837    2.3045438    2.5555319  0.00   -0.0010379   -0.0002933    0.0014118
    13
 Energy =       0.0559079157
c    -3.8459072    1.7682878    0.3444753  0.00    0.0008734    0.0010344    0.0016229
c    -2.4797804    2.4367643    0.5429348  0.00   -0.0014118   -0.0008538   -0.0010292
c    -4.7505080    2.5870583   -0.5849828  0.00   -0.0013859    0.0002538   -0.0005739
h    -4.2832168    2.6953212   -1.5909456  0.00    0.0004520    0.0002161   -0.0019336
h    -4.9297261    3.6015683   -0.1644376  0.00   -0.0003102    0.0013704    0.0006374
h    -5.7285091    2.0727553   -0.7092934  0.00   -0.0006427   -0.0001922   -0.0001881
n    -3.7272318    0.4133159   -0.2161104  0.00   -0.0002659   -0.0015523   -0.0023099
h    -4.3521005    1.7050294    1.3362967  0.00   -0.0007921   -0.0003011    0.0014239
h    -3.1393146    0.4420827   -1.0862746  0.00    0.0004260    0.0003153   -0.0004623
h    -3.2155703   -0.1982735    0.4658308  0.00    0.0006235   -0.0011785    0.0015416
o    -1.7501814    2.8407991   -0.5705267  0.00    0.0010027    0.0003910   -0.0020027
o    -1.9246209    2.6178358    1.8120171  0.00    0.0029684    0.0012225    0.0007033
h    -2.5154495    2.2598820    2.5495349  0.00   -0.0015374   -0.0007256    0.0025707
    13
 Energy =       0.0558461751
c    -3.8570704    1.7951904    0.3470550  0.00    0.0001534    0.0004665   -0.0002594
c    -2.4900537    2.4601611    0.5456124  0.00   -0.0013922    0.0000205   -0.0017155
c    -4.7418086    2.5830103   -0.6238350  0.00   -0.0000511   -0.0000350    0.0000252
h    -4.2577863    2.6550367   -1.6230486  0.00    0.0000458    0.0000775    0.0000163
h    -4.9226030    3.6114795   -0.2429010  0.00   -0.0000761    0.0002035    0.0000808
h    -5.7192567    2.0688457   -0.7453907  0.00    0.0002308    0.0000756    0.0000705
n    -3.7411080    0.4189344   -0.1566111  0.00   -0.0004072   -0.0008165    0.0003426
h    -4.3775310    1.7770119    1.3322520  0.00   -0.0004105    0.0000536    0.0002487
h    -3.1583276    0.4112954   -1.0307071  0.00    0.0004214    0.0000047   -0.0007793
h    -3.2249010   -0.1636540    0.5454687  0.00    0.0001729   -0.0001708    0.0001232
o    -1.7906071    2.9310389   -0.5611037  0.00    0.0005329    0.0003550   -0.0025245
o    -1.8986727    2.5566819    1.8077940  0.00    0.0015558    0.0005667    0.0019338
h    -2.4623904    2.1373945    2.5339334  0.00   -0.0007759   -0.0008012    0.0024375
    13
 Energy =       0.0558261620
c    -3.8617042    1.8070252    0.3483481  0.00    0.0004335    0.0009177    0.0006629
c    -2.5014271    2.4859290    0.5474863  0.00   -0.0004970    0.0001164   -0.0004867
c    -4.7371534    2.5565261   -0.6622661  0.00   -0.0006456   -0.0001042   -0.0003948
h    -4.2402930    2.5952383   -1.6576105  0.00    0.0001646    0.0000597   -0.0006291
h    -4.9270321    3.5976979   -0.3203081  0.00   -0.0002090    0.0008777    0.0002806
h    -5.7109646    2.0339540   -0.7785774  0.00    0.0000374   -0.0000087   -0.0000325
n    -3.7301013    0.4148811   -0.1072690  0.00   -0.0008716   -0.0010930   -0.0006030
h    -4.3961112    1.8194632    1.3265949  0.00   -0.0003336    0.0001340    0.0006816
h    -3.1326451    0.3810800   -0.9709365  0.00    0.0006141   -0.0001623   -0.0010317
h    -3.2232824   -0.1418568    0.6230121  0.00    0.0006615   -0.0007862    0.0009193
o    -1.8087996    2.9722186   -0.5559434  0.00    0.0003515    0.0001691   -0.0011526
o    -1.9070588    2.5760955    1.8071377  0.00    0.0006993    0.0002623    0.0006826
h    -2.4655439    2.1441747    2.5288504  0.00   -0.0004050   -0.0003826    0.0011032
    13
 Energy =       0.0558134496
c    -3.8659948    1.8178532    0.3488085  0.00   -0.0001188   -0.0002869   -0.0002051
c    -2.5054145    2.4960820    0.5481131  0.00   -0.0003331   -0.0001634   -0.0000288
c    -4.7343737    2.5532006   -0.6764242  0.00    0.0001594    0.0000253    0.0001399
h    -4.2333484    2.5743501   -1.6694086  0.00   -0.0000174    0.0000017    0.0000982
h    -4.9211529    3.5995418   -0.3524645  0.00    0.0000468   -0.0001954   -0.0000501
h    -5.7098277    2.0325729   -0.7880423  0.00   -0.0000241   -0.0000136    0.0000176
n    -3.7353078    0.4203101   -0.0852421  0.00    0.0001927    0.0003212    0.0001865
h    -4.4048973    1.8459351    1.3234291  0.00    0.0000411   -0.0000477   -0.0001632
h    -3.1312032    0.3725968   -0.9425456  0.00   -0.0001297    0.0000623    0.0002125
h    -3.2369845   -0.1272167    0.6563222  0.00   -0.0001419    0.0001680   -0.0002258
o    -1.8294364    3.0184698   -0.5487102  0.00    0.0001833    0.0001544   -0.0004948
o    -1.8930777    2.5476969    1.8004891  0.00    0.0002085    0.0000412    0.0003646
h    -2.4410978    2.0910341    2.5141938  0.00   -0.0000670   -0.0000672    0.0001484
    13
 Energy =       0.0558128744
c    -3.8665190    1.8192194    0.3490091  0.00    0.0000121    0.0000286    0.0000211
c    -2.5062197    2.4979371    0.5486459  0.00    0.0000134    0.0000111    0.0000007
c    -4.7346355    2.5531299   -0.6779157  0.00   -0.0000173   -0.0000026   -0.0000142
h    -4.2330952    2.5729853   -1.6707648  0.00    0.0000016    0.0000003   -0.0000105
h    -4.9218471    3.6000911   -0.3554773  0.00   -0.0000053    0.0000209    0.0000059
h    -5.7098772    2.0321517   -0.7894005  0.00    0.0000022    0.0000014   -0.0000016
n    -3.7352377    0.4207542   -0.0830707  0.00   -0.0000196   -0.0000340   -0.0000200
h    -4.4058775    1.8487718    1.3235375  0.00   -0.0000055    0.0000049    0.0000169
h    -3.1308469    0.3718305   -0.9402846  0.00    0.0000138   -0.0000059   -0.0000229
h    -3.2370247   -0.1257152    0.6596273  0.00    0.0000154   -0.0000175    0.0000236
o    -1.8335544    3.0275107   -0.5463663  0.00   -0.0000035   -0.0000061    0.0000117
o    -1.8907685    2.5426160    1.7994141  0.00   -0.0000051    0.0000024   -0.0000178
h    -2.4366133    2.0811442    2.5115645  0.00   -0.0000024   -0.0000034    0.0000070
    13
 Energy =       0.0558128711
c    -3.8665570    1.8193055    0.3490079  0.00    0.0000000   -0.0000000    0.0000000
c    -2.5062712    2.4980452    0.5486599  0.00   -0.0000001   -0.0000000   -0.0000000
c    -4.7346250    2.5530867   -0.6780123  0.00   -0.0000000   -0.0000000   -0.0000000
h    -4.2330543    2.5728198   -1.6708379  0.00    0.0000000   -0.0000000   -0.0000000
h    -4.9218193    3.6000717   -0.3557125  0.00   -0.0000000    0.0000000    0.0000000
h    -5.7098757    2.0321108   -0.7894549  0.00   -0.0000000   -0.0000000   -0.0000000
n    -3.7352535    0.4208297   -0.0829194  0.00   -0.0000000   -0.0000000   -0.0000000
h    -4.4059529    1.8489454    1.3234960  0.00   -0.0000000    0.0000000    0.0000000
h    -3.1307896    0.3718306   -0.9400585  0.00    0.0000000   -0.0000000   -0.0000000
h    -3.2371226   -0.1255712    0.6598566  0.00    0.0000000   -0.0000000    0.0000000
o    -1.8338032    3.0280467   -0.5462768  0.00    0.0000000    0.0000000   -0.0000001
o    -1.8906258    2.5423148    1.7993546  0.00    0.0000001    0.0000000    0.0000001
h    -2.4363666    2.0805912    2.5114157  0.00   -0.0000000   -0.0000000    0.0000001
