23
UFF-Energy = 0.0882773
C    -5.7378432    1.9821787    0.6212535 
C    -5.5809099    0.6411384    0.7520031 
C    -4.4584615    0.0340497    0.2996837 
C    -4.7651408    2.7621521    0.0317838 
C    -3.6336581    2.1138847   -0.4163634 
C    -3.4934877    0.7716466   -0.2813946 
H    -2.8385611    2.6293564   -0.9427723 
H    -2.6047472    0.2706649   -0.6502591 
H    -6.3561605    0.0541845    1.2322131 
H    -6.6366614    2.4056756    1.0549334 
O    -4.2712695   -1.3472604    0.4196061 
H    -5.0416701   -1.8315724    0.8664016 
C    -4.9178527    4.1358630   -0.1040157 
C    -6.1643277    4.7260766   -0.1170842 
C    -6.3061586    6.0669020   -0.2515572 
C    -5.2202630    6.8576052   -0.3729877 
C    -3.9860973    6.3136926   -0.3626077 
C    -3.8301114    4.9740544   -0.2322380 
H    -2.8101359    4.6122055   -0.1775455 
H    -3.1131238    6.9555162   -0.4486111 
H    -7.0797885    4.1475776   -0.0792883 
H    -7.2993790    6.5078739   -0.2728030 
H    -5.3396512    7.9325583   -0.4792826 
