    27
 Energy =     139.2605674720
c    -1.4235396    2.6054793   -0.0667700  0.00   -0.0462973    0.0383201    0.0027555
c    -1.3072796    1.2134697   -0.1072300  0.00   -0.0853661   -0.0326094    0.0020306
c    -0.0178900    0.6711998   -0.1697000  0.00   -0.0891232   -0.1875793   -0.0012789
c    -0.2940599    3.4190890   -0.0891300  0.00   -0.0232034    0.0691053    0.0029385
c     0.9872197    2.8590292   -0.1560400  0.00    0.0106302    0.0641094    0.0010688
c     1.1340797    1.4562096   -0.1970299  0.00    0.0527441    0.0521107    0.0019613
n     0.3879399   -0.6395298   -0.2140799  0.00    0.1471076    0.1077800   -0.0028034
c     2.2666594    0.5727398   -0.2659299  0.00    0.1424050   -0.0586918   -0.0185973
c     1.7555995   -0.7123598   -0.2706899  0.00   -0.0910389   -0.0977623    0.0059387
h    -0.2400399   -1.4313496   -0.2047299  0.00    0.0365577    0.0484155   -0.0006254
c     3.7030089    1.0223397   -0.3320099  0.00    0.0071679   -0.0053019   -0.0265882
c     4.7465686   -0.0024900    0.1378100  0.00   -0.0046178    0.0076007    0.0383907
h     3.7978489    1.9290294    0.2803699  0.00   -0.0052025   -0.0068156   -0.0126437
h     3.9233889    1.3348996   -1.3618196  0.00   -0.0019792   -0.0046818    0.0149810
c     4.8964886   -1.0916697   -0.9404947  0.00    0.0458982   -0.0181587   -0.3030367
n     4.3764788   -0.6892298    1.4261196  0.00    0.0780876   -1.1848958   -0.6112851
h     5.7313184    0.4619039    0.2668599  0.00   -0.0155115   -0.0185376    0.0154233
h     4.2447788   -1.6827795    1.2102197  0.00  457.8412567-1097.1381852-1523.3871223
h     5.2037485   -0.6771758    2.0330494  0.00   -0.0238371    0.0000249   -0.0294645
h    -2.4108593    3.0588691   -0.0157800  0.00   -0.0007671    0.0002439    0.0000397
h    -2.1896094    0.5822398   -0.0890100  0.00   -0.0036270    0.0038654    0.0000656
h    -0.4052699    4.5000487   -0.0535400  0.00    0.0008756    0.0001868    0.0002894
h     1.8590495    3.5066790   -0.1715100  0.00   -0.0005670    0.0025563    0.0006676
h     2.2327294   -1.6813195   -0.3062999  0.00   -0.0365978   -0.0099616    0.0029446
o     5.1775685   -0.8974357   -2.1114694  0.00   -0.0711171   -0.0523574    0.2865612
o     4.6751387   -2.3299593   -0.4225999  0.00   -0.1237509    0.2437141    0.5020332
h     4.4490287   -2.1723194    0.5306228  0.00 -457.7401267 1098.1775057 1523.5153560
    27
 Energy =       9.0536121346
c    -1.4235369    2.6054770   -0.0667701  0.00   -0.0463001    0.0383162    0.0027429
c    -1.3072747    1.2134715   -0.1072301  0.00   -0.0853671   -0.0326144    0.0020181
c    -0.0178848    0.6712107   -0.1696999  0.00   -0.0890756   -0.1875136   -0.0012340
c    -0.2940586    3.4190850   -0.0891301  0.00   -0.0232101    0.0691002    0.0029246
c     0.9872191    2.8590255   -0.1560400  0.00    0.0106142    0.0641164    0.0010440
c     1.1340766    1.4562066   -0.1970301  0.00    0.0527469    0.0520815    0.0019898
n     0.3879313   -0.6395361   -0.2140798  0.00    0.1470306    0.1076261   -0.0030262
c     2.2666511    0.5727432   -0.2659288  0.00    0.1423918   -0.0586906   -0.0185348
c     1.7556048   -0.7123541   -0.2706903  0.00   -0.0910748   -0.0976805    0.0059554
h    -0.2400421   -1.4313524   -0.2047299  0.00    0.0365626    0.0484725   -0.0005505
c     3.7030085    1.0223400   -0.3320084  0.00    0.0072079   -0.0053026   -0.0268048
c     4.7465689   -0.0024904    0.1378077  0.00   -0.0003411    0.0357933    0.0383974
h     3.7978492    1.9290298    0.2803707  0.00   -0.0052091   -0.0068689   -0.0125592
h     3.9233890    1.3348999   -1.3618205  0.00   -0.0019979   -0.0046358    0.0150442
c     4.8964859   -1.0916686   -0.9404771  0.00    0.0524061   -0.0161285   -0.3269933
n     4.3764742   -0.6891610    1.4261551  0.00    0.0371293   -0.7518399   -0.3307989
h     5.7313193    0.4619049    0.2668590  0.00   -0.0155872   -0.0184854    0.0156175
h     4.2181864   -1.6190554    1.2987013  0.00   22.6171981  -53.9162597  -75.1428027
h     5.2037499   -0.6771758    2.0330511  0.00   -0.0235093   -0.0009274   -0.0274376
h    -2.4108593    3.0588691   -0.0157800  0.00   -0.0007636    0.0002445    0.0000479
h    -2.1896092    0.5822396   -0.0890100  0.00   -0.0036252    0.0038671    0.0000782
h    -0.4052699    4.5000487   -0.0535400  0.00    0.0008809    0.0001855    0.0002996
h     1.8590495    3.5066789   -0.1715100  0.00   -0.0005593    0.0025469    0.0006886
h     2.2327315   -1.6813189   -0.3063001  0.00   -0.0371827   -0.0097018    0.0029562
o     5.1775727   -0.8974327   -2.1114860  0.00   -0.0710715   -0.0529381    0.2870260
o     4.6751459   -2.3299735   -0.4226290  0.00   -0.1005536    0.1864782    0.4371877
h     4.4756153   -2.2361039    0.4421338  0.00  -22.5087401   54.5507590   75.0767238
    27
 Energy =       4.6160732804
c    -1.3363830    2.5928314   -0.0789746  0.00   -0.0087745    0.0068544    0.0008144
c    -1.2446699    1.2265105   -0.1039675  0.00   -0.0188241   -0.0079519    0.0006262
c    -0.0061545    0.6678450   -0.1433673  0.00   -0.0146123   -0.0421214   -0.0000894
c    -0.2029449    3.3666470   -0.0957173  0.00   -0.0065967    0.0144257    0.0010759
c     1.0373602    2.7809336   -0.1400202  0.00    0.0033478    0.0150098    0.0001845
c     1.1157462    1.4134638   -0.1631159  0.00    0.0087918    0.0136721   -0.0003701
n     0.3120515   -0.7009539   -0.1980120  0.00    0.0293755    0.0195635   -0.0002773
c     2.1991312    0.5849748   -0.2229419  0.00    0.0351209   -0.0106428   -0.0050436
c     1.7292129   -0.6890103   -0.2634820  0.00   -0.0256101   -0.0152146    0.0023944
h    -0.3303361   -1.5159046   -0.1967517  0.00    0.0088078    0.0113953    0.0003586
c     3.6454010    1.0425457   -0.3096694  0.00    0.0006154   -0.0019374   -0.0064746
c     4.7150972    0.0059435    0.1013078  0.00    0.0000570   -0.0088158    0.0058193
h     3.7708168    1.9265793    0.3478833  0.00   -0.0010684   -0.0000998   -0.0032935
h     3.8387709    1.3862575   -1.3483512  0.00   -0.0006886   -0.0018906    0.0021592
c     4.8737154   -1.0610440   -0.9243467  0.00    0.0104072   -0.0072251   -0.0652606
n     4.3770154   -0.6129931    1.4002868  0.00    0.0345780   -0.2350376   -0.1885242
h     5.7032226    0.5104022    0.1699257  0.00   -0.0021910   -0.0039740    0.0047749
h     4.1356456   -1.6837953    1.4036382  0.00   10.7076558  -25.7077260  -35.6595036
h     5.1894113   -0.5184227    2.0502992  0.00   -0.0020782    0.0006913   -0.0018340
h    -2.3147113    3.0676056   -0.0541775  0.00   -0.0005602    0.0003291   -0.0007047
h    -2.1333940    0.6043915   -0.1001251  0.00   -0.0006603    0.0007264   -0.0002915
h    -0.2876377    4.4512649   -0.0822129  0.00    0.0001766    0.0007013   -0.0004124
h     1.9326363    3.3963326   -0.1621381  0.00    0.0011800    0.0003471    0.0001605
h     2.3125040   -1.6016353   -0.3590642  0.00   -0.0028063   -0.0069250   -0.0004173
o     5.1797577   -0.7768701   -2.2119527  0.00   -0.0174469   -0.0033087    0.0665920
o     4.6403138   -2.3418070   -0.4720113  0.00   -0.0370074    0.0863180    0.1504409
h     4.4085151   -2.3364850    0.4962470  0.00  -10.7011888   25.8828368   35.6970961
    27
 Energy =       2.7202723959
c    -1.3179532    2.6162420   -0.0964703  0.00   -0.0035230    0.0025001    0.0002168
c    -1.2466104    1.2525075   -0.1136327  0.00   -0.0074551   -0.0029804    0.0003034
c    -0.0221565    0.6751164   -0.1173452  0.00   -0.0045150   -0.0157778    0.0002635
c    -0.1735614    3.3681603   -0.0901113  0.00   -0.0024621    0.0056878    0.0003697
c     1.0517415    2.7619319   -0.1022156  0.00    0.0021146    0.0054651   -0.0001486
c     1.1036108    1.3994832   -0.1127978  0.00    0.0041100    0.0048133   -0.0004980
n     0.2708279   -0.7062749   -0.1830386  0.00    0.0104611    0.0068333   -0.0006780
c     2.1708556    0.5706162   -0.1589998  0.00    0.0130854   -0.0041539   -0.0021771
c     1.6996821   -0.6968663   -0.2231366  0.00   -0.0091377   -0.0055453    0.0010155
h    -0.3851707   -1.5174322   -0.1995364  0.00    0.0027053    0.0040337   -0.0001089
c     3.6160748    1.0289057   -0.2782340  0.00   -0.0001322   -0.0014441   -0.0039083
c     4.7075165    0.0090123    0.1170804  0.00   -0.0010152   -0.0036935   -0.0008934
h     3.7618153    1.9318241    0.3500740  0.00    0.0001429    0.0013645   -0.0042557
h     3.7784936    1.3457915   -1.3352402  0.00   -0.0007057   -0.0030935   -0.0025046
c     4.8619374   -1.0579633   -0.9439958  0.00    0.0044724   -0.0041458   -0.0207636
n     4.4342632   -0.5943963    1.4601084  0.00   -0.0046998   -0.1085894   -0.0861864
h     5.6856737    0.5453339    0.1292814  0.00    0.0009720    0.0000769   -0.0011415
h     4.1442010   -1.6568321    1.3876702  0.00    5.7974775  -13.9461384  -19.3299378
h     5.3481644   -0.6144604    2.0035313  0.00    0.0264228    0.0004397    0.0118895
h    -2.2885003    3.1075431   -0.0994189  0.00   -0.0005130    0.0005009   -0.0006506
h    -2.1447141    0.6437914   -0.1356412  0.00   -0.0007097    0.0002527   -0.0004572
h    -0.2387251    4.4540846   -0.0861058  0.00    0.0003492    0.0004866   -0.0003638
h     1.9562295    3.3632550   -0.1130220  0.00    0.0010593   -0.0001213   -0.0001113
h     2.2904493   -1.5998564   -0.3473728  0.00   -0.0013152   -0.0033237   -0.0009431
o     5.1349908   -0.7414785   -2.2569743  0.00   -0.0089590   -0.0045793    0.0238482
o     4.6302231   -2.3622249   -0.5513992  0.00   -0.0202685    0.0346527    0.0678334
h     4.4307347   -2.3402060    0.4361314  0.00   -5.7979614   14.0364792   19.3499880
    27
 Energy =       1.8085357189
c    -1.3179325    2.6245977   -0.0798053  0.00   -0.0017017    0.0013614    0.0002213
c    -1.2498350    1.2615945   -0.1034820  0.00   -0.0038012   -0.0012598    0.0002241
c    -0.0286215    0.6817005   -0.1320205  0.00   -0.0018359   -0.0077137    0.0000990
c    -0.1724116    3.3730130   -0.0917948  0.00   -0.0010226    0.0030175    0.0001481
c     1.0489981    2.7638548   -0.1236738  0.00    0.0013622    0.0027371   -0.0002325
c     1.0952570    1.4034436   -0.1378855  0.00    0.0022047    0.0024511   -0.0003437
n     0.2619384   -0.7041311   -0.1875233  0.00    0.0050711    0.0033382   -0.0004617
c     2.1582985    0.5769778   -0.1783208  0.00    0.0058464   -0.0023581   -0.0011938
c     1.6944605   -0.6912402   -0.2274100  0.00   -0.0045395   -0.0021606    0.0005330
h    -0.3946685   -1.5166933   -0.1970638  0.00    0.0011786    0.0021105    0.0000038
c     3.6059920    1.0328464   -0.2567653  0.00   -0.0003053   -0.0020686   -0.0026798
c     4.6729553   -0.0130450    0.1289363  0.00   -0.0013370   -0.0024127   -0.0012546
h     3.7416613    1.9056669    0.4178558  0.00    0.0006001    0.0017909   -0.0020195
h     3.7957005    1.3936636   -1.2957913  0.00   -0.0002190   -0.0016403   -0.0031259
c     4.8759150   -1.0372384   -0.9778605  0.00    0.0018946    0.0042320   -0.0095442
n     4.3399727   -0.6469840    1.4415602  0.00   -0.0242659   -0.0399940   -0.0512214
h     5.6530106    0.5184636    0.1975164  0.00    0.0015708    0.0010340   -0.0005952
h     4.2485054   -1.7363607    1.3375100  0.00    3.5443091   -8.5475125  -11.8249609
h     5.1894113   -0.5335909    2.0804407  0.00    0.0340500    0.0036208    0.0181033
h    -2.2868912    3.1184567   -0.0578487  0.00   -0.0003964    0.0006136   -0.0000382
h    -2.1493659    0.6548064   -0.1041908  0.00   -0.0005889    0.0002979    0.0000270
h    -0.2342679    4.4590179   -0.0806212  0.00    0.0003763    0.0003995   -0.0001825
h     1.9552762    3.3622515   -0.1433204  0.00    0.0007319   -0.0000452   -0.0003749
h     2.3021274   -1.5914533   -0.3099255  0.00    0.0011550   -0.0028430   -0.0004423
o     5.1680481   -0.6433144   -2.2757633  0.00   -0.0034292   -0.0017614    0.0082250
o     4.7412567   -2.3844369   -0.6528446  0.00   -0.0102473    0.0104415    0.0302750
h     4.5453025   -2.4462590    0.3492805  0.00   -3.5466611    8.5743241   11.8408113
    27
 Energy =       1.0856554578
c    -1.3215634    2.6228808   -0.0792100  0.00   -0.0004868    0.0005477    0.0001251
c    -1.2514638    1.2607618   -0.0919734  0.00   -0.0011875   -0.0003657    0.0002869
c    -0.0311307    0.6829458   -0.1212199  0.00   -0.0005872   -0.0022862    0.0001719
c    -0.1775751    3.3721600   -0.0999573  0.00   -0.0002334    0.0010610   -0.0001178
c     1.0434510    2.7643544   -0.1264936  0.00    0.0004746    0.0009189   -0.0002960
c     1.0902395    1.4054362   -0.1316965  0.00    0.0005975    0.0008168   -0.0001653
n     0.2607012   -0.7044662   -0.1620577  0.00    0.0015736    0.0009646    0.0002024
c     2.1538954    0.5833415   -0.1613462  0.00    0.0012830   -0.0013528   -0.0002331
c     1.6948362   -0.6856092   -0.2040800  0.00   -0.0012802   -0.0006802    0.0002910
h    -0.3939168   -1.5199517   -0.1655078  0.00    0.0002932    0.0006930    0.0005017
c     3.6036592    1.0443826   -0.1978613  0.00   -0.0005115   -0.0024272   -0.0009726
c     4.6684273   -0.0209325    0.1420286  0.00   -0.0008716    0.0002964   -0.0001789
h     3.7229275    1.8720951    0.5384503  0.00    0.0005850    0.0027606    0.0008581
h     3.8098121    1.4737498   -1.2083289  0.00    0.0002435    0.0002723   -0.0036816
c     4.9098584   -0.9844746   -1.0231557  0.00   -0.0011079    0.0030354    0.0008114
n     4.3069569   -0.7146306    1.4114121  0.00   -0.0099496   -0.0195448   -0.0170262
h     5.6427866    0.5123690    0.2635227  0.00    0.0014455    0.0014832   -0.0002204
h     4.2360179   -1.7790104    1.2303000  0.00    1.8241580   -4.3970169   -6.0924962
h     5.1142256   -0.6197492    2.0835416  0.00    0.0130654    0.0019663    0.0063513
h    -2.2909507    3.1151129   -0.0577363  0.00   -0.0000570    0.0003172    0.0000797
h    -2.1494408    0.6520664   -0.0819776  0.00   -0.0002295    0.0001619    0.0004249
h    -0.2410538    4.4580158   -0.0986758  0.00    0.0002239    0.0002401   -0.0003904
h     1.9495610    3.3628073   -0.1512049  0.00    0.0003552   -0.0000261   -0.0005662
h     2.3083101   -1.5815264   -0.2735379  0.00    0.0009571   -0.0010438    0.0002168
o     5.2649853   -0.4978939   -2.2823022  0.00    0.0018167    0.0026240   -0.0050474
o     4.7879161   -2.3624058   -0.8022710  0.00   -0.0012508   -0.0009638    0.0016660
h     4.5486217   -2.5262213    0.1905273  0.00   -1.8293191    4.4075484    6.1094053
    27
 Energy =       0.6009292710
c    -1.3278898    2.6172766   -0.0897032  0.00   -0.0005065   -0.0001325    0.0000345
c    -1.2540168    1.2562123   -0.1277268  0.00   -0.0003812   -0.0003082    0.0001782
c    -0.0323686    0.6823266   -0.1402520  0.00   -0.0002639   -0.0004587    0.0001750
c    -0.1854036    3.3694423   -0.0676417  0.00    0.0005344    0.0004895   -0.0001024
c     1.0373608    2.7651895   -0.0793057  0.00    0.0002914    0.0004242   -0.0001278
c     1.0870688    1.4072795   -0.1132428  0.00    0.0002189    0.0000183   -0.0000348
n     0.2628218   -0.7041705   -0.1942251  0.00   -0.0006010    0.0001525    0.0002101
c     2.1532388    0.5897970   -0.1347874  0.00   -0.0000606   -0.0007491    0.0001986
c     1.6984289   -0.6801420   -0.1995844  0.00    0.0003480   -0.0000534    0.0001654
h    -0.3893575   -1.5220333   -0.2237130  0.00   -0.0004043   -0.0003404    0.0003458
c     3.6031862    1.0571539   -0.1273824  0.00   -0.0014899   -0.0015020    0.0002109
c     4.6668564   -0.0324448    0.1329038  0.00    0.0001835   -0.0022448    0.0016037
h     3.7131691    1.8239599    0.6754582  0.00    0.0003388    0.0029496    0.0026424
h     3.8162758    1.5653388   -1.0993010  0.00    0.0004127    0.0016826   -0.0034245
c     4.8590360   -0.9670100   -1.0717264  0.00   -0.0007810    0.0009121    0.0025533
n     4.3357123   -0.7392279    1.3967354  0.00   -0.0016280   -0.0045869   -0.0040480
h     5.6520180    0.4818256    0.2353848  0.00    0.0005706    0.0000460   -0.0000196
h     4.3156927   -1.7932376    1.2132459  0.00    0.7309787   -1.7606549   -2.4450907
h     5.1166755   -0.6038213    2.0822138  0.00    0.0026410   -0.0000758    0.0010377
h    -2.2990332    3.1062464   -0.0804944  0.00   -0.0000898    0.0000665    0.0000368
h    -2.1503042    0.6447052   -0.1498574  0.00   -0.0004542   -0.0002366    0.0002583
h    -0.2518721    4.4549352   -0.0430280  0.00    0.0002086    0.0003603   -0.0002046
h     1.9430730    3.3656457   -0.0670886  0.00    0.0006823    0.0003900   -0.0002121
h     2.3152416   -1.5741812   -0.2540931  0.00    0.0004077   -0.0001909    0.0002680
o     5.1062322   -0.4325399   -2.3393347  0.00    0.0019737    0.0034943   -0.0082754
o     4.8164616   -2.3584236   -0.8922336  0.00    0.0005780   -0.0024269   -0.0038594
h     4.6517902   -2.5944949    0.0979684  0.00   -0.7337082    1.7629751    2.4554806
    27
 Energy =       0.4551443919
c    -1.3312587    2.6047249   -0.0998863  0.00   -0.0009337    0.0002156    0.0000458
c    -1.2511322    1.2457969   -0.1932342  0.00   -0.0004645   -0.0015892   -0.0000116
c    -0.0272018    0.6769998   -0.2007690  0.00   -0.0004909   -0.0004973    0.0000775
c    -0.1924665    3.3600268   -0.0200436  0.00    0.0012728    0.0013403    0.0000589
c     1.0328378    2.7609365   -0.0299532  0.00    0.0003882    0.0015301    0.0000437
c     1.0888697    1.4047471   -0.1188500  0.00    0.0006547    0.0000925    0.0000110
n     0.2739379   -0.7060992   -0.3054269  0.00   -0.0004214   -0.0009719    0.0000022
c     2.1584443    0.5916733   -0.1505788  0.00    0.0004069    0.0011414    0.0002760
c     1.7091737   -0.6771761   -0.2761444  0.00   -0.0001776   -0.0010826   -0.0000752
h    -0.3743926   -1.5250980   -0.3824662  0.00   -0.0012912   -0.0015972    0.0000181
c     3.6073077    1.0616121   -0.1050230  0.00   -0.0004455   -0.0004864    0.0001649
c     4.6648459   -0.0278738    0.1748261  0.00    0.0002757   -0.0010103    0.0006225
h     3.6981403    1.8214486    0.7040963  0.00    0.0002213    0.0014050    0.0013327
h     3.8426678    1.5757497   -1.0665879  0.00    0.0002243    0.0008220   -0.0017858
c     4.8816594   -0.9574507   -1.0298853  0.00   -0.0003010    0.0005915    0.0011312
n     4.3059851   -0.7298818    1.4324330  0.00   -0.0012939   -0.0031846   -0.0023988
h     5.6474925    0.4865884    0.2981035  0.00    0.0004626    0.0000722    0.0000027
h     4.2874167   -1.7803339    1.2602998  0.00    0.4202581   -1.0111979   -1.4054378
h     5.0655254   -0.5858722    2.1392465  0.00    0.0017302   -0.0000317    0.0009704
h    -2.3044431    3.0895619   -0.0924354  0.00   -0.0000718    0.0000494    0.0000356
h    -2.1443229    0.6319220   -0.2622754  0.00   -0.0010067   -0.0009475    0.0000481
h    -0.2639299    4.4440305    0.0494624  0.00    0.0003403    0.0012541   -0.0000013
h     1.9353193    3.3645201    0.0280562  0.00    0.0010851    0.0010205   -0.0000323
h     2.3293037   -1.5675362   -0.3510925  0.00    0.0001464   -0.0004437    0.0001043
o     5.1572699   -0.4107401   -2.2835692  0.00    0.0008633    0.0017529   -0.0043018
o     4.8245073   -2.3505390   -0.8760002  0.00    0.0001432   -0.0012587   -0.0019174
h     4.6385371   -2.6161300    0.0968861  0.00   -0.4215751    1.0130117    1.4110162
    27
 Energy =       0.3402318808
c    -1.3312129    2.5944947   -0.1288040  0.00   -0.0008888    0.0001046    0.0000075
c    -1.2439922    1.2404629   -0.2704823  0.00   -0.0004530   -0.0014445   -0.0000853
c    -0.0183968    0.6753707   -0.2666930  0.00   -0.0004398   -0.0003054    0.0000113
c    -0.1975113    3.3489515    0.0085884  0.00    0.0012250    0.0012137    0.0001147
c     1.0297881    2.7538733    0.0079158  0.00    0.0004429    0.0013908    0.0001048
c     1.0930115    1.4020669   -0.1291560  0.00    0.0007562    0.0002636    0.0000486
n     0.2895131   -0.7018023   -0.4171125  0.00   -0.0003308   -0.0009744   -0.0000889
c     2.1659067    0.5930439   -0.1652786  0.00    0.0004151    0.0017856    0.0002331
c     1.7232920   -0.6709064   -0.3516816  0.00   -0.0004155   -0.0011044   -0.0001591
h    -0.3540822   -1.5188468   -0.5412193  0.00   -0.0013193   -0.0016634   -0.0001436
c     3.6127566    1.0638233   -0.0764600  0.00    0.0000024    0.0001782    0.0001190
c     4.6631551   -0.0232499    0.2368408  0.00    0.0007683   -0.0004384    0.0008076
h     3.6797029    1.8222926    0.7344843  0.00    0.0000704    0.0003634    0.0004695
h     3.8761603    1.5786279   -1.0290245  0.00    0.0001033    0.0002643   -0.0006737
c     4.9232720   -0.9457635   -0.9660857  0.00   -0.0003545    0.0009151    0.0015700
n     4.2699343   -0.7155695    1.4885711  0.00   -0.0018124    0.0003658   -0.0013269
h     5.6385568    0.4977283    0.3889814  0.00    0.0005201    0.0000994    0.0000917
h     4.1879488   -1.7591698    1.3220774  0.00    0.1847137   -0.4466718   -0.6175807
h     5.0353884   -0.6145313    2.1965343  0.00    0.0014591    0.0002644    0.0010808
h    -2.3059693    3.0762047   -0.1289463  0.00   -0.0000855   -0.0000115    0.0000165
h    -2.1329407    0.6274926   -0.3864327  0.00   -0.0010044   -0.0009324   -0.0000671
h    -0.2745925    4.4292365    0.1164866  0.00    0.0003205    0.0010327    0.0000723
h     1.9278435    3.3576845    0.1109825  0.00    0.0009897    0.0009183    0.0000639
h     2.3462059   -1.5565564   -0.4506221  0.00   -0.0001259   -0.0005614   -0.0000314
o     5.2846372   -0.3808137   -2.1904552  0.00    0.0011973    0.0027251   -0.0053181
o     4.8088061   -2.3405022   -0.8578874  0.00   -0.0001224   -0.0014785   -0.0017419
h     4.5629125   -2.6480348    0.0840673  0.00   -0.1856320    0.4437008    0.6224055
    27
 Energy =       0.3255732526
c    -1.3244534    2.6050865   -0.2505802  0.00   -0.0011775    0.0005474    0.0000153
c    -1.2379667    1.2480072   -0.3620566  0.00   -0.0009312   -0.0010257   -0.0001015
c    -0.0145079    0.6786480   -0.3125415  0.00   -0.0003600   -0.0001072    0.0000361
c    -0.1920370    3.3581191   -0.0968169  0.00    0.0003556    0.0014545    0.0000797
c     1.0331553    2.7586135   -0.0510943  0.00    0.0008781    0.0010470    0.0001184
c     1.0954044    1.4041044   -0.1591522  0.00    0.0005645    0.0001579    0.0000254
n     0.2929135   -0.7027372   -0.4239262  0.00   -0.0006144   -0.0011587   -0.0001295
c     2.1664730    0.5908359   -0.1478198  0.00    0.0006655    0.0009890    0.0002229
c     1.7248332   -0.6757193   -0.3173964  0.00    0.0004443   -0.0010547   -0.0001037
h    -0.3498407   -1.5201178   -0.5482893  0.00   -0.0010897   -0.0013905   -0.0001192
c     3.6117674    1.0595488   -0.0244921  0.00    0.0003994   -0.0001313    0.0001376
c     4.6548821   -0.0310197    0.3001483  0.00    0.0006793   -0.0003978    0.0005600
h     3.6613435    1.8121596    0.7933580  0.00    0.0001401    0.0003789    0.0005812
h     3.8953808    1.5812084   -0.9676572  0.00    0.0001650    0.0003179   -0.0007915
c     4.9234663   -0.9546012   -0.9006614  0.00   -0.0002854    0.0007789    0.0013043
n     4.2462078   -0.7181085    1.5496975  0.00   -0.0024181    0.0007403   -0.0016353
h     5.6308031    0.4863021    0.4608732  0.00    0.0004816    0.0001129    0.0000494
h     4.1903005   -1.7643402    1.3963183  0.00    0.1552925   -0.3762610   -0.5197185
h     4.9893877   -0.5888795    2.2774410  0.00    0.0021580    0.0003699    0.0018443
h    -2.2974920    3.0902414   -0.2876995  0.00   -0.0006923    0.0003656   -0.0000039
h    -2.1257212    0.6359169   -0.4898641  0.00   -0.0009610   -0.0007314   -0.0000610
h    -0.2684239    4.4406826   -0.0128014  0.00    0.0000706    0.0011514    0.0000721
h     1.9306943    3.3606678    0.0653743  0.00    0.0009565    0.0007517    0.0000512
h     2.3473834   -1.5661588   -0.3757338  0.00    0.0005081   -0.0011107   -0.0000527
o     5.2897957   -0.3880193   -2.1221854  0.00    0.0009925    0.0022498   -0.0044203
o     4.8160603   -2.3499621   -0.7957027  0.00   -0.0001015   -0.0012483   -0.0014530
h     4.5702842   -2.6648707    0.1424486  0.00   -0.1561204    0.3732043    0.5234923
    27
 Energy =       0.3095336068
c    -1.3056973    2.6281554   -0.3737912  0.00   -0.0013157    0.0009708    0.0000130
c    -1.2268765    1.2681789   -0.4528258  0.00   -0.0012228   -0.0006784   -0.0001227
c    -0.0093141    0.6905033   -0.3592059  0.00   -0.0003527    0.0001909    0.0000506
c    -0.1715861    3.3756017   -0.2073158  0.00   -0.0003986    0.0016055    0.0000261
c     1.0476021    2.7676216   -0.1165874  0.00    0.0011231    0.0007770    0.0001341
c     1.1019857    1.4106571   -0.1933596  0.00    0.0002519    0.0001061   -0.0000086
n     0.2900298   -0.6958816   -0.4277072  0.00   -0.0007396   -0.0013754   -0.0001639
c     2.1659852    0.5894886   -0.1332505  0.00    0.0007447    0.0003369    0.0001957
c     1.7188972   -0.6778824   -0.2808450  0.00    0.0010739   -0.0009621   -0.0000357
h    -0.3555908   -1.5110953   -0.5493360  0.00   -0.0008349   -0.0011081   -0.0000936
c     3.6109277    1.0494584    0.0256232  0.00    0.0007030   -0.0003575    0.0002171
c     4.6389236   -0.0519081    0.3618323  0.00    0.0006225   -0.0005375    0.0000655
h     3.6462496    1.7956082    0.8501368  0.00    0.0001979    0.0003365    0.0006165
h     3.9180088    1.5765917   -0.9072495  0.00    0.0002119    0.0003926   -0.0009003
c     4.9095619   -0.9775148   -0.8379692  0.00   -0.0001736    0.0008539    0.0009600
n     4.2058576   -0.7313299    1.6072983  0.00   -0.0062269    0.0030893   -0.0042889
h     5.6195680    0.4529545    0.5329828  0.00    0.0005538    0.0002170   -0.0001111
h     4.2136510   -1.7829752    1.4811635  0.00    0.1231496   -0.3022653   -0.4137143
h     4.9004925   -0.5372041    2.3724727  0.00    0.0058697    0.0015058    0.0060835
h    -2.2739030    3.1199297   -0.4464526  0.00   -0.0011168    0.0006688   -0.0000349
h    -2.1159464    0.6602106   -0.5891513  0.00   -0.0008322   -0.0005300   -0.0000528
h    -0.2418247    4.4603372   -0.1487361  0.00   -0.0001439    0.0012426    0.0000628
h     1.9469481    3.3645276    0.0109345  0.00    0.0008517    0.0005780    0.0000392
h     2.3360048   -1.5753364   -0.2923523  0.00    0.0012401   -0.0017765   -0.0000006
o     5.2624978   -0.4089426   -2.0619566  0.00    0.0008045    0.0018322   -0.0034682
o     4.8269593   -2.3745193   -0.7316688  0.00   -0.0000591   -0.0011674   -0.0012755
h     4.6006817   -2.6996273    0.2065054  0.00   -0.1239815    0.2960542    0.4158071
    27
 Energy =       0.2744325903
c    -1.3131794    2.5878285   -0.4968992  0.00   -0.0009601    0.0001727   -0.0000613
c    -1.2181936    1.2292472   -0.5643671  0.00   -0.0010383    0.0000801   -0.0000965
c     0.0010781    0.6651126   -0.4261037  0.00   -0.0000941   -0.0001142    0.0000105
c    -0.1929835    3.3473728   -0.2972777  0.00   -0.0003193    0.0007784    0.0000142
c     1.0283543    2.7530082   -0.1620756  0.00    0.0009677   -0.0000210    0.0000916
c     1.0988670    1.3971827   -0.2282025  0.00    0.0003324    0.0000569    0.0000350
n     0.3161784   -0.7173820   -0.4751789  0.00   -0.0010937   -0.0001930   -0.0001395
c     2.1682937    0.5881384   -0.1276718  0.00    0.0004544   -0.0001920    0.0000060
c     1.7388006   -0.6836929   -0.2808228  0.00    0.0011411   -0.0002301    0.0000704
h    -0.3168293   -1.5394397   -0.6121928  0.00   -0.0004200   -0.0004389   -0.0000513
c     3.6023350    1.0641891    0.0745459  0.00    0.0004569   -0.0001507   -0.0001047
c     4.6306748   -0.0252324    0.4473310  0.00    0.0003381   -0.0002902    0.0003457
h     3.6036963    1.8147481    0.8958687  0.00    0.0000746    0.0003791    0.0005934
h     3.9327554    1.5904047   -0.8503052  0.00    0.0001257    0.0001369   -0.0004489
c     4.9457118   -0.9520038   -0.7435396  0.00   -0.0002988   -0.0002817    0.0008566
n     4.1732418   -0.6881116    1.6924340  0.00   -0.0019817    0.0004661   -0.0012826
h     5.6008440    0.4926008    0.6384090  0.00    0.0004235    0.0001028    0.0001313
h     4.1889737   -1.7361441    1.5999315  0.00    0.0535074   -0.1304388   -0.1806062
h     4.8384901   -0.4679634    2.4720066  0.00    0.0020407    0.0002142    0.0020677
h    -2.2831420    3.0688194   -0.6052057  0.00   -0.0008787    0.0003692   -0.0000581
h    -2.0959471    0.6118038   -0.7266466  0.00   -0.0006262   -0.0002167   -0.0000667
h    -0.2759988    4.4308942   -0.2480432  0.00   -0.0000881    0.0003606    0.0000152
h     1.9166976    3.3595739   -0.0083518  0.00    0.0006257    0.0002482    0.0000551
h     2.3643302   -1.5738691   -0.2659588  0.00    0.0005212   -0.0006132   -0.0000300
o     5.3471705   -0.3729598   -1.9466327  0.00    0.0005481    0.0008528   -0.0023244
o     4.8575986   -2.3499811   -0.6648573  0.00    0.0000987   -0.0000101   -0.0010231
h     4.6022754   -2.7085368    0.2489949  0.00   -0.0538571    0.1289727    0.1820007
    27
 Energy =       0.2629818930
c    -1.3512093    2.4879583   -0.6202708  0.00   -0.0015880    0.0002650   -0.0001940
c    -1.2166027    1.1318464   -0.6773167  0.00   -0.0015946   -0.0002205   -0.0002329
c     0.0134538    0.6023872   -0.4982343  0.00   -0.0001872   -0.0003352   -0.0000222
c    -0.2586747    3.2795846   -0.3904026  0.00   -0.0003360    0.0013836    0.0000412
c     0.9743839    2.7199715   -0.2142867  0.00    0.0014937    0.0002731    0.0002200
c     1.0844371    1.3658827   -0.2704491  0.00    0.0006598    0.0000959    0.0001012
n     0.3682506   -0.7713293   -0.5308656  0.00   -0.0015797   -0.0004698   -0.0002521
c     2.1726994    0.5870951   -0.1327471  0.00    0.0007458    0.0000447   -0.0000354
c     1.7834141   -0.6970887   -0.2934775  0.00    0.0014846   -0.0005807    0.0001013
h    -0.2373756   -1.6117003   -0.6830136  0.00   -0.0008476   -0.0010273   -0.0001775
c     3.5871581    1.1034928    0.1086546  0.00    0.0000970    0.0002892   -0.0006383
c     4.6292723    0.0477917    0.5410057  0.00    0.0002452   -0.0007819    0.0018092
h     3.5415528    1.8710229    0.9140483  0.00   -0.0000036    0.0010651    0.0012712
h     3.9361170    1.6192152   -0.8152944  0.00   -0.0000118    0.0001688   -0.0004788
c     5.0244469   -0.8825450   -0.6270686  0.00   -0.0006835   -0.0021072    0.0016553