    13
 Energy =       5.6759719381
c    -3.7133889    1.6950595    0.3173519  0.00    0.0117362   -0.0407692   -0.0151824
c    -2.4962693    2.6345192    0.2419999  0.00    0.0619425    0.3322003    0.0833583
c    -4.9565486    2.3924193   -0.2155699  0.00    0.0199765    0.0089541    0.0086551
h    -5.8072983    1.7014095   -0.2223689  0.00    0.0139977    0.0090790   -0.0033671
h    -4.8071186    2.7393792   -1.2437896  0.00   -0.0054868   -0.0065687    0.0169564
h    -5.2375685    3.2516891    0.4029209  0.00   -0.0002796   -0.0157700   -0.0121800
n    -3.4097890    0.4519539   -0.4549189  0.00    0.8386146    0.3088675   -0.1504070
h    -3.8575589    1.4177196    1.3669296  0.00   -0.0010170   -0.0032079   -0.0238885
h    -4.2340588    0.2238779   -1.0206697  0.00    0.0251640    0.0333894    0.0226800
h    -2.6878492    0.6694128   -1.1486897  0.00   46.1284484   24.6070152   24.7066011
o    -2.4571893    3.7760389    0.6681628  0.00   -0.0094103   -0.2737618   -0.1061834
o    -1.4389296    2.0221094   -0.3549299  0.00   -0.1625559   -0.1593740   -0.0442586
h    -1.7862895    1.1491097   -0.6669268  0.00  -46.9211303  -24.8000538  -24.4827840
    13
 Energy =       4.0515256330
c    -3.7079433    1.6995893    0.3303580  0.00    0.0080566   -0.0246789   -0.0096067
c    -2.4692245    2.5954662    0.2377821  0.00    0.0368856    0.2068314    0.0555204
c    -4.9404054    2.4224201   -0.2100224  0.00    0.0132300    0.0060967    0.0051219
h    -5.8215453    1.7603232   -0.1937567  0.00    0.0077531    0.0053196   -0.0023957
h    -4.7792637    2.7530647   -1.2486388  0.00   -0.0030417   -0.0030096    0.0111422
h    -5.1793022    3.3078759    0.4033823  0.00   -0.0006474   -0.0095014   -0.0058965
n    -3.4479491    0.4456962   -0.4357557  0.00    0.5711783    0.2121819   -0.0610137
h    -3.8472771    1.4444763    1.3940407  0.00   -0.0003842   -0.0022426   -0.0147022
h    -4.3454903    0.1011790   -0.8619166  0.00   -0.0106428    0.0104980    0.0043018
h    -2.7217435    0.6446285   -1.2437032  0.00   31.9360888   17.0271035   17.0531493
o    -2.4129728    3.8042657    0.6636625  0.00   -0.0047242   -0.1702576   -0.0689166
o    -1.4215679    2.0075382   -0.4195859  0.00   -0.1035804   -0.1050425   -0.0323596
h    -1.7951718    1.1381749   -0.7463447  0.00  -32.4501717  -17.1532983  -16.9343446
    13
 Energy =       3.4665325724
c    -3.7147143    1.6896682    0.2990129  0.00    0.0057229   -0.0200511   -0.0083158
c    -2.5031543    2.6165315    0.2602404  0.00    0.0267619    0.1712596    0.0464284
c    -4.9749458    2.3879277   -0.2151515  0.00    0.0109032    0.0064431    0.0049718
h    -5.8411753    1.7037961   -0.1637574  0.00    0.0055818    0.0036821   -0.0010062
h    -4.8482913    2.7129101   -1.2622957  0.00   -0.0028979   -0.0027138    0.0088538
h    -5.2141318    3.2744009    0.4000084  0.00   -0.0004953   -0.0079587   -0.0047191
n    -3.4153127    0.4719355   -0.4987991  0.00    0.4823751    0.1774076   -0.0481883
h    -3.8511222    1.3946937    1.3560050  0.00   -0.0002225   -0.0019918   -0.0113910
h    -4.2760869    0.1517411   -1.0206697  0.00   -0.0158154    0.0049689   -0.0003436
h    -2.6411343    0.6641551   -1.1950319  0.00   27.0003498   14.3989172   14.4202939
o    -2.5210918    3.8335317    0.7264941  0.00   -0.0050030   -0.1374660   -0.0560337
o    -1.3871096    2.0591798   -0.3233636  0.00   -0.0789332   -0.0835986   -0.0275929
h    -1.7015863    1.1642269   -0.6931903  0.00  -27.4283273  -14.5088985  -14.3229575
    13
 Energy =       2.6636773557
c    -3.7243730    1.6679577    0.2758120  0.00    0.0029658   -0.0128614   -0.0060336
c    -2.5306212    2.6149593    0.3114368  0.00    0.0169925    0.1203576    0.0333278
c    -4.9994947    2.3583275   -0.2208578  0.00    0.0085859    0.0052749    0.0044549
h    -5.8665517    1.6766320   -0.1062879  0.00    0.0025458    0.0011923    0.0007690
h    -4.9076883    2.6395569   -1.2880162  0.00   -0.0022546   -0.0025920    0.0046276
h    -5.2094390    3.2745952    0.3674569  0.00    0.0002236   -0.0043816   -0.0027453
n    -3.3936849    0.4955453   -0.5708481  0.00    0.3658958    0.1325506   -0.0359954
h    -3.8692434    1.3229586    1.3209091  0.00   -0.0002305   -0.0016646   -0.0067475
h    -4.2136025    0.2134620   -1.1794228  0.00   -0.0177404    0.0003721   -0.0048453
h    -2.5788216    0.6983978   -1.1674435  0.00   20.2173275   10.7846531   10.8034129
o    -2.6284864    3.8585625    0.7766435  0.00   -0.0064660   -0.0933329   -0.0390614
o    -1.3506018    2.0941118   -0.1937819  0.00   -0.0466583   -0.0535147   -0.0163732
h    -1.6172480    1.2096315   -0.6560984  0.00  -20.5411872  -10.8760533  -10.7347906
    13
 Energy =       1.5535024354
c    -3.7359439    1.6419928    0.2724204  0.00    0.0007865   -0.0049716   -0.0029323
c    -2.5723222    2.6307011    0.3594429  0.00    0.0101884    0.0308737    0.0161385
c    -5.0270740    2.2985607   -0.2459125  0.00    0.0095864   -0.0003855    0.0040823
h    -5.8620128    1.5511271   -0.2650410  0.00   -0.0068158   -0.0073200    0.0002574
h    -4.8706403    2.7032460   -1.2779005  0.00    0.0020607    0.0021935   -0.0067977
h    -5.3341324    3.1428674    0.4251401  0.00   -0.0025456    0.0053406    0.0060381
n    -3.3582065    0.4953173   -0.5871648  0.00    0.1978464    0.0697148   -0.0183996
h    -3.8976964    1.2765503    1.3118255  0.00   -0.0003841   -0.0006305   -0.0021937
h    -4.1177083    0.2370925   -1.2770256  0.00   -0.0130077   -0.0025254   -0.0068656
h    -2.5072168    0.7435427   -1.1114110  0.00   11.0570310    5.9055746    5.9136096
o    -2.7844423    3.9447097    0.7179789  0.00   -0.0111664   -0.0177063   -0.0157010
o    -1.3236745    2.1807522   -0.0756291  0.00   -0.0115716   -0.0162072   -0.0044924
h    -1.4987861    1.2782382   -0.5772217  0.00  -11.2320082   -5.9639506   -5.8827435
    13
 Energy =       0.7459236308
c    -3.7336610    1.6437254    0.2565381  0.00    0.0007454    0.0000781    0.0003718
c    -2.5866305    2.6585659    0.3348644  0.00    0.0027315   -0.0131192   -0.0109554
c    -5.0485459    2.2586561   -0.2572306  0.00    0.0017097   -0.0009826    0.0017370
h    -5.8667656    1.5018440   -0.2103616  0.00   -0.0022166   -0.0039214    0.0005839
h    -4.9358929    2.6043949   -1.3113853  0.00   -0.0002510   -0.0000171   -0.0032204
h    -5.3475002    3.1294447    0.3719511  0.00   -0.0010537    0.0007616    0.0014132
n    -3.3533305    0.4884147   -0.5888660  0.00    0.0527286    0.0146258    0.0026808
h    -3.8745708    1.2964631    1.3075069  0.00    0.0009108    0.0011809    0.0007921
h    -4.1090872    0.1958115   -1.2572809  0.00   -0.0019849   -0.0013336   -0.0000475
h    -2.4994418    0.7834648   -1.1537838  0.00    4.7467831    2.5408128    2.5162049
o    -2.7955709    3.9322583    0.8767321  0.00   -0.0064744    0.0174743    0.0046444
o    -1.3169107    2.2792838   -0.1167152  0.00    0.0018572    0.0015217    0.0005363
h    -1.4219487    1.3523709   -0.5824673  0.00   -4.7954856   -2.5570814   -2.5147411
    13
 Energy =       0.4677061164
c    -3.7478703    1.6159274    0.2337166  0.00    0.0027675    0.0000208    0.0016262
c    -2.5570805    2.5747887    0.3896669  0.00    0.0033775   -0.0092308   -0.0064080
c    -5.0306223    2.3367550   -0.2361159  0.00   -0.0007847    0.0010626   -0.0002604
h    -5.8881316    1.6224465   -0.2439683  0.00   -0.0029144   -0.0041685    0.0000552
h    -4.8986288    2.7542765   -1.2626199  0.00   -0.0009123    0.0013963   -0.0039781
h    -5.2836073    3.1775173    0.4550073  0.00   -0.0007926    0.0029215    0.0026763
n    -3.4353257    0.4895139   -0.6816085  0.00    0.0318563    0.0026398    0.0093334
h    -3.9118549    1.2059195    1.2605873  0.00    0.0010947   -0.0011859    0.0024192
h    -4.1864984    0.3182308   -1.4070720  0.00   -0.0112196   -0.0038803   -0.0095749
h    -2.5295455    0.7142413   -1.1908337  0.00    2.6909008    1.4379369    1.4209470
o    -2.7180948    3.8051684    1.0354852  0.00   -0.0031016    0.0159557    0.0053934
o    -1.2990002    2.2009367   -0.0884282  0.00    0.0003215    0.0005795   -0.0001139
h    -1.4035963    1.3089761   -0.5943151  0.00   -2.7105932   -1.4440475   -1.4221156
    13
 Energy =       0.3199719012
c    -3.7855885    1.6187468    0.2343031  0.00    0.0040296   -0.0036412   -0.0003279
c    -2.5563979    2.5149410    0.4745202  0.00    0.0055572   -0.0061420   -0.0053533
c    -4.9849434    2.4132077   -0.3439255  0.00   -0.0049708    0.0044036    0.0013476
h    -5.8884739    1.7585388   -0.4027214  0.00   -0.0050392   -0.0039393    0.0005230
h    -4.7476202    2.8028394   -1.3660515  0.00    0.0005898    0.0031369   -0.0070248
h    -5.2353972    3.2814538    0.3117789  0.00   -0.0016776    0.0022548    0.0016436
n    -3.4746202    0.4632610   -0.6419840  0.00    0.0181322    0.0010190    0.0044918
h    -4.0569090    1.2321874    1.2520438  0.00   -0.0007742   -0.0032002    0.0062259
h    -4.2177488    0.2773154   -1.3655946  0.00   -0.0052192   -0.0027159   -0.0053753
h    -2.5619124    0.6494682   -1.1472368  0.00    1.6368418    0.8734671    0.8637858
o    -2.6911579    3.7085089    1.1861832  0.00   -0.0006233    0.0117330    0.0043186
o    -1.2972194    2.1368246    0.0052826  0.00    0.0001596    0.0006688    0.0001212
h    -1.3918677    1.2674052   -0.5270964  0.00   -1.6470058   -0.8770447   -0.8643762
    13
 Energy =       0.2639960365
c    -3.7947245    1.6046586    0.2381841  0.00    0.0032972   -0.0037688   -0.0010918
c    -2.5704657    2.4876603    0.5423165  0.00    0.0033631   -0.0058746   -0.0043678
c    -4.9565760    2.4201942   -0.3810512  0.00   -0.0043334    0.0035797    0.0009378
h    -5.8699635    1.7848460   -0.4710667  0.00   -0.0043214   -0.0031642    0.0004415
h    -4.6767177    2.8030341   -1.3937823  0.00    0.0005849    0.0026114   -0.0059766
h    -5.2126200    3.2930805    0.2652677  0.00   -0.0013723    0.0016811    0.0012590
n    -3.4577688    0.4630867   -0.6442746  0.00    0.0122468   -0.0008721    0.0088948
h    -4.1129716    1.2066062    1.2372005  0.00   -0.0008580   -0.0027168    0.0057186
h    -4.2329638    0.2208893   -1.3186759  0.00   -0.0081092   -0.0030003   -0.0069399
h    -2.5866363    0.7079192   -1.2026548  0.00    1.2566697    0.6694262    0.6567921
o    -2.7141731    3.6235949    1.3449364  0.00   -0.0014744    0.0144885    0.0072074
o    -1.3122848    2.1708464    0.0216201  0.00    0.0024838    0.0009485   -0.0000590
h    -1.3919908    1.3382816   -0.5685182  0.00   -1.2581768   -0.6733387   -0.6628159
    13
 Energy =       0.1882585102
c    -3.8203177    1.6016164    0.2394224  0.00    0.0038438   -0.0048657   -0.0017043
c    -2.5854404    2.4370687    0.6212738  0.00    0.0038903   -0.0046731   -0.0035684
c    -4.9025026    2.4633211   -0.4564731  0.00   -0.0046305    0.0040200    0.0008810
h    -5.8386167    1.8726204   -0.5973390  0.00   -0.0043847   -0.0024548    0.0003345
h    -4.5434443    2.8214182   -1.4531435  0.00    0.0011405    0.0025661   -0.0058663
h    -5.1556839    3.3536729    0.1656203  0.00   -0.0013072    0.0011870    0.0007234
n    -3.4746439    0.4494109   -0.6208782  0.00    0.0071938   -0.0004978    0.0064868
h    -4.2194153    1.2189640    1.2154635  0.00   -0.0014298   -0.0027290    0.0057081
h    -4.2663130    0.1642368   -1.2554688  0.00   -0.0057922   -0.0027171   -0.0053031
h    -2.6368193    0.7081937   -1.2164924  0.00    0.7507732    0.3998253    0.3913947
o    -2.7255135    3.5109413    1.5036895  0.00   -0.0007990    0.0121788    0.0069829
o    -1.3278445    2.1597492    0.0789753  0.00    0.0014074    0.0009009    0.0001277
h    -1.3933016    1.3634845   -0.5551481  0.00   -0.7499056   -0.4027406   -0.3961969
    13
 Energy =       0.1355017545
c    -3.8448487    1.5991806    0.2393067  0.00    0.0037076   -0.0051550   -0.0020339
c    -2.6034249    2.3818485    0.6970537  0.00    0.0036257   -0.0042180   -0.0031242
c    -4.8401912    2.5054174   -0.5237010  0.00   -0.0039489    0.0040759    0.0006348
h    -5.7924624    1.9594531   -0.7218055  0.00   -0.0042838   -0.0018997    0.0000598
h    -4.4043225    2.8408919   -1.4967381  0.00    0.0014765    0.0022245   -0.0052448
h    -5.0885403    3.4093510    0.0794532  0.00   -0.0010209    0.0007589    0.0003353
n    -3.4950620    0.4378641   -0.6016849  0.00    0.0038689   -0.0003629    0.0064685
h    -4.3203694    1.2340295    1.1870005  0.00   -0.0017584   -0.0024833    0.0050061
h    -4.3088683    0.1098847   -1.1844259  0.00   -0.0051977   -0.0027819   -0.0043896
h    -2.7027100    0.7141516   -1.2461800  0.00    0.4171814    0.2223379    0.2149093
o    -2.7414927    3.3813489    1.6624426  0.00   -0.0006890    0.0107949    0.0075827
o    -1.3472305    2.1524918    0.1301554  0.00    0.0009586    0.0009082    0.0001115
h    -1.4003339    1.3987853   -0.5513748  0.00   -0.4139199   -0.2241995   -0.2203155
    13
 Energy =       0.0971408274
c    -3.8713880    1.6024064    0.2356862  0.00    0.0028594   -0.0044941   -0.0016761
c    -2.6223243    2.3180314    0.7681981  0.00    0.0034447   -0.0036890   -0.0030341
c    -4.7635491    2.5567141   -0.5906302  0.00   -0.0028245    0.0040909    0.0005859
h    -5.7261838    2.0610555   -0.8570136  0.00   -0.0040899   -0.0014229   -0.0003637
h    -4.2455694    2.8685729   -1.5298321  0.00    0.0017297    0.0017856   -0.0043792
h    -5.0045959    3.4723473   -0.0033193  0.00   -0.0006474    0.0004114    0.0000566
n    -3.5328164    0.4238392   -0.5809114  0.00    0.0020302   -0.0003684    0.0061567
h    -4.4248484    1.2674091    1.1509114  0.00   -0.0019892   -0.0021769    0.0038504
h    -4.3725960    0.0613832   -1.1013617  0.00   -0.0042445   -0.0025938   -0.0032282
h    -2.7952751    0.7005217   -1.2829219  0.00    0.1883578    0.1008380    0.0944596
o    -2.7569350    3.2332406    1.8122095  0.00   -0.0003052    0.0080019    0.0067629
o    -1.3659737    2.1326682    0.1878948  0.00    0.0000902    0.0009981    0.0003589
h    -1.4078016    1.4265086   -0.5394081  0.00   -0.1844114   -0.1013808   -0.0995497
    13
 Energy =       0.0753269879
c    -3.8930885    1.6101806    0.2271367  0.00    0.0011662   -0.0026183   -0.0009180
c    -2.6379197    2.2521669    0.8278849  0.00    0.0024246   -0.0030028   -0.0031632
c    -4.6806863    2.6097132   -0.6455291  0.00   -0.0012343    0.0029540    0.0006133
h    -5.6424002    2.1614358   -0.9848257  0.00   -0.0030159   -0.0009086   -0.0006561
h    -4.0868163    2.9050723   -1.5422441  0.00    0.0013220    0.0010919   -0.0027781
h    -4.9174127    3.5302531   -0.0650236  0.00   -0.0001766    0.0000783   -0.0000058
n    -3.5832994    0.4109967   -0.5681011  0.00    0.0014581   -0.0003748    0.0076859
h    -4.5138415    1.3131497    1.1100675  0.00   -0.0015345   -0.0014878    0.0020481
h    -4.4564637    0.0204023   -1.0071668  0.00   -0.0049484   -0.0026231   -0.0028341
h    -2.9183690    0.6728976   -1.3419718  0.00    0.0679589    0.0365058    0.0291801
o    -2.7708532    3.0751229    1.9442424  0.00   -0.0000247    0.0051750    0.0054356
o    -1.3787812    2.1077448    0.2440664  0.00   -0.0002250    0.0012917    0.0009817
h    -1.4099249    1.4555623   -0.5290339  0.00   -0.0631704   -0.0360812   -0.0355894
    13
 Energy =       0.0665914549
c    -3.9101544    1.6249139    0.2150155  0.00    0.0004780   -0.0008577   -0.0001835
c    -2.6500007    2.1917209    0.8762670  0.00    0.0017985   -0.0017822   -0.0021747
c    -4.5938747    2.6621016   -0.6982948  0.00   -0.0011001    0.0023082    0.0006822
h    -5.5451797    2.2557317   -1.1094761  0.00   -0.0021666   -0.0004781   -0.0007646
h    -3.9280632    2.9406532   -1.5478839  0.00    0.0012875    0.0009032   -0.0021079
h    -4.8318825    3.5867541   -0.1251773  0.00   -0.0001179    0.0000493    0.0000538
n    -3.6451778    0.3970070   -0.5534768  0.00    0.0019812   -0.0007468    0.0094582
h    -4.5897135    1.3793556    1.0701004  0.00   -0.0015788   -0.0011080    0.0015405
h    -4.5520679   -0.0177830   -0.8918747  0.00   -0.0062359   -0.0029978   -0.0027803
h    -3.0707134    0.6234492   -1.4062890  0.00    0.0210489    0.0107313    0.0018259
o    -2.7855814    2.9301954    2.0476430  0.00    0.0003172    0.0025083    0.0030337
o    -1.3837236    2.0740118    0.3032710  0.00    0.0000281    0.0014422    0.0015672
h    -1.4037240    1.4765868   -0.5103225  0.00   -0.0157401   -0.0099718   -0.0101504
    13
 Energy =       0.0650527996
c    -3.9093086    1.6405832    0.2188163  0.00   -0.0011647    0.0013854    0.0006168
c    -2.6129999    2.1415699    0.8645140  0.00    0.0011982   -0.0009595   -0.0015711
c    -4.5477619    2.7070458   -0.6905763  0.00   -0.0003456    0.0011220    0.0001748
h    -5.5127360    2.3399035   -1.1040001  0.00   -0.0010576   -0.0003512   -0.0003326
h    -3.8703889    2.9590636   -1.5370568  0.00    0.0004515    0.0004020   -0.0005212
h    -4.7474677    3.6403954   -0.1158441  0.00   -0.0002242    0.0007265    0.0002249
n    -3.7249831    0.3915561   -0.5430354  0.00    0.0031391   -0.0019559    0.0082430
h    -4.5908449    1.4411923    1.0834865  0.00   -0.0012257   -0.0004995    0.0007653
h    -4.6645613   -0.0143328   -0.7926738  0.00   -0.0070995   -0.0032939   -0.0026386
h    -3.2294665    0.5834877   -1.4515318  0.00    0.0102128    0.0043264   -0.0043626
o    -2.6949172    2.8373969    2.0668390  0.00    0.0000078    0.0023171    0.0033828
o    -1.3653460    2.0108333    0.2525854  0.00    0.0010644    0.0012796    0.0012124
h    -1.4190747    1.4460032   -0.5820214  0.00   -0.0049565   -0.0044990   -0.0051938
    13
 Energy =       0.0645510624
c    -3.9287653    1.6455686    0.1987726  0.00    0.0003605   -0.0018749   -0.0009131
c    -2.6650931    2.1175811    0.9258901  0.00   -0.0001293   -0.0014864   -0.0006954
c    -4.4864837    2.7202430   -0.7544971  0.00   -0.0010621    0.0007821    0.0000921
h    -5.4284965    2.3683494   -1.2314715  0.00   -0.0017432   -0.0002614   -0.0009316
h    -3.7491424    2.9580704   -1.5560236  0.00    0.0015780    0.0004871   -0.0019985
h    -4.7079105    3.6572211   -0.1950951  0.00   -0.0001830   -0.0000112    0.0003131
n    -3.7279469    0.3886992   -0.5426299  0.00   -0.0001390    0.0002042   -0.0012761
h    -4.6665377    1.4694064    1.0228564  0.00   -0.0012625   -0.0004087    0.0017562
h    -4.6595264   -0.0420679   -0.7552103  0.00    0.0006115    0.0006629    0.0000846
h    -3.2697043    0.5667914   -1.4669093  0.00   -0.0002466    0.0000691    0.0011154
o    -2.8032903    2.7530871    2.1558800  0.00    0.0002534    0.0018350    0.0030817
o    -1.3903780    2.0218334    0.3652498  0.00    0.0024957    0.0012990    0.0011771
h    -1.4065814    1.4999149   -0.4973105  0.00   -0.0005335   -0.0012969   -0.0018056
    13
 Energy =       0.0645195314
c    -3.9289297    1.6510974    0.2041558  0.00    0.0000731    0.0002871    0.0001982
c    -2.6651566    2.1299571    0.9214313  0.00   -0.0001662   -0.0000272    0.0000863
c    -4.4793260    2.7099512   -0.7675805  0.00   -0.0000570    0.0000049   -0.0001068
h    -5.4187082    2.3515656   -1.2407390  0.00   -0.0000213    0.0000032   -0.0000293
h    -3.7402699    2.9313088   -1.5690375  0.00    0.0000651    0.0000682   -0.0001087
h    -4.6996839    3.6578565   -0.2263878  0.00   -0.0000412    0.0001765    0.0001090
n    -3.7323636    0.3783375   -0.5120890  0.00    0.0000951   -0.0003368    0.0002740
h    -4.6676442    1.4945113    1.0289027  0.00   -0.0000805   -0.0000457    0.0001796
h    -4.6647072   -0.0611261   -0.7060734  0.00   -0.0002689   -0.0002111   -0.0001068
h    -3.2813533    0.5352705   -1.4447262  0.00    0.0001497    0.0000044   -0.0004333
o    -2.7975858    2.7510927    2.1572479  0.00   -0.0001132    0.0000988    0.0001212
o    -1.3969191    2.0529160    0.3460631  0.00    0.0002939    0.0000235   -0.0000743
h    -1.4172092    1.5419597   -0.5216658  0.00    0.0000716   -0.0000460   -0.0001090
    13
 Energy =       0.0645188255
c    -3.9297901    1.6511142    0.2049082  0.00   -0.0000070   -0.0000270   -0.0000234
c    -2.6657467    2.1282074    0.9227368  0.00    0.0000023   -0.0000191   -0.0000359
c    -4.4769791    2.7091850   -0.7691650  0.00    0.0000027   -0.0000005    0.0000108
h    -5.4171112    2.3521853   -1.2418313  0.00    0.0000008   -0.0000012    0.0000031
h    -3.7371545    2.9267625   -1.5707486  0.00   -0.0000012   -0.0000049    0.0000063
h    -4.6950896    3.6586667   -0.2302807  0.00    0.0000020   -0.0000125   -0.0000082
n    -3.7346433    0.3771994   -0.5089259  0.00   -0.0000011    0.0000274   -0.0000125
h    -4.6698736    1.4972250    1.0286953  0.00    0.0000042    0.0000025   -0.0000149
h    -4.6675256   -0.0595119   -0.7053571  0.00    0.0000161    0.0000173    0.0000114
h    -3.2798842    0.5314731   -1.4398393  0.00   -0.0000096    0.0000037    0.0000250
o    -2.7963587    2.7395952    2.1635306  0.00   -0.0000072    0.0000246    0.0000544
o    -1.3990623    2.0586451    0.3435276  0.00   -0.0000022    0.0000067    0.0000107
h    -1.4206377    1.5539511   -0.5277491  0.00    0.0000002   -0.0000169   -0.0000267
    13
 Energy =       0.0645188218
c    -3.9297989    1.6511080    0.2049252  0.00    0.0000000    0.0000000   -0.0000000
c    -2.6657437    2.1281837    0.9227476  0.00   -0.0000000   -0.0000000    0.0000000
c    -4.4769514    2.7091892   -0.7691811  0.00    0.0000000   -0.0000000   -0.0000000
h    -5.4170843    2.3522112   -1.2418649  0.00   -0.0000000    0.0000000    0.0000000
h    -3.7371156    2.9267537   -1.5707653  0.00    0.0000000    0.0000000    0.0000000
h    -4.6950490    3.6586905   -0.2302970  0.00   -0.0000000    0.0000000    0.0000000
n    -3.7346998    0.3771435   -0.5088849  0.00    0.0000000   -0.0000000    0.0000000
h    -4.6698851    1.4972562    1.0287339  0.00   -0.0000000   -0.0000000    0.0000000
h    -4.6675973   -0.0595361   -0.7053852  0.00   -0.0000000   -0.0000000   -0.0000000
h    -3.2798556    0.5313573   -1.4397830  0.00    0.0000000    0.0000000   -0.0000000
o    -2.7963392    2.7394695    2.1635549  0.00   -0.0000000    0.0000000    0.0000000
o    -1.3990714    2.0587257    0.3435112  0.00    0.0000000    0.0000000    0.0000000
h    -1.4206653    1.5541458   -0.5278098  0.00    0.0000000   -0.0000000   -0.0000000
