    13
 Energy =       0.2320744982
c    -3.7133889    1.6950595    0.3173519  0.00    0.0172288   -0.0326611   -0.0211106
c    -2.4962693    2.6345192    0.2419999  0.00    0.0614231    0.3513266    0.1031866
c    -4.9565486    2.3924193   -0.2155699  0.00    0.0104503    0.0053353    0.0134046
h    -4.7854386    2.7464192   -1.2386596  0.00   -0.0043122   -0.0042652    0.0173557
h    -5.2149185    3.2645991    0.3947669  0.00    0.0025870   -0.0137071   -0.0127745
h    -5.8205083    1.7195795   -0.2420919  0.00    0.0121058    0.0110952   -0.0053003
n    -3.4097890    0.4519539   -0.4549189  0.00    0.8147835    0.2768797   -0.1069690
h    -3.8575589    1.4177196    1.3669296  0.00    0.0049578   -0.0143661   -0.0292251
h    -3.2072391   -0.2948399    0.2179739  0.00   -0.0091426    0.0396420   -0.0246443
h    -4.2689788    0.1396900   -0.9176007  0.00    0.0274810    0.0245824    0.0261296
o    -2.4571893    3.7760389    0.6681628  0.00   -0.0099159   -0.2739031   -0.1067657
o    -1.4389296    2.0221094   -0.3549299  0.00   -0.0944090   -0.0830294   -0.0029301
h    -1.7862895    1.1491097   -0.6669268  0.00   -0.8332376   -0.2869292    0.1496429
    13
 Energy =       0.1235145731
c    -3.7184692    1.6717525    0.3275188  0.00    0.0205634   -0.0099978   -0.0115687
c    -2.5218708    2.5838838    0.2797191  0.00    0.0139522    0.0355655    0.0160064
c    -4.9778682    2.3670497   -0.2183721  0.00    0.0112201   -0.0096910    0.0040968
h    -4.7437696    2.9008508   -1.1848402  0.00    0.0057677    0.0096643   -0.0120778
h    -5.3471156    3.1277989    0.5302653  0.00   -0.0062370    0.0092830    0.0142398
h    -5.8035926    1.6290633   -0.4008450  0.00   -0.0068737   -0.0103020   -0.0047475
n    -3.4060276    0.4857638   -0.4725129  0.00    0.3498726    0.1681936   -0.0372517
h    -3.8771643    1.3957186    1.3951952  0.00    0.0004248   -0.0028649   -0.0044818
h    -3.1289363   -0.3017450    0.1661477  0.00    0.0018804    0.0010652   -0.0013431
h    -4.2417847    0.1224273   -0.9905349  0.00    0.0015338    0.0014039    0.0011413
o    -2.6137148    3.8629914    0.7698002  0.00   -0.0213000   -0.0283439   -0.0121067
o    -1.3828113    2.1007674   -0.3565230  0.00   -0.0041804    0.0010120    0.0006852
h    -1.6499213    1.1680551   -0.7285310  0.00   -0.3666237   -0.1649879    0.0474078
    13
 Energy =       0.1129296232
c    -3.6890222    1.6714840    0.3309169  0.00    0.0179224   -0.0104214   -0.0096325
c    -2.5154250    2.6157097    0.2077893  0.00    0.0135925    0.0256066    0.0120673
c    -5.0064772    2.3300268   -0.1294080  0.00    0.0063105   -0.0060983    0.0043146
h    -4.8529307    2.8554326   -1.1161538  0.00    0.0051366    0.0091487   -0.0126663
h    -5.3411173    3.0910578    0.6309527  0.00   -0.0054097    0.0075968    0.0120890
h    -5.8247083    1.5698430   -0.2420919  0.00   -0.0082516   -0.0091413   -0.0038070
n    -3.3959549    0.4867543   -0.4858231  0.00    0.2948299    0.1455137   -0.0296405
h    -3.7667271    1.3978533    1.4118374  0.00   -0.0000281   -0.0028686   -0.0003095
h    -3.2050032   -0.3382460    0.1418548  0.00    0.0038512   -0.0042178    0.0028996
h    -4.2055858    0.1965018   -1.0981539  0.00   -0.0073981   -0.0029626   -0.0061831
o    -2.6288206    3.9275067    0.6190056  0.00   -0.0166154   -0.0175970   -0.0087228
o    -1.3686523    2.1308789   -0.4119080  0.00   -0.0030144    0.0023070    0.0010485
h    -1.6126218    1.1795746   -0.7423305  0.00   -0.3009259   -0.1368658    0.0385426
    13
 Energy =       0.1067030112
c    -3.6783901    1.6882362    0.3347043  0.00    0.0151219   -0.0089508   -0.0082906
c    -2.5227264    2.6491374    0.1525736  0.00    0.0119568    0.0189668    0.0103761
c    -5.0191142    2.2980337   -0.1277862  0.00    0.0051288   -0.0049480    0.0034245
h    -4.8935814    2.7958106   -1.1310426  0.00    0.0043804    0.0083868   -0.0116474
h    -5.3605607    3.0746284    0.6109859  0.00   -0.0046279    0.0068363    0.0106885
h    -5.8185157    1.5144663   -0.2038761  0.00   -0.0078653   -0.0086378   -0.0034316
n    -3.3761954    0.4677488   -0.4300143  0.00    0.2612043    0.1301225   -0.0284615
h    -3.7288646    1.4647938    1.4300970  0.00    0.0000784   -0.0027289    0.0014452
h    -3.2778126   -0.3529434    0.2293279  0.00    0.0048317   -0.0090711    0.0075576
h    -4.1423633    0.2093551   -1.1137742  0.00   -0.0115346   -0.0029901   -0.0093451
o    -2.6667255    3.9926861    0.4602525  0.00   -0.0151315   -0.0073515   -0.0058256
o    -1.3552464    2.1443011   -0.4121220  0.00   -0.0010697    0.0032977    0.0010738
h    -1.5729503    1.1681234   -0.6828385  0.00   -0.2624732   -0.1229321    0.0324361
    13
 Energy =       0.1005041403
c    -3.6975662    1.6804542    0.3295100  0.00    0.0137714   -0.0097437   -0.0077676
c    -2.5132491    2.6198217    0.2046985  0.00    0.0112541    0.0108463    0.0067851
c    -5.0033775    2.3325756   -0.1755211  0.00    0.0033706   -0.0038295    0.0028559
h    -4.8389805    2.8066115   -1.1835807  0.00    0.0039726    0.0078779   -0.0109776
h    -5.3331017    3.1328841    0.5414172  0.00   -0.0044566    0.0063700    0.0095645
h    -5.8288627    1.5780217   -0.2538262  0.00   -0.0074404   -0.0079870   -0.0027956
n    -3.4020063    0.4603615   -0.4402662  0.00    0.2313942    0.1162950   -0.0248224
h    -3.7974937    1.4455544    1.4201569  0.00    0.0000305   -0.0027834    0.0024762
h    -3.2499839   -0.3501538    0.2225567  0.00    0.0045771   -0.0096474    0.0082237
h    -4.1983969    0.1722752   -1.0768161  0.00   -0.0122400   -0.0035478   -0.0102830
o    -2.6132942    3.9435218    0.6190056  0.00   -0.0130732    0.0017399   -0.0025450
o    -1.3545751    2.1252123   -0.3868766  0.00   -0.0004071    0.0041360    0.0013559
h    -1.5821589    1.1672373   -0.7039707  0.00   -0.2307531   -0.1097263    0.0279300
    13
 Energy =       0.0893511910
c    -3.7234204    1.6766545    0.3229165  0.00    0.0107323   -0.0095774   -0.0062378
c    -2.5033535    2.5828448    0.2598742  0.00    0.0089399    0.0018900    0.0015012
c    -4.9791440    2.3753287   -0.2451259  0.00    0.0008134   -0.0021308    0.0020022
h    -4.7675266    2.7947936   -1.2665866  0.00    0.0033622    0.0068538   -0.0098573
h    -5.2863163    3.2203878    0.4270133  0.00   -0.0043269    0.0060391    0.0078034
h    -5.8388252    1.6616638   -0.3106199  0.00   -0.0063262   -0.0065540   -0.0015441
n    -3.4406319    0.4430483   -0.4331462  0.00    0.1751621    0.0887174   -0.0179943
h    -3.8878929    1.4471093    1.4080216  0.00   -0.0002719   -0.0027159    0.0036619
h    -3.2322816   -0.3434647    0.2424629  0.00    0.0037249   -0.0090270    0.0079586
h    -4.2697299    0.1157266   -1.0057544  0.00   -0.0121657   -0.0047219   -0.0105621
o    -2.5549719    3.8768380    0.7777587  0.00   -0.0084837    0.0092668    0.0012561
o    -1.3490327    2.0992959   -0.3481731  0.00    0.0001826    0.0044807    0.0016275
h    -1.5799197    1.1641508   -0.7121537  0.00   -0.1713431   -0.0825207    0.0203846
    13
 Energy =       0.0777428660
c    -3.7548540    1.6747852    0.3155182  0.00    0.0074858   -0.0090387   -0.0041783
c    -2.4951077    2.5364608    0.3223921  0.00    0.0066498   -0.0034136   -0.0024570
c    -4.9431814    2.4248923   -0.3281679  0.00   -0.0014532   -0.0003204    0.0012358
h    -4.6773381    2.7679978   -1.3638404  0.00    0.0030837    0.0057011   -0.0091056
h    -5.2132815    3.3250155    0.2843775  0.00   -0.0043000    0.0063080    0.0060670
h    -5.8450941    1.7669382   -0.3783020  0.00   -0.0054969   -0.0050910   -0.0001852
n    -3.4957340    0.4218126   -0.4193102  0.00    0.1187435    0.0619972   -0.0117293
h    -3.9950227    1.4599415    1.3905080  0.00   -0.0008543   -0.0027122    0.0047069
h    -3.2084799   -0.3289708    0.2683592  0.00    0.0035888   -0.0090108    0.0088736
h    -4.3678901    0.0468715   -0.8936091  0.00   -0.0148425   -0.0074527   -0.0114843
o    -2.5027696    3.7906618    0.9365118  0.00   -0.0037244    0.0124021    0.0037378
o    -1.3425741    2.0669535   -0.2994528  0.00    0.0006734    0.0046949    0.0019042
h    -1.5717192    1.1610173   -0.7184970  0.00   -0.1095536   -0.0540640    0.0126144
    13
 Energy =       0.0678946998
c    -3.7884336    1.6746396    0.3076878  0.00    0.0043756   -0.0074976   -0.0018799
c    -2.4856975    2.4758567    0.3888163  0.00    0.0048354   -0.0049518   -0.0042350
c    -4.8923255    2.4812203   -0.4111567  0.00   -0.0023209    0.0012007    0.0005069
h    -4.5724777    2.7369606   -1.4545551  0.00    0.0028981    0.0040267   -0.0076009
h    -5.1063263    3.4342385    0.1380268  0.00   -0.0037941    0.0062518    0.0040721
h    -5.8411414    1.8945965   -0.4523119  0.00   -0.0049648   -0.0037546    0.0007233
n    -3.5746067    0.3990304   -0.4030599  0.00    0.0671663    0.0347824   -0.0066538
h    -4.1055364    1.4841305    1.3671442  0.00   -0.0013164   -0.0027002    0.0045337
h    -3.2187049   -0.3176153    0.2852251  0.00    0.0026103   -0.0059063    0.0069500
h    -4.4852067   -0.0005607   -0.7697216  0.00   -0.0136485   -0.0078672   -0.0090168
o    -2.4522414    3.6795675    1.0952649  0.00   -0.0001718    0.0116862    0.0046132
o    -1.3340740    2.0210323   -0.2467082  0.00    0.0009635    0.0046143    0.0021191
h    -1.5562744    1.1512806   -0.7281645  0.00   -0.0566326   -0.0298844    0.0058683
    13
 Energy =       0.0625627329
c    -3.8227908    1.6832245    0.2997266  0.00    0.0018735   -0.0054662    0.0001734
c    -2.4685074    2.3938920    0.4486784  0.00    0.0049640   -0.0038090   -0.0041552
c    -4.8212123    2.5543098   -0.4935328  0.00   -0.0024566    0.0037708   -0.0001307
h    -4.4437296    2.7276260   -1.5329519  0.00    0.0028755    0.0028230   -0.0063579
h    -4.9659626    3.5473508    0.0021045  0.00   -0.0031649    0.0058917    0.0023983
h    -5.8175578    2.0533496   -0.5471077  0.00   -0.0056973   -0.0030690    0.0009755
n    -3.6846041    0.3788118   -0.3774109  0.00    0.0358670    0.0148956   -0.0033586
h    -4.2137730    1.5375044    1.3415644  0.00   -0.0020601   -0.0029691    0.0043859
h    -3.2873916   -0.3149880    0.3068541  0.00    0.0012795   -0.0023223    0.0038254
h    -4.6308497   -0.0114444   -0.6434373  0.00   -0.0111293   -0.0072400   -0.0058476
o    -2.3840331    3.5491984    1.2248740  0.00    0.0014908    0.0088896    0.0039976
o    -1.3225981    1.9236584   -0.1888978  0.00    0.0015993    0.0043238    0.0021371
h    -1.5500366    1.0918842   -0.7239764  0.00   -0.0254415   -0.0157189    0.0019568
    13
 Energy =       0.0617507198
c    -3.8426018    1.6603375    0.2847359  0.00   -0.0025455   -0.0025673    0.0003430
c    -2.5293582    2.4261384    0.5436210  0.00    0.0024117   -0.0045995   -0.0038682
c    -4.8265462    2.5141370   -0.5414057  0.00   -0.0019096    0.0025868   -0.0002294
h    -4.4100261    2.7045417   -1.5624712  0.00    0.0027423    0.0022808   -0.0061716
h    -5.0151358    3.4982359   -0.0428704  0.00   -0.0027364    0.0055979    0.0025764
h    -5.8072055    1.9896096   -0.6424413  0.00   -0.0059971   -0.0030222    0.0006243
n    -3.6132317    0.3833591   -0.4277891  0.00    0.0308037    0.0080596   -0.0062758
h    -4.2911579    1.4663164    1.2974211  0.00   -0.0032945   -0.0022617    0.0064377
h    -3.1936505   -0.3076742    0.2454343  0.00    0.0011050   -0.0027708    0.0032507
h    -4.5339424   -0.0477394   -0.7191210  0.00   -0.0111980   -0.0070774   -0.0052489
o    -2.5427862    3.5456280    1.3817295  0.00    0.0016058    0.0146672    0.0086905
o    -1.3254713    2.0476649   -0.0558739  0.00    0.0096027    0.0067729    0.0020842
h    -1.4819329    1.2338225   -0.6444819  0.00   -0.0205902   -0.0176662   -0.0022129
    13
 Energy =       0.0611762463
c    -3.8667440    1.6622350    0.2620002  0.00   -0.0032309   -0.0031588    0.0005289
c    -2.5433505    2.3775633    0.6095236  0.00   -0.0012484   -0.0011008   -0.0004815
c    -4.7788933    2.5657260   -0.5929117  0.00   -0.0018883    0.0034870   -0.0007573
h    -4.3141163    2.7494633   -1.5931511  0.00    0.0022353    0.0020485   -0.0054087
h    -4.9468447    3.5498979   -0.0912329  0.00   -0.0019927    0.0040641    0.0016463
h    -5.7744667    2.0827513   -0.7418024  0.00   -0.0058572   -0.0028778    0.0002865
n    -3.6542123    0.3937555   -0.4670149  0.00    0.0195949    0.0060057   -0.0053697
h    -4.3710963    1.4631687    1.2465174  0.00   -0.0028626   -0.0024248    0.0059677
h    -3.2650600   -0.3186518    0.2018352  0.00    0.0011092   -0.0027187    0.0029940
h    -4.5792649   -0.0085386   -0.7773687  0.00   -0.0083037   -0.0053670   -0.0037290
o    -2.5770372    3.4914119    1.4495759  0.00    0.0013709    0.0101044    0.0059500
o    -1.3071489    1.9580163    0.1028792  0.00    0.0138769    0.0042170   -0.0001304
h    -1.4348114    1.1475786   -0.4923626  0.00   -0.0128033   -0.0122788   -0.0014967
    13
 Energy =       0.0604218521
c    -3.8602542    1.6629621    0.2834770  0.00   -0.0038646   -0.0022248    0.0017267
c    -2.5409083    2.4071257    0.5805449  0.00   -0.0063375    0.0009090    0.0025996
c    -4.7949388    2.5223736   -0.5925297  0.00   -0.0018745    0.0036911   -0.0012661
h    -4.3425731    2.6815713   -1.6027535  0.00    0.0021820    0.0021311   -0.0056375
h    -4.9741050    3.5195784   -0.1205409  0.00   -0.0018799    0.0044470    0.0018214
h    -5.7836248    2.0182008   -0.7172862  0.00   -0.0060641   -0.0030439    0.0001375
n    -3.6411966    0.3696670   -0.3992761  0.00    0.0178599    0.0066574   -0.0071202
h    -4.3471753    1.4943828    1.2828764  0.00   -0.0028569   -0.0025716    0.0064515
h    -3.2072690   -0.3045319    0.2841672  0.00    0.0022580   -0.0044798    0.0049926
h    -4.5669934   -0.0669167   -0.6620857  0.00   -0.0102575   -0.0066608   -0.0043777
o    -2.5613646    3.4930997    1.4573950  0.00    0.0002404    0.0106614    0.0066788
o    -1.3246177    2.0517967   -0.0263856  0.00    0.0208742    0.0026805   -0.0031627
h    -1.4680256    1.2650680   -0.6511157  0.00   -0.0102794   -0.0121968   -0.0028438
    13
 Energy =       0.0590307497
c    -3.8644321    1.6680269    0.3033338  0.00   -0.0012528    0.0011309    0.0028674
c    -2.5535655    2.4234065    0.5784956  0.00   -0.0092516    0.0011800    0.0044412
c    -4.7779351    2.4774500   -0.6353282  0.00   -0.0021690    0.0020561   -0.0011827
h    -4.3072184    2.5797871   -1.6429741  0.00    0.0015698    0.0014105   -0.0044868
h    -4.9638774    3.4979754   -0.2206749  0.00   -0.0012885    0.0038898    0.0017378
h    -5.7614648    1.9685182   -0.7542828  0.00   -0.0031295   -0.0014804   -0.0000297
n    -3.6385868    0.3379935   -0.3010222  0.00    0.0095983    0.0032723   -0.0069147
h    -4.3672740    1.5576122    1.3011369  0.00   -0.0018265   -0.0014411    0.0049952
h    -3.1623066   -0.2817588    0.4060987  0.00    0.0029812   -0.0048063    0.0055026
h    -4.5621776   -0.1305029   -0.5033325  0.00   -0.0080699   -0.0057665   -0.0033727
o    -2.5569784    3.4527825    1.5198365  0.00   -0.0019384    0.0087164    0.0064131
o    -1.3699572    2.1512863   -0.1289003  0.00    0.0186713    0.0004931   -0.0048022
h    -1.5272725    1.4118005   -0.8058992  0.00   -0.0038944   -0.0086548   -0.0051686
    13
 Energy =       0.0579538127
c    -3.8843718    1.6782009    0.3090740  0.00    0.0026723    0.0006314    0.0006999
c    -2.5754123    2.4134249    0.6144071  0.00   -0.0012485   -0.0032469   -0.0015326
c    -4.7244844    2.4511930   -0.7194919  0.00   -0.0031510    0.0007008   -0.0000847
h    -4.2036887    2.4743499   -1.7062238  0.00    0.0016595    0.0003721   -0.0036063
h    -4.9007675    3.4987863   -0.3794280  0.00   -0.0010204    0.0024367    0.0008476
h    -5.7123824    1.9624227   -0.8570793  0.00   -0.0002701    0.0002349    0.0001737
n    -3.6603656    0.3167971   -0.2118384  0.00    0.0024685   -0.0004898   -0.0023062
h    -4.4425102    1.6332268    1.2804517  0.00   -0.0013879   -0.0002477    0.0030799
h    -3.1586020   -0.2513021    0.5159721  0.00    0.0009126   -0.0014456    0.0015570
h    -4.5834412   -0.1648325   -0.3518525  0.00   -0.0016724   -0.0018443   -0.0007096
o    -2.5554340    3.3579923    1.6382645  0.00   -0.0012757    0.0059253    0.0052602
o    -1.4237825    2.2194921   -0.1501867  0.00    0.0022087   -0.0014341   -0.0018170
h    -1.5878036    1.5246261   -0.8655815  0.00    0.0001045   -0.0015927   -0.0015620
    13
 Energy =       0.0577466809
c    -3.8905317    1.6845169    0.3143418  0.00   -0.0005877    0.0006124    0.0006804
c    -2.5862040    2.4282909    0.6167415  0.00   -0.0012552   -0.0006836    0.0004814
c    -4.7086160    2.4142974   -0.7559809  0.00    0.0004658   -0.0004444   -0.0002268
h    -4.1753394    2.3920335   -1.7312453  0.00   -0.0002570    0.0000523    0.0003708
h    -4.8822972    3.4745016   -0.4652662  0.00    0.0001311    0.0001525    0.0001305
h    -5.6956988    1.9226987   -0.8892286  0.00    0.0000796   -0.0001013   -0.0000855
n    -3.6583655    0.3081247   -0.1538849  0.00   -0.0002379    0.0001780   -0.0006558
h    -4.4659946    1.6741456    1.2725843  0.00    0.0003443    0.0000443   -0.0004006
h    -3.1374760   -0.2237682    0.5863508  0.00    0.0002878   -0.0002550    0.0004012
h    -4.5783870   -0.1862922   -0.2556640  0.00   -0.0003464   -0.0002020    0.0000158
o    -2.5447733    3.3078384    1.6914060  0.00   -0.0006903    0.0007891    0.0009969
o    -1.4593892    2.3001249   -0.1948574  0.00    0.0021418   -0.0005145   -0.0021289
h    -1.6299738    1.6178651   -0.9188097  0.00   -0.0000759    0.0003723    0.0004206
    13
 Energy =       0.0577419827
c    -3.8906027    1.6852537    0.3141201  0.00   -0.0000014    0.0000012    0.0000016
c    -2.5863138    2.4289852    0.6168323  0.00   -0.0000007   -0.0000067   -0.0000007
c    -4.7084086    2.4140209   -0.7577218  0.00    0.0000018   -0.0000007    0.0000027
h    -4.1756119    2.3878863   -1.7336392  0.00    0.0000035   -0.0000012   -0.0000063
h    -4.8804098    3.4751780   -0.4700972  0.00   -0.0000008    0.0000060    0.0000021
h    -5.6967157    1.9241736   -0.8884369  0.00   -0.0000038   -0.0000027    0.0000001
n    -3.6575570    0.3084515   -0.1519915  0.00    0.0000031    0.0000082   -0.0000109
h    -4.4672283    1.6758746    1.2722410  0.00   -0.0000009    0.0000004    0.0000006
h    -3.1402474   -0.2231476    0.5905129  0.00    0.0000093   -0.0000066    0.0000090
h    -4.5772703   -0.1852758   -0.2574532  0.00   -0.0000110   -0.0000033    0.0000001
o    -2.5426916    3.3064969    1.6921316  0.00   -0.0000001    0.0000039    0.0000023
o    -1.4602478    2.2997621   -0.1930504  0.00    0.0000007    0.0000030   -0.0000002
h    -1.6297415    1.6167181   -0.9169604  0.00    0.0000002   -0.0000013   -0.0000005
    13
 Energy =       0.0577419823
c    -3.8905932    1.6852566    0.3141244  0.00   -0.0000000   -0.0000000    0.0000000
c    -2.5863053    2.4289954    0.6168234  0.00    0.0000000   -0.0000000   -0.0000000
c    -4.7084107    2.4140110   -0.7577173  0.00    0.0000000   -0.0000000   -0.0000000
h    -4.1756137    2.3878962   -1.7336272  0.00    0.0000000   -0.0000000   -0.0000000
h    -4.8804305    3.4751583   -0.4700910  0.00    0.0000000    0.0000000   -0.0000000
h    -5.6967070    1.9241535   -0.8884394  0.00   -0.0000000    0.0000000   -0.0000000
n    -3.6575383    0.3084516   -0.1519707  0.00    0.0000000    0.0000000   -0.0000000
h    -4.4672132    1.6758819    1.2722478  0.00   -0.0000000   -0.0000000   -0.0000000
h    -3.1403305   -0.2231591    0.5905842  0.00    0.0000000   -0.0000000    0.0000000
h    -4.5772417   -0.1852577   -0.2575364  0.00   -0.0000000   -0.0000000    0.0000000
o    -2.5426698    3.3064904    1.6921326  0.00   -0.0000000    0.0000000    0.0000000
o    -1.4602453    2.2997698   -0.1930664  0.00    0.0000000    0.0000000    0.0000000
h    -1.6297473    1.6167294   -0.9169767  0.00    0.0000000   -0.0000000    0.0000000
