    24
 Energy =       0.1510038418
c     1.6703672    2.6182922    0.2614132  0.00    0.0451233    0.0678337    0.0349596
c     0.3248649    2.9356558    0.1418766  0.00   -0.0084317    0.1015844    0.0375973
c    -0.5827484    1.9945952   -0.3219261  0.00   -0.0876060    0.0443664   -0.0018623
c     2.1038063    1.3347474   -0.0833024  0.00    0.0674688   -0.0103901    0.0081250
c     1.2047783    0.3610782   -0.5608861  0.00    0.0190512   -0.0962888   -0.0238114
c    -0.1441045    0.7159142   -0.6796715  0.00   -0.0316481   -0.0459324   -0.0216730
o    -0.1504797    4.1703171    0.4675790  0.00   -0.0615029   -0.0490294    0.0198034
h    -0.7850651    4.0755150    1.1967033  0.00    0.0569507   -0.0066952   -0.0489132
h    -0.8895274    0.0262790   -1.0546636  0.00   -0.0074513   -0.0054999   -0.0007559
h     3.1621727    1.0964802    0.0165124  0.00    0.0023626   -0.0000358   -0.0005998
h     2.3926004    3.3457758    0.6178375  0.00    0.0097412   -0.0073366   -0.0006860
h    -1.6336796    2.2563998   -0.4108671  0.00   -0.0024766   -0.0009939    0.0017372
c     1.7669373   -1.0073413   -0.8964724  0.00    0.0265309   -0.0387857   -0.0207236
c     0.8861134   -2.0194266   -1.6556448  0.00    0.0670884    0.1033456    0.0525828
h     2.1212937   -1.4658931    0.0371405  0.00   -0.0028615    0.0037864   -0.0151744
h     2.6645729   -0.8285312   -1.5058794  0.00   -0.0145255    0.0001482    0.0086136
c     1.7481012   -3.2276699   -2.0845864  0.00   -0.0337825   -0.2903481   -0.2633021
o     1.5179317   -3.9787875   -3.0189800  0.00    0.0597060    0.1803164    0.2200520
o     2.8094516   -3.3865268   -1.2478409  0.00   -0.0548265    0.0627108    0.0183926
h     2.6387698   -4.2373642   -0.7696890  0.00   -0.0112716    0.0359574   -0.0109467
n    -0.2697763   -2.5678537   -0.8742070  0.00   -0.0674527   -0.0389709    0.0080820
h     0.4960411   -1.5757973   -2.5789902  0.00   -0.0077715   -0.0119567    0.0219670
h    -0.1377783   -2.3090138    0.1103184  0.00    0.0003520    0.0030536   -0.0372886
h    -1.1177682   -2.0693246   -1.1533357  0.00    0.0372333   -0.0008394    0.0138244
    24
 Energy =       0.1153058739
c     1.5785721    2.6221179    0.2282564  0.00    0.0227634    0.0331890    0.0169661
c     0.2448321    2.9090562    0.1222913  0.00   -0.0010743    0.0473546    0.0145367
c    -0.6238742    1.9733230   -0.3754054  0.00   -0.0436133    0.0219948   -0.0016489
c     2.0369836    1.3722430   -0.1222978  0.00    0.0338155   -0.0060094    0.0041042
c     1.1715834    0.4016222   -0.6046228  0.00    0.0077203   -0.0478420   -0.0117475
c    -0.1649883    0.7257997   -0.7422194  0.00   -0.0165016   -0.0232919   -0.0103349
o    -0.2528051    4.1215723    0.5590089  0.00   -0.0314404   -0.0158190    0.0075143
h    -0.8492889    3.9595084    1.3422351  0.00    0.0263136   -0.0064475   -0.0173877
h    -0.8865409    0.0236493   -1.1321943  0.00   -0.0041519   -0.0030600   -0.0004153
h     3.0965390    1.1516131   -0.0002191  0.00    0.0015865   -0.0002603   -0.0002842
h     2.2673714    3.3639584    0.6211650  0.00    0.0055157   -0.0028569    0.0002183
h    -1.6786820    2.2168600   -0.4622934  0.00   -0.0014345   -0.0002376    0.0009505
c     1.7589361   -0.9736823   -0.8794425  0.00    0.0123570   -0.0202549   -0.0105632
c     0.9444188   -2.0202752   -1.6821436  0.00    0.0322115    0.0527520    0.0249229
h     2.0511961   -1.4187565    0.0923943  0.00   -0.0007658    0.0004132   -0.0055643
h     2.7130989   -0.8067370   -1.4242608  0.00   -0.0040776   -0.0001892    0.0028692
c     1.8686800   -3.1860936   -2.0556757  0.00   -0.0178243   -0.1485281   -0.1320500
o     1.6474626   -4.0023880   -3.0463607  0.00    0.0322741    0.0899775    0.1125479
o     2.9520933   -3.3620279   -1.2282809  0.00   -0.0174604    0.0561801   -0.0083853
h     2.6994959   -4.1309037   -0.6109359  0.00   -0.0159649   -0.0020537    0.0112340
n    -0.2109927   -2.5768968   -0.9259117  0.00   -0.0363381   -0.0221261   -0.0080858
h     0.5875336   -1.5901360   -2.6358539  0.00   -0.0045877   -0.0062802    0.0105205
h    -0.0761483   -2.4363218    0.0991947  0.00    0.0017344    0.0026325   -0.0071625
h    -1.0786011   -2.0795845   -1.1839896  0.00    0.0189429    0.0007629    0.0072451
    24
 Energy =       0.1143873047
c     1.4958679    2.6269856    0.2539608  0.00    0.0223158    0.0325911    0.0165828
c     0.1557066    2.8800503    0.1442603  0.00   -0.0008541    0.0456715    0.0139600
c    -0.6849490    1.9293257   -0.3734711  0.00   -0.0427223    0.0214090   -0.0016784
c     1.9882975    1.3946560   -0.1099856  0.00    0.0332617   -0.0059248    0.0040149
c     1.1513942    0.4085012   -0.6090418  0.00    0.0071812   -0.0461403   -0.0116991
c    -0.1921211    0.6983421   -0.7533912  0.00   -0.0162527   -0.0229716   -0.0101730
o    -0.3787849    4.0699943    0.6033786  0.00   -0.0303514   -0.0137214    0.0068660
h    -0.9638335    3.8727204    1.3891125  0.00    0.0248298   -0.0064962   -0.0158898
h    -0.8907580   -0.0201687   -1.1598249  0.00   -0.0043851   -0.0033950   -0.0006759
h     3.0532060    1.2004524    0.0139328  0.00    0.0019332   -0.0003424   -0.0002289
h     2.1622126    3.3810288    0.6627459  0.00    0.0055993   -0.0024039    0.0003946
h    -1.7454897    2.1468093   -0.4633630  0.00   -0.0017664   -0.0001248    0.0008940
c     1.7846685   -0.9405850   -0.9098571  0.00    0.0114456   -0.0198716   -0.0103436
c     0.9871987   -2.0211053   -1.6836679  0.00    0.0310703    0.0515850    0.0240462
h     2.1299231   -1.3753964    0.0513131  0.00   -0.0002296   -0.0005097   -0.0042831
h     2.7117942   -0.7315978   -1.4894815  0.00   -0.0023995    0.0003833    0.0019738
c     1.9429894   -3.1605605   -2.0609663  0.00   -0.0196747   -0.1432636   -0.1285785
o     1.7497790   -3.9796097   -3.0592197  0.00    0.0317435    0.0866335    0.1086312
o     3.0572237   -3.2856990   -1.2609803  0.00   -0.0138692    0.0555323   -0.0085576
h     2.8582490   -4.0690549   -0.6409113  0.00   -0.0159905   -0.0039337    0.0124435
n    -0.1387939   -2.5985642   -0.8990739  0.00   -0.0346076   -0.0240059   -0.0085357
h     0.6010318   -1.6121903   -2.6367261  0.00   -0.0047479   -0.0057386    0.0096902
h    -0.0076520   -2.4057020    0.1196851  0.00    0.0024241    0.0030238   -0.0047934
h    -1.0302848   -2.1511121   -1.1759894  0.00    0.0160466    0.0020138    0.0059400
    24
 Energy =       0.1142976522
c     1.4030838    2.6351713    0.2511912  0.00    0.0208296    0.0302821    0.0153688
c     0.0586198    2.8524994    0.1322247  0.00   -0.0008526    0.0419635    0.0129258
c    -0.7524456    1.8802478   -0.3904177  0.00   -0.0397217    0.0198196   -0.0015748
c     1.9300567    1.4183476   -0.1093222  0.00    0.0310421   -0.0055270    0.0037303
c     1.1239231    0.4115945   -0.6135761  0.00    0.0065622   -0.0423807   -0.0109212
c    -0.2253188    0.6630784   -0.7666850  0.00   -0.0153432   -0.0213008   -0.0095006
o    -0.5099934    4.0298256    0.5866676  0.00   -0.0276996   -0.0113134    0.0057494
h    -1.0703691    3.8212910    1.3898414  0.00    0.0223468   -0.0064111   -0.0138583
h    -0.9000966   -0.0771843   -1.1775596  0.00   -0.0044275   -0.0034373   -0.0008503
h     2.9996035    1.2536277    0.0206990  0.00    0.0022677   -0.0003919   -0.0001479
h     2.0456206    3.4077783    0.6638891  0.00    0.0054326   -0.0018740    0.0005428
h    -1.8178872    2.0702661   -0.4875702  0.00   -0.0020538   -0.0000230    0.0007842
c     1.8021449   -0.9150638   -0.9149306  0.00    0.0107417   -0.0179937   -0.0093694
c     1.0431305   -2.0313301   -1.6780871  0.00    0.0279053    0.0477692    0.0216931
h     2.1719795   -1.3319926    0.0457586  0.00    0.0000346   -0.0007906   -0.0035961
h     2.7168065   -0.6722909   -1.5033206  0.00   -0.0015706    0.0006986    0.0016005
c     2.0441680   -3.1333417   -2.0541001  0.00   -0.0202319   -0.1314957   -0.1187801
o     1.8785820   -3.9723887   -3.0500208  0.00    0.0294710    0.0788279    0.0992013
o     3.1852873   -3.1977711   -1.2781114  0.00   -0.0074899    0.0581997   -0.0139286
h     2.9909349   -3.9103018   -0.5677681  0.00   -0.0168429   -0.0114401    0.0187620
n    -0.0577660   -2.6404368   -0.8828520  0.00   -0.0315023   -0.0233350   -0.0073956
h     0.6382269   -1.6418227   -2.6329313  0.00   -0.0046187   -0.0050185    0.0086418
h     0.0666606   -2.4310614    0.1338662  0.00    0.0023259    0.0028296   -0.0041198
h    -0.9680767   -2.2312217   -1.1644466  0.00    0.0133952    0.0023428    0.0050428
    24
 Energy =       0.1126533864
c     1.4483582    2.6399549    0.2402232  0.00    0.0203644    0.0297030    0.0150362
c     0.1088161    2.8820359    0.1171042  0.00   -0.0007199    0.0405812    0.0124685
c    -0.7202792    1.9186925   -0.3919932  0.00   -0.0388912    0.0193643   -0.0015410
c     1.9525840    1.4087884   -0.1044903  0.00    0.0304722   -0.0055040    0.0036303
c     1.1281144    0.4117108   -0.5984021  0.00    0.0060269   -0.0410082   -0.0109070
c    -0.2158904    0.6880864   -0.7537236  0.00   -0.0150177   -0.0210008   -0.0093281
o    -0.4347794    4.0804638    0.5481553  0.00   -0.0268755   -0.0100048    0.0052009
h    -0.9971173    3.9036390    1.3583253  0.00    0.0212542   -0.0063505   -0.0127629
h    -0.9059497   -0.0410637   -1.1555480  0.00   -0.0044484   -0.0037300   -0.0009615
h     3.0183441    1.2246509    0.0310753  0.00    0.0024321   -0.0004754   -0.0001289
h     2.1052950    3.4062835    0.6422892  0.00    0.0053724   -0.0016581    0.0006029
h    -1.7818274    2.1281872   -0.4931486  0.00   -0.0022085    0.0000538    0.0007557
c     1.7752762   -0.9389195   -0.8703935  0.00    0.0099004   -0.0174404   -0.0092181
c     1.0158132   -2.0261081   -1.6780739  0.00    0.0272946    0.0468486    0.0206583
h     2.0887240   -1.3738244    0.1041360  0.00    0.0006353   -0.0017809   -0.0020249
h     2.7260814   -0.7244447   -1.4144725  0.00    0.0001788    0.0012584    0.0007153
c     2.0036601   -3.1410845   -2.0476954  0.00   -0.0205205   -0.1283784   -0.1155908
o     1.8385464   -3.9659418   -3.0585306  0.00    0.0285544    0.0765731    0.0964265
o     3.1281870   -3.2396465   -1.2508703  0.00   -0.0022127    0.0748125   -0.0256349
h     2.9681470   -4.0690549   -0.6499064  0.00   -0.0204590   -0.0287858    0.0306622
n    -0.1146484   -2.6341701   -0.9229185  0.00   -0.0297225   -0.0267182   -0.0106135
h     0.6419423   -1.6106114   -2.6351258  0.00   -0.0047899   -0.0045783    0.0077335
h     0.0259822   -2.5072918    0.1086123  0.00    0.0037479    0.0035148    0.0016541
h    -1.0065044   -2.1628119   -1.1721896  0.00    0.0096321    0.0047041    0.0031674
    24
 Energy =       0.1126560011
c     1.3892267    2.6471704    0.2435693  0.00    0.0193087    0.0281671    0.0142533
c     0.0493447    2.8753587    0.1100251  0.00   -0.0006935    0.0382986    0.0118398
c    -0.7668923    1.8997735   -0.3939884  0.00   -0.0368746    0.0183507   -0.0014448
c     1.9070017    1.4192282   -0.0871670  0.00    0.0289420   -0.0052766    0.0034624
c     1.0963123    0.4105590   -0.5787086  0.00    0.0053280   -0.0388128   -0.0102623
c    -0.2490094    0.6714448   -0.7418912  0.00   -0.0142860   -0.0200242   -0.0088390
o    -0.5070892    4.0747839    0.5232225  0.00   -0.0252944   -0.0089826    0.0046712
h    -1.0559781    3.9072748    1.3456206  0.00    0.0199116   -0.0061681   -0.0117874
h    -0.9299837   -0.0677947   -1.1388976  0.00   -0.0042174   -0.0036234   -0.0009426
h     2.9734875    1.2473988    0.0586750  0.00    0.0024346   -0.0005257   -0.0001216
h     2.0358471    3.4239351    0.6421946  0.00    0.0051443   -0.0014813    0.0006132
h    -1.8297403    2.0984231   -0.5029842  0.00   -0.0021805    0.0000771    0.0007099
c     1.7591962   -0.9381625   -0.8252315  0.00    0.0089087   -0.0145597   -0.0078214
c     1.0562733   -2.0232618   -1.6908145  0.00    0.0254169    0.0453700    0.0169889
h     2.0263485   -1.3803828    0.1603945  0.00    0.0010904   -0.0017168   -0.0007174
h     2.7381029   -0.7109977   -1.3162081  0.00    0.0018894    0.0014778   -0.0001674
c     2.0885517   -3.0979233   -2.0663101  0.00   -0.0198175   -0.1218574   -0.1099047
o     1.9518877   -3.9348893   -3.0772299  0.00    0.0271602    0.0719744    0.0906565
o     3.2257365   -3.1534718   -1.2793755  0.00   -0.0002695    0.0714675   -0.0244444
h     3.1055896   -3.9926041   -0.6843513  0.00   -0.0196308   -0.0283522    0.0297494
n    -0.0768250   -2.6860600   -0.9843952  0.00   -0.0285528   -0.0294490   -0.0159234
h     0.6962703   -1.5887036   -2.6450060  0.00   -0.0044526   -0.0043432    0.0069519
h     0.0775806   -2.6660449    0.0579810  0.00    0.0043978    0.0030757    0.0109483
h    -0.9643640   -2.1775337   -1.1766851  0.00    0.0063372    0.0069141    0.0015315
    24
 Energy =       0.1103832177
c     1.4672844    2.6490982    0.2126169  0.00    0.0190837    0.0278106    0.0140597
c     0.1308426    2.9001516    0.0844936  0.00   -0.0006541    0.0375323    0.0115894
c    -0.7045709    1.9369304   -0.4113687  0.00   -0.0364117    0.0180186   -0.0014597
c     1.9628103    1.4111883   -0.1164608  0.00    0.0286479   -0.0052113    0.0034345
c     1.1319829    0.4154958   -0.5994388  0.00    0.0051907   -0.0381994   -0.0099776
c    -0.2091090    0.6995694   -0.7578195  0.00   -0.0141883   -0.0198189   -0.0087294
o    -0.4009532    4.1131331    0.4914324  0.00   -0.0248629   -0.0083240    0.0044935
h    -0.9510102    3.9640696    1.3169301  0.00    0.0193824   -0.0060716   -0.0113113
h    -0.9042933   -0.0286679   -1.1504168  0.00   -0.0042248   -0.0035454   -0.0009637
h     3.0270293    1.2205376    0.0232408  0.00    0.0025995   -0.0005781   -0.0001053
h     2.1291603    3.4168987    0.6040331  0.00    0.0051608   -0.0013102    0.0006726
h    -1.7643098    2.1536873   -0.5171916  0.00   -0.0023207    0.0001131    0.0006788
c     1.7663564   -0.9464696   -0.8479336  0.00    0.0085503   -0.0121331   -0.0067266
c     1.0047577   -2.0338660   -1.6620742  0.00    0.0243633    0.0461612    0.0138001
h     2.0574709   -1.3760058    0.1374612  0.00    0.0012879   -0.0014544   -0.0001798
h     2.7327900   -0.7514982   -1.3777465  0.00    0.0031254    0.0016643   -0.0008112
c     1.9860830   -3.1629474   -2.0135625  0.00   -0.0209173   -0.1203022   -0.1094260
o     1.8216663   -3.9890029   -3.0314132  0.00    0.0267232    0.0703019    0.0884298
o     3.0989893   -3.2838429   -1.1981205  0.00    0.0034581    0.0707081   -0.0236648
h     2.9468365   -4.1443511   -0.6402567  0.00   -0.0195804   -0.0298398    0.0304673
n    -0.1428831   -2.6286733   -0.9161989  0.00   -0.0275667   -0.0338193   -0.0187216
h     0.6493885   -1.6197336   -2.6276224  0.00   -0.0041517   -0.0041107    0.0064635
h    -0.0107433   -2.5160498    0.1278185  0.00    0.0042935    0.0032468    0.0181407
h    -1.0287002   -2.1421316   -1.1779637  0.00    0.0030117    0.0091615   -0.0001528
    24
 Energy =       0.1062391020
c     1.5298797    2.6585195    0.1567391  0.00    0.0168974    0.0249354    0.0125939
c     0.1986201    2.9283981    0.0304780  0.00   -0.0003002    0.0326326    0.0101857
c    -0.6540819    1.9682407   -0.4363562  0.00   -0.0325126    0.0158446   -0.0013290
c     2.0046642    1.4083696   -0.1502752  0.00    0.0256427   -0.0045631    0.0030799
c     1.1564612    0.4179221   -0.6079615  0.00    0.0044551   -0.0336142   -0.0090115
c    -0.1801998    0.7184720   -0.7598627  0.00   -0.0125422   -0.0180032   -0.0078991
o    -0.3064252    4.1656554    0.4014794  0.00   -0.0210433   -0.0056354    0.0021929
h    -0.8363942    4.0637417    1.2502462  0.00    0.0158101   -0.0055739   -0.0077878
h    -0.8897871   -0.0080400   -1.1277120  0.00   -0.0039025   -0.0034018   -0.0009795
h     3.0663635    1.2038550   -0.0127461  0.00    0.0024308   -0.0005085   -0.0000650
h     2.2052022    3.4261115    0.5253163  0.00    0.0047290   -0.0008304    0.0007325
h    -1.7107430    2.1995422   -0.5408311  0.00   -0.0021793    0.0001394    0.0005949
c     1.7602649   -0.9641717   -0.8259640  0.00    0.0073092   -0.0104656   -0.0061019
c     0.9716816   -2.0427390   -1.6270264  0.00    0.0213727    0.0425644    0.0108505
h     2.0277618   -1.3849937    0.1703384  0.00    0.0012469   -0.0014973    0.0001696
h     2.7374850   -0.8090214   -1.3492811  0.00    0.0035359    0.0015261   -0.0011280
c     1.9134854   -3.2147868   -1.9387973  0.00   -0.0205565   -0.1070969   -0.0986032
o     1.7411985   -4.0338960   -2.9711707  0.00    0.0236116    0.0623154    0.0781127
o     2.9882185   -3.3975763   -1.0809113  0.00    0.0081911    0.0669772   -0.0219515
h     2.8289103   -4.3031042   -0.6006211  0.00   -0.0187271   -0.0321224    0.0300969
n    -0.2048996   -2.5805468   -0.8836734  0.00   -0.0222070   -0.0339536   -0.0176024
h     0.6468725   -1.6362606   -2.6077615  0.00   -0.0036860   -0.0032540    0.0052159
h    -0.1133228   -2.4053270    0.1575502  0.00    0.0036509    0.0031988    0.0206138
h    -1.0843404   -2.1208442   -1.2187576  0.00   -0.0012268    0.0103865   -0.0019804
    24
 Energy =       0.1009469717
c     1.5821334    2.6741092    0.0743379  0.00    0.0131152    0.0203621    0.0102709
c     0.2563841    2.9582681   -0.0455058  0.00    0.0004512    0.0244525    0.0082146
c    -0.6145829    1.9926747   -0.4572877  0.00   -0.0259859    0.0120455   -0.0011391
c     2.0360739    1.4098091   -0.1924849  0.00    0.0206457   -0.0032378    0.0026521
c     1.1701298    0.4170651   -0.6018956  0.00    0.0026771   -0.0255567   -0.0079359
c    -0.1634123    0.7271582   -0.7368169  0.00   -0.0096145   -0.0152937   -0.0065584
o    -0.2193390    4.2259925    0.2665246  0.00   -0.0132598   -0.0007288   -0.0044677
h    -0.6998729    4.1955917    1.1568572  0.00    0.0088270   -0.0047070    0.0007308
h    -0.8903435   -0.0073151   -1.0513597  0.00   -0.0037774   -0.0035494   -0.0011231
h     3.0961363    1.1964127   -0.0597298  0.00    0.0020319   -0.0003094    0.0000337
h     2.2713845    3.4489991    0.4009294  0.00    0.0041921    0.0002619    0.0009226
h    -1.6692962    2.2342638   -0.5546646  0.00   -0.0018393    0.0000695    0.0004314
c     1.7403834   -0.9897073   -0.7596693  0.00    0.0043806   -0.0089034   -0.0058404
c     0.9553920   -2.0500822   -1.5900187  0.00    0.0176822    0.0351860    0.0068694
h     1.9358022   -1.4040635    0.2584335  0.00    0.0015864   -0.0024004    0.0025345
h     2.7521773   -0.8825928   -1.2307215  0.00    0.0054783    0.0012582   -0.0022574
c     1.8670635   -3.2571091   -1.8448891  0.00   -0.0184502   -0.0849513   -0.0789865
o     1.7103337   -4.0731735   -2.8992848  0.00    0.0183383    0.0488573    0.0607332
o     2.8885640   -3.4951862   -0.9315970  0.00    0.0143977    0.0659810   -0.0192313
h     2.7559615   -4.4618573   -0.5722042  0.00   -0.0181308   -0.0392231    0.0286561
n    -0.2710497   -2.5382800   -0.8955831  0.00   -0.0132579   -0.0328748   -0.0143959
h     0.6942894   -1.6390971   -2.5908619  0.00   -0.0032743   -0.0015718    0.0021766
h    -0.2547461   -2.3074444    0.1401423  0.00    0.0024261    0.0035074    0.0231799
h    -1.1326913   -2.1169156   -1.3302118  0.00   -0.0086398    0.0113261   -0.0054699
    24
 Energy =       0.0985728881
c     1.5987555    2.6771757    0.0495192  0.00    0.0126988    0.0179661    0.0091930
c     0.2819794    2.9760149   -0.1217253  0.00    0.0001193    0.0218997    0.0072837
c    -0.5824587    2.0219325   -0.5693092  0.00   -0.0237071    0.0104919   -0.0010569
c     2.0484163    1.4087756   -0.1972217  0.00    0.0191395   -0.0029861    0.0025074
c     1.1876260    0.4269447   -0.6370926  0.00    0.0040487   -0.0227492   -0.0071324
c    -0.1345412    0.7537748   -0.8341543  0.00   -0.0098327   -0.0128047   -0.0056848
o    -0.1907052    4.2500016    0.1700277  0.00   -0.0119752   -0.0004396   -0.0041386
h    -0.6738555    4.2361694    1.0596688  0.00    0.0076652   -0.0041975    0.0008260
h    -0.8540975    0.0323786   -1.1949975  0.00   -0.0042461   -0.0016066   -0.0013389
h     3.1007996    1.1825597   -0.0247379  0.00    0.0027068   -0.0005118    0.0001740
h     2.2834914    3.4454056    0.4004135  0.00    0.0041072    0.0003414    0.0009079
h    -1.6295136    2.2772702   -0.7134177  0.00   -0.0028802    0.0002248    0.0001840
c     1.7534721   -0.9824616   -0.7802855  0.00    0.0039283   -0.0048922   -0.0043869
c     0.9252837   -2.0773331   -1.5240852  0.00    0.0170317    0.0304806    0.0033550
h     2.0012495   -1.3603355    0.2427895  0.00    0.0017777   -0.0022658    0.0043128
h     2.7394818   -0.8884666   -1.3073378  0.00    0.0066361    0.0017657   -0.0028199
c     1.8131106   -3.3056380   -1.7475850  0.00   -0.0173265   -0.0761186   -0.0706960
o     1.6749024   -4.1122772   -2.8190563  0.00    0.0159140    0.0432363    0.0532224
o     2.7987596   -3.5716935   -0.8020622  0.00    0.0149250    0.0600661   -0.0163668
h     2.6755173   -4.5542363   -0.4928863  0.00   -0.0166761   -0.0368324    0.0259940
n    -0.2791995   -2.5141490   -0.7587922  0.00   -0.0148458   -0.0322420   -0.0127818
h     0.6319184   -1.7169605   -2.5376523  0.00   -0.0027913   -0.0009451   -0.0000290
h    -0.2184799   -2.2427927    0.2657093  0.00    0.0019486    0.0036402    0.0236081
h    -1.1550372   -2.1045392   -1.1732907  0.00   -0.0083659    0.0084789   -0.0051359
    24
 Energy =       0.0955627609
c     1.5999671    2.6813684    0.0183605  0.00    0.0116489    0.0149393    0.0078048
c     0.2937422    2.9888316   -0.2053980  0.00   -0.0002450    0.0184082    0.0060755
c    -0.5587769    2.0402989   -0.6818145  0.00   -0.0205619    0.0088466   -0.0008509
c     2.0492427    1.4098580   -0.2018697  0.00    0.0168241   -0.0027890    0.0021474
c     1.1987185    0.4331857   -0.6658683  0.00    0.0049942   -0.0192754   -0.0058991
c    -0.1102201    0.7697420   -0.9237039  0.00   -0.0094442   -0.0101585   -0.0047848
o    -0.1791551    4.2695405    0.0575640  0.00   -0.0102795    0.0001018   -0.0038544
h    -0.6590182    4.2790484    0.9495789  0.00    0.0061526   -0.0035790    0.0010699
h    -0.8176392    0.0550074   -1.3208101  0.00   -0.0042076   -0.0003522   -0.0014719
h     3.0932822    1.1768065    0.0104305  0.00    0.0031102   -0.0006874    0.0002829
h     2.2761934    3.4477765    0.3884637  0.00    0.0037379    0.0003374    0.0008229
h    -1.5969664    2.3041484   -0.8721708  0.00   -0.0035641    0.0004240   -0.0000438
c     1.7637793   -0.9779607   -0.7878277  0.00    0.0033756   -0.0020913   -0.0033082
c     0.9104526   -2.1004593   -1.4603828  0.00    0.0148818    0.0254003    0.0009280
h     2.0464891   -1.3226357    0.2387435  0.00    0.0016798   -0.0019056    0.0048228
h     2.7295900   -0.8977775   -1.3518419  0.00    0.0064270    0.0019118   -0.0027595
c     1.7784920   -3.3487135   -1.6351027  0.00   -0.0160794   -0.0648410   -0.0600988
o     1.6770587   -4.1526610   -2.7220928  0.00    0.0129718    0.0359085    0.0435130
o     2.7141645   -3.6374650   -0.6442946  0.00    0.0161839    0.0545658   -0.0121951
h     2.6205910   -4.6400518   -0.4039134  0.00   -0.0152534   -0.0354103    0.0224820
n    -0.2841196   -2.4807448   -0.6526552  0.00   -0.0142900   -0.0287333   -0.0103779
h     0.6043697   -1.7884763   -2.4874535  0.00   -0.0021534   -0.0004503   -0.0014374
h    -0.1909257   -2.1837146    0.3608311  0.00    0.0014574    0.0033347    0.0212756
h    -1.1624365   -2.0674318   -1.0543340  0.00   -0.0073669    0.0060948   -0.0041429
    24
 Energy =       0.0915549928
c     1.6108610    2.6559031    0.0825606  0.00    0.0110209    0.0118826    0.0064898
c     0.3211208    2.9823811   -0.1987495  0.00   -0.0001456    0.0151553    0.0049486
c    -0.5164976    2.0551466   -0.7376050  0.00   -0.0172395    0.0058861   -0.0011136
c     2.0565566    1.3859753   -0.1408510  0.00    0.0146412   -0.0011097    0.0023420
c     1.2185716    0.4305716   -0.6637792  0.00    0.0046822   -0.0148063   -0.0039630
c    -0.0701563    0.7879132   -0.9866150  0.00   -0.0092342   -0.0079783   -0.0039601
o    -0.1482391    4.2645050    0.0645432  0.00   -0.0079594    0.0001068   -0.0029797
h    -0.6338074    4.2773020    0.9536840  0.00    0.0047218   -0.0027962    0.0008512
h    -0.7608303    0.0925702   -1.4497050  0.00   -0.0048694   -0.0005855   -0.0027174
h     3.0886240    1.1376961    0.1104776  0.00    0.0034507   -0.0004983    0.0005216
h     2.2767587    3.4087589    0.4979968  0.00    0.0039137    0.0009127    0.0010753
h    -1.5403788    2.3361119   -0.9782472  0.00   -0.0043607    0.0002693   -0.0005204
c     1.7821039   -0.9767107   -0.8272872  0.00    0.0017549   -0.0005463   -0.0022835
c     0.8711938   -2.0930558   -1.4307859  0.00    0.0129524    0.0197666   -0.0018698
h     2.1371660   -1.3244672    0.1776005  0.00    0.0023528   -0.0016509    0.0064461
h     2.7040885   -0.8941925   -1.4618854  0.00    0.0077991    0.0016450   -0.0038810
c     1.7000705   -3.3587063   -1.6457653  0.00   -0.0130216   -0.0488982   -0.0448285
o     1.5981671   -4.0931371   -2.7938070  0.00    0.0091447    0.0260626    0.0285303
o     2.6153723   -3.7270712   -0.6612453  0.00    0.0160551    0.0511304   -0.0083019
h     2.5514563   -4.7504968   -0.5244753  0.00   -0.0127439   -0.0368055    0.0194165
n    -0.2825563   -2.4303538   -0.5482990  0.00   -0.0132577   -0.0251537   -0.0083200
h     0.5114860   -1.7887901   -2.4440797  0.00   -0.0021563   -0.0001683   -0.0027225
h    -0.1216293   -2.1274189    0.4543386  0.00    0.0011615    0.0036348    0.0202908
h    -1.1726267   -1.9929144   -0.8955809  0.00   -0.0086627    0.0045449   -0.0034508
    24
 Energy =       0.0897833038
c     1.5804691    2.6608240    0.0593401  0.00    0.0109257    0.0106080    0.0060983
c     0.3027509    2.9856923   -0.2741234  0.00   -0.0003627    0.0138639    0.0044166
c    -0.5110151    2.0579533   -0.8467355  0.00   -0.0162382    0.0051412   -0.0012325
c     2.0356946    1.3915712   -0.1428772  0.00    0.0139699   -0.0010632    0.0023182
c     1.2194001    0.4346844   -0.6947668  0.00    0.0054833   -0.0135773   -0.0032750
c    -0.0532547    0.7919436   -1.0774766  0.00   -0.0095653   -0.0067567   -0.0038281
o    -0.1776748    4.2683498   -0.0325783  0.00   -0.0072012    0.0003363   -0.0030692
h    -0.6844179    4.2879819    0.8449172  0.00    0.0039342   -0.0024373    0.0011954
h    -0.7205519    0.0975105   -1.5768428  0.00   -0.0050780    0.0000350   -0.0031175
h     3.0583071    1.1452877    0.1478981  0.00    0.0039072   -0.0006301    0.0006884
h     2.2289801    3.4155538    0.4983518  0.00    0.0039380    0.0009975    0.0011444
h    -1.5240286    2.3388424   -1.1318469  0.00   -0.0049493    0.0003992   -0.0007783
c     1.7951807   -0.9687877   -0.8438050  0.00    0.0014981    0.0011370   -0.0019059
c     0.8764401   -2.1140326   -1.3788891  0.00    0.0118876    0.0174200   -0.0024681
h     2.1881337   -1.2861493    0.1579121  0.00    0.0024672   -0.0015436    0.0069225
h     2.6926650   -0.8908973   -1.5123878  0.00    0.0077047    0.0019473   -0.0038997
c     1.7013050   -3.3905913   -1.5363614  0.00   -0.0129468   -0.0439800   -0.0402546
o     1.6600971   -4.1320954   -2.6884031  0.00    0.0077911    0.0223085    0.0233355
o     2.5638251   -3.7572541   -0.5024922  0.00    0.0170487    0.0467157   -0.0045323
h     2.5298271   -4.7838427   -0.3974416  0.00   -0.0119586   -0.0344186    0.0170639
n    -0.2675878   -2.4014478   -0.4681073  0.00   -0.0109410   -0.0252785   -0.0075881
h     0.5054772   -1.8622870   -2.4035212  0.00   -0.0019008    0.0001254   -0.0040377
h    -0.0582250   -2.1191877    0.5317333  0.00    0.0015202    0.0039471    0.0202173
h    -1.1449219   -1.9121018   -0.7790581  0.00   -0.0109341    0.0047031   -0.0034134
    24
 Energy =       0.0873017375
c     1.5380953    2.6595677    0.0529004  0.00    0.0105830    0.0087643    0.0055298
c     0.2771391    2.9817554   -0.3407804  0.00   -0.0005608    0.0119413    0.0036697
c    -0.5048628    2.0543665   -0.9553738  0.00   -0.0145842    0.0039331   -0.0014321
c     2.0060476    1.3932261   -0.1296453  0.00    0.0127760   -0.0006982    0.0023138
c     1.2189258    0.4359298   -0.7195614  0.00    0.0058567   -0.0117535   -0.0021733
c    -0.0324491    0.7917448   -1.1683943  0.00   -0.0096168   -0.0053504   -0.0036759
o    -0.2169840    4.2635068   -0.1209769  0.00   -0.0060144    0.0005471   -0.0029770
h    -0.7463427    4.2886456    0.7433634  0.00    0.0029055   -0.0019350    0.0014657
h    -0.6696123    0.0975479   -1.7086419  0.00   -0.0051466    0.0003769   -0.0036863
h     3.0162109    1.1504140    0.2054931  0.00    0.0042982   -0.0006761    0.0009100
h     2.1632857    3.4159029    0.5222071  0.00    0.0039319    0.0011694    0.0012765
h    -1.5032244    2.3342490   -1.2906000  0.00   -0.0054430    0.0004835   -0.0011208
c     1.8107424   -0.9608062   -0.8633213  0.00    0.0010047    0.0023721   -0.0016253
c     0.8831920   -2.1289180   -1.3278950  0.00    0.0103920    0.0138292   -0.0031976
h     2.2480371   -1.2526496    0.1281929  0.00    0.0025160   -0.0013705    0.0070087
h     2.6769510   -0.8846429   -1.5710764  0.00    0.0073391    0.0021366   -0.0038479
c     1.7036522   -3.4116129   -1.4398305  0.00   -0.0129952   -0.0349762   -0.0302543
o     1.7638637   -4.1206035   -2.6208834  0.00    0.0058498    0.0157289    0.0117881
o     2.4906948   -3.7993828   -0.3518794  0.00    0.0181640    0.0433131    0.0021215
h     2.5030283   -4.8290928   -0.3071777  0.00   -0.0109035   -0.0329939    0.0134474
n    -0.2451456   -2.3665032   -0.3865931  0.00   -0.0068495   -0.0254677   -0.0072988
h     0.4943908   -1.9251818   -2.3570052  0.00   -0.0015377    0.0002844   -0.0048040
h     0.0206952   -2.1207080    0.6096078  0.00    0.0022779    0.0042722    0.0200107
h    -1.0994558   -1.8092347   -0.6496906  0.00   -0.0142431    0.0060694   -0.0034485
    24
 Energy =       0.0854741053
c     1.5472852    2.6546884    0.0542835  0.00    0.0099217    0.0081377    0.0051612
c     0.2923507    2.9833506   -0.3513224  0.00   -0.0005485    0.0111097    0.0034058