    24
 Energy =       0.2018797596
c     1.6703672    2.6182922    0.2614132  0.00    0.0469968    0.0713975    0.0240277
c     0.3248649    2.9356558    0.1418766  0.00   -0.0068941    0.1044243    0.0293547
c    -0.5827484    1.9945952   -0.3219261  0.00   -0.0889615    0.0427792    0.0035039
c     2.1038063    1.3347474   -0.0833024  0.00    0.0670546   -0.0107575    0.0081571
c     1.2047783    0.3610782   -0.5608861  0.00    0.0162976   -0.0994184   -0.0300653
c    -0.1441045    0.7159142   -0.6796715  0.00   -0.0401194   -0.0680309   -0.0507579
o    -0.1504797    4.1703171    0.4675790  0.00   -0.0522751   -0.0243729   -0.0608615
h    -0.5871159    4.5498648   -0.3125495  0.00    0.0449408   -0.0383954    0.0482997
h    -0.8895274    0.0262790   -1.0546636  0.00   -0.0163099   -0.2284289   -0.4401980
h     3.1621727    1.0964802    0.0165124  0.00    0.0026520   -0.0002871   -0.0006249
h     2.3926004    3.3457758    0.6178375  0.00    0.0099637   -0.0069856   -0.0015914
h    -1.6336796    2.2563998   -0.4108671  0.00   -0.0018492    0.0002672   -0.0001803
c     1.7669373   -1.0073413   -0.8964724  0.00   -0.0304883    0.0252318    0.0000098
c     0.8861134   -2.0194266   -1.6556448  0.00   -0.0063427    0.0153721    0.1445271
h     2.1212937   -1.4658931    0.0371405  0.00   -0.0011702    0.0106037   -0.0090573
h     2.6645729   -0.8285312   -1.5058794  0.00   -0.0117339    0.0077402    0.0123095
c     0.2877588   -1.3395944   -2.9073099  0.00    0.1306155    0.0237309   -0.3779301
o     0.8327661   -1.2278598   -3.9939237  0.00   -0.1238452   -0.0264615    0.2638660
o    -0.9441121   -0.8279107   -2.6380200  0.00    0.0559603    0.2269744    0.4869275
h    -1.5388787   -1.1994019   -3.3379720  0.00    0.0291304   -0.0078601    0.0340889
n     1.5974427   -3.2508470   -2.1301054  0.00   -0.0370272   -0.0766875   -0.0837319
h     0.0358579   -2.3311629   -1.0380560  0.00    0.0151723   -0.0061673   -0.0210424
h     1.2905400   -4.0382287   -1.5473940  0.00    0.0014460    0.0286002   -0.0216429
h     1.2573657   -3.4835548   -3.0659095  0.00   -0.0032133    0.0367316    0.0426120
    24
 Energy =       0.1734149670
c     1.5852390    2.6278870    0.2815133  0.00    0.0395623    0.0598050    0.0200508
c     0.2407388    2.9154035    0.1460606  0.00   -0.0056149    0.0873890    0.0244716
c    -0.6367373    1.9578161   -0.3269576  0.00   -0.0745040    0.0360241    0.0029861
c     2.0509080    1.3640365   -0.0623744  0.00    0.0562851   -0.0091059    0.0067512
c     1.1842781    0.3785401   -0.5521052  0.00    0.0129349   -0.0824139   -0.0250320
c    -0.1687156    0.6945418   -0.6813485  0.00   -0.0342237   -0.0569623   -0.0426618
o    -0.2605314    4.1472936    0.4655278  0.00   -0.0437818   -0.0201100   -0.0496150
h    -0.6736126    4.5339410   -0.3336311  0.00    0.0374635   -0.0318760    0.0393522
h    -0.8902126   -0.0192349   -1.0690339  0.00   -0.0142511   -0.1948095   -0.3735584
h     3.1144628    1.1523079    0.0440719  0.00    0.0026186   -0.0003727   -0.0004984
h     2.2823233    3.3745524    0.6484340  0.00    0.0086772   -0.0054882   -0.0011618
h    -1.6918391    2.1976929   -0.4276429  0.00   -0.0018652    0.0003367   -0.0001709
c     1.7980241   -0.9602019   -0.9171059  0.00   -0.0257855    0.0202040   -0.0000331
c     0.9368648   -1.9994402   -1.6561759  0.00   -0.0061596    0.0147513    0.1211339
h     2.2045363   -1.4167604    0.0004078  0.00   -0.0003243    0.0078598   -0.0066050
h     2.6689150   -0.7376513   -1.5586001  0.00   -0.0083562    0.0069905    0.0092425
c     0.3117985   -1.3586059   -2.9106410  0.00    0.1085452    0.0200078   -0.3154783
o     0.8805768   -1.2451442   -4.0159947  0.00   -0.1029491   -0.0219515    0.2201819
o    -0.9436966   -0.8751299   -2.6776851  0.00    0.0507259    0.1984754    0.4182332
h    -1.5294332   -1.3423831   -3.3413161  0.00    0.0192839   -0.0113532    0.0225126
n     1.7073177   -3.2022492   -2.0957041  0.00   -0.0283787   -0.0630163   -0.0687645
h     0.0989066   -2.3305492   -1.0261409  0.00    0.0122186   -0.0053651   -0.0175399
h     1.4492931   -3.9963681   -1.4909017  0.00    0.0009235    0.0217005   -0.0170876
h     1.4091875   -3.4746471   -3.0408503  0.00   -0.0030446    0.0292804    0.0332906
    24
 Energy =       0.1555478209
c     1.5249382    2.6479799    0.2663802  0.00    0.0335558    0.0503846    0.0170094
c     0.1826637    2.9135887    0.1128592  0.00   -0.0042067    0.0727634    0.0208326
c    -0.6742022    1.9349604   -0.3427519  0.00   -0.0629861    0.0302620    0.0025687
c     2.0129523    1.3934067   -0.0574540  0.00    0.0477253   -0.0079316    0.0056334
c     1.1694293    0.3936164   -0.5414076  0.00    0.0108715   -0.0696148   -0.0211922
c    -0.1860158    0.6784041   -0.6739948  0.00   -0.0292145   -0.0481767   -0.0362918
o    -0.3318247    4.1579654    0.3804264  0.00   -0.0370483   -0.0156864   -0.0397294
h    -0.7176812    4.5210403   -0.4517839  0.00    0.0310713   -0.0262553    0.0311851
h    -0.8912673   -0.0596673   -1.0538708  0.00   -0.0124871   -0.1674944   -0.3197374
h     3.0797174    1.2024314    0.0556545  0.00    0.0024620   -0.0003816   -0.0004015
h     2.2047411    3.4159697    0.6218054  0.00    0.0075692   -0.0043027   -0.0008488
h    -1.7316092    2.1580272   -0.4566951  0.00   -0.0018157    0.0003880   -0.0001451
c     1.8126256   -0.9332277   -0.9007228  0.00   -0.0213826    0.0168867   -0.0000340
c     0.9744515   -1.9877223   -1.6429147  0.00   -0.0055988    0.0137398    0.1022925
h     2.2198493   -1.3833376    0.0214563  0.00   -0.0002363    0.0066024   -0.0055513
h     2.6853212   -0.6994297   -1.5389985  0.00   -0.0069555    0.0058835    0.0077618
c     0.3307572   -1.3704151   -2.8966010  0.00    0.0918128    0.0167721   -0.2662859
o     0.9117050   -1.2532840   -4.0194274  0.00   -0.0870174   -0.0185767    0.1856616
o    -0.9437746   -0.9159067   -2.6873797  0.00    0.0516557    0.1806391    0.3674977
h    -1.5305481   -1.5011363   -3.2720668  0.00    0.0068587   -0.0196945    0.0089501
n     1.7901263   -3.1642192   -2.0599895  0.00   -0.0226787   -0.0526555   -0.0576295
h     0.1439554   -2.3385709   -1.0090210  0.00    0.0100081   -0.0046345   -0.0147309
h     1.5699522   -3.9629019   -1.4410059  0.00    0.0007035    0.0170541   -0.0138454
h     1.5223296   -3.4619241   -3.0106907  0.00   -0.0026662    0.0240288    0.0270302
    24
 Energy =       0.1510694179
c     1.4986242    2.6316744    0.3115527  0.00    0.0302717    0.0460515    0.0154142
c     0.1575635    2.8914826    0.1629007  0.00   -0.0029043    0.0643425    0.0180213
c    -0.6874321    1.9249012   -0.3329826  0.00   -0.0573702    0.0269132    0.0019776
c     1.9967556    1.3929678   -0.0441637  0.00    0.0435871   -0.0073776    0.0051198
c     1.1643067    0.4019767   -0.5565339  0.00    0.0094282   -0.0631827   -0.0191757
c    -0.1908475    0.6818838   -0.6945136  0.00   -0.0265893   -0.0445022   -0.0331641
o    -0.3689520    4.1168902    0.5022923  0.00   -0.0330218   -0.0124803   -0.0315864
h    -0.7401770    4.5431116   -0.3116645  0.00    0.0268061   -0.0223171    0.0252450
h    -0.8917384   -0.0471834   -1.1012811  0.00   -0.0117472   -0.1532094   -0.2918848
h     3.0641313    1.2067619    0.0703568  0.00    0.0022762   -0.0003301   -0.0003473
h     2.1679675    3.3927960    0.7014437  0.00    0.0071577   -0.0032985   -0.0004986
h    -1.7458144    2.1445301   -0.4432352  0.00   -0.0016774    0.0004071   -0.0001229
c     1.8260498   -0.9062540   -0.9544140  0.00   -0.0199211    0.0147706   -0.0002767
c     0.9896434   -1.9665035   -1.6873145  0.00   -0.0051760    0.0129946    0.0930736
h     2.2680960   -1.3638072   -0.0501848  0.00    0.0001033    0.0055551   -0.0044863
h     2.6772054   -0.6450313   -1.6139898  0.00   -0.0057184    0.0054789    0.0064815
c     0.3446544   -1.3569999   -2.9420752  0.00    0.0830515    0.0144453   -0.2426639
o     0.9318679   -1.2521617   -4.0743818  0.00   -0.0796145   -0.0174249    0.1685800
o    -0.9347689   -0.9093394   -2.7460174  0.00    0.0747057    0.2019374    0.3565326
h    -1.5394137   -1.6598894   -3.1509104  0.00   -0.0203437   -0.0539303   -0.0124263
n     1.8155534   -3.1386974   -2.0899015  0.00   -0.0205022   -0.0477596   -0.0522379
h     0.1621254   -2.3152863   -1.0466655  0.00    0.0090151   -0.0042477   -0.0134145
h     1.6020428   -3.9351666   -1.4637756  0.00    0.0006323    0.0154224   -0.0125362
h     1.5611488   -3.4470087   -3.0427353  0.00   -0.0024486    0.0217417    0.0243760
    24
 Energy =       0.1336124646
c     1.4127168    2.6213028    0.3595126  0.00    0.0245822    0.0378461    0.0125550
c     0.0702675    2.8481250    0.2118441  0.00   -0.0021503    0.0519740    0.0138689
c    -0.7439419    1.8725843   -0.3059500  0.00   -0.0468206    0.0222029    0.0014326
c     1.9449491    1.4098628   -0.0195470  0.00    0.0356970   -0.0062951    0.0041527
c     1.1447045    0.4111770   -0.5534034  0.00    0.0067837   -0.0507867   -0.0153409
c    -0.2160371    0.6526392   -0.6867973  0.00   -0.0221499   -0.0365746   -0.0270858
o    -0.4876479    4.0534347    0.5864801  0.00   -0.0264992   -0.0097275   -0.0218769
h    -0.8214416    4.5241192   -0.2267929  0.00    0.0210032   -0.0171195    0.0178026
h    -0.8990046   -0.0896922   -1.1056911  0.00   -0.0104450   -0.1270483   -0.2411610
h     3.0174136    1.2526016    0.0927309  0.00    0.0023169   -0.0004229   -0.0002581
h     2.0560626    3.3934443    0.7713433  0.00    0.0061024   -0.0021664   -0.0001518
h    -1.8077277    2.0667153   -0.4124703  0.00   -0.0017006    0.0005263   -0.0001026
c     1.8565108   -0.8588934   -0.9958100  0.00   -0.0162139    0.0108787   -0.0004147
c     1.0495659   -1.9488670   -1.7163594  0.00   -0.0049943    0.0117195    0.0754817
h     2.3490628   -1.3126770   -0.1125690  0.00    0.0007987    0.0034097   -0.0027418
h     2.6758945   -0.5484495   -1.6797288  0.00   -0.0030908    0.0051361    0.0040910
c     0.3696849   -1.3740570   -2.9646430  0.00    0.0663922    0.0117168   -0.1963578
o     0.9588380   -1.2447930   -4.1169416  0.00   -0.0642353   -0.0136336    0.1361184
o    -0.9239535   -0.9587652   -2.7767188  0.00    0.0632854    0.1706504    0.2951141
h    -1.5126663   -1.6746276   -3.2518123  0.00   -0.0191179   -0.0476615   -0.0116931
n     1.9296873   -3.0835918   -2.1043754  0.00   -0.0148744   -0.0383915   -0.0422296
h     0.2405310   -2.3249716   -1.0626730  0.00    0.0066998   -0.0038388   -0.0106527
h     1.7607959   -3.8860733   -1.4671683  0.00    0.0004943    0.0108576   -0.0093676
h     1.7043278   -3.4149002   -3.0606535  0.00   -0.0018638    0.0167481    0.0188174
    24
 Energy =       0.1237212569
c     1.3302228    2.6172671    0.3933799  0.00    0.0213376    0.0330272    0.0109865
c    -0.0158015    2.8076512    0.2502216  0.00   -0.0018629    0.0448206    0.0115691
c    -0.8010667    1.8173354   -0.2775803  0.00   -0.0407623    0.0195049    0.0011481
c     1.8963700    1.4305337   -0.0030788  0.00    0.0311824   -0.0057119    0.0035862
c     1.1266875    0.4188837   -0.5494656  0.00    0.0055516   -0.0435806   -0.0131214
c    -0.2409777    0.6189342   -0.6730669  0.00   -0.0196679   -0.0317912   -0.0234623
o    -0.6062968    3.9936496    0.6443863  0.00   -0.0229898   -0.0078159   -0.0168842
h    -0.9122377    4.4919048   -0.1674215  0.00    0.0177945   -0.0143792    0.0140194
h    -0.9068071   -0.1397733   -1.0950024  0.00   -0.0097040   -0.1106681   -0.2094035
h     2.9738367    1.3047358    0.1039634  0.00    0.0025517   -0.0005033   -0.0001924
h     1.9495297    3.4029212    0.8165353  0.00    0.0054846   -0.0015218    0.0000519
h    -1.8705571    1.9826517   -0.3776707  0.00   -0.0019225    0.0006192   -0.0001049
c     1.8845311   -0.8149226   -1.0234682  0.00   -0.0136109    0.0087532   -0.0004341
c     1.1138859   -1.9324071   -1.7409399  0.00   -0.0049683    0.0110533    0.0649385
h     2.4127038   -1.2599154   -0.1546755  0.00    0.0010973    0.0022885   -0.0019427
h     2.6790551   -0.4623116   -1.7192212  0.00   -0.0016756    0.0049373    0.0028424
c     0.3987662   -1.3859321   -2.9794777  0.00    0.0567779    0.0099390   -0.1688219
o     0.9767605   -1.2281544   -4.1481295  0.00   -0.0550413   -0.0114014    0.1164175
o    -0.9077991   -1.0117700   -2.7863494  0.00    0.0560994    0.1522033    0.2582457
h    -1.4783034   -1.6920171   -3.3274442  0.00   -0.0186073   -0.0446068   -0.0123003
n     2.0438976   -3.0257338   -2.1294047  0.00   -0.0111236   -0.0331068   -0.0369319
h     0.3254832   -2.3422108   -1.0787020  0.00    0.0050619   -0.0037318   -0.0088095
h     1.9195490   -3.8358122   -1.4880996  0.00    0.0004278    0.0078121   -0.0072510
h     1.8371602   -3.3698607   -3.0874826  0.00   -0.0014304    0.0138604    0.0158546
    24
 Energy =       0.1190958327
c     1.2527884    2.6144774    0.4217483  0.00    0.0198556    0.0308042    0.0103120
c    -0.0975880    2.7680169    0.2862070  0.00   -0.0017696    0.0412833    0.0104487
c    -0.8561394    1.7617472   -0.2475836  0.00   -0.0380255    0.0182360    0.0010171
c     1.8507419    1.4508715    0.0092161  0.00    0.0291773   -0.0054720    0.0033078
c     1.1094352    0.4247514   -0.5460056  0.00    0.0049923   -0.0399718   -0.0120291
c    -0.2652851    0.5837868   -0.6573460  0.00   -0.0186545   -0.0295476   -0.0217077
o    -0.7201111    3.9333397    0.6974471  0.00   -0.0216046   -0.0063688   -0.0146233
h    -1.0142938    4.4494884   -0.1091811  0.00    0.0162834   -0.0131677    0.0124507
h    -0.9156954   -0.1908628   -1.0789958  0.00   -0.0094041   -0.1022344   -0.1929157
h     2.9325538    1.3566670    0.1088784  0.00    0.0029229   -0.0005719   -0.0001493
h     1.8502227    3.4131511    0.8521571  0.00    0.0052363   -0.0011237    0.0001979
h    -1.9308594    1.8977131   -0.3389208  0.00   -0.0022676    0.0007016   -0.0001148
c     1.9106404   -0.7723262   -1.0479383  0.00   -0.0121515    0.0076318   -0.0004421
c     1.1800644   -1.9151579   -1.7669722  0.00   -0.0053184    0.0110761    0.0597540
h     2.4701955   -1.2064082   -0.1921740  0.00    0.0013701    0.0015677   -0.0014624
h     2.6811613   -0.3790641   -1.7510549  0.00   -0.0006832    0.0050480    0.0020224
c     0.4288908   -1.3928064   -2.9927729  0.00    0.0522901    0.0092155   -0.1551323
o     0.9828932   -1.2109777   -4.1768992  0.00   -0.0504257   -0.0102943    0.1062224
o    -0.8868852   -1.0617748   -2.7828118  0.00    0.0513037    0.1424395    0.2392510
h    -1.4437634   -1.7162597   -3.3657428  0.00   -0.0178258   -0.0426256   -0.0125281
n     2.1560478   -2.9636707   -2.1675141  0.00   -0.0084268   -0.0306379   -0.0350266
h     0.4153917   -2.3629158   -1.0987430  0.00    0.0038468   -0.0039251   -0.0076180
h     2.0783021   -3.7819195   -1.5267063  0.00    0.0004243    0.0055765   -0.0057313
h     1.9598838   -3.3142193   -3.1264856  0.00   -0.0011454    0.0123608    0.0144969
    24
 Energy =       0.1183544116
c     1.1827762    2.6103318    0.4482167  0.00    0.0195366    0.0303517    0.0102227
c    -0.1716901    2.7296100    0.3220110  0.00   -0.0017876    0.0401905    0.0100898
c    -0.9069284    1.7085007   -0.2157209  0.00   -0.0375078    0.0179444    0.0009877
c     1.8085043    1.4678979    0.0200950  0.00    0.0288336   -0.0054526    0.0032180
c     1.0923298    0.4281591   -0.5423066  0.00    0.0047541   -0.0387028   -0.0116592
c    -0.2890070    0.5490942   -0.6396896  0.00   -0.0186535   -0.0290518   -0.0212323
o    -0.8231082    3.8741703    0.7494442  0.00   -0.0215229   -0.0054601   -0.0137923
h    -1.1191236    4.4004134   -0.0503786  0.00    0.0158155   -0.0127934    0.0119936
h    -0.9272290   -0.2396540   -1.0588633  0.00   -0.0093740   -0.0996083   -0.1875198
h     2.8937409    1.4033487    0.1109451  0.00    0.0033698   -0.0006337   -0.0001286
h     1.7613387    3.4202101    0.8837133  0.00    0.0052389   -0.0008871    0.0003047
h    -1.9859392    1.8170720   -0.2968125  0.00   -0.0026648    0.0007775   -0.0001237
c     1.9336618   -0.7314063   -1.0721091  0.00   -0.0115130    0.0071249   -0.0004559
c     1.2454785   -1.8967618   -1.7965054  0.00   -0.0060645    0.0117739    0.0582966
h     2.5229175   -1.1540557   -0.2297141  0.00    0.0016874    0.0010285   -0.0011303
h     2.6795177   -0.2979144   -1.7801095  0.00    0.0001403    0.0054473    0.0013863
c     0.4561372   -1.3953901   -3.0057980  0.00    0.0511436    0.0092719   -0.1506063
o     0.9733797   -1.1975420   -4.2068258  0.00   -0.0487994   -0.0098252    0.1022711
o    -0.8639593   -1.1054503   -2.7678618  0.00    0.0484770    0.1393683    0.2329937
h    -1.4150597   -1.7498341   -3.3662815  0.00   -0.0173229   -0.0417959   -0.0124560
n     2.2640022   -2.8965981   -2.2192306  0.00   -0.0061529   -0.0299636   -0.0355816
h     0.5084338   -2.3861042   -1.1239764  0.00    0.0028124   -0.0044118   -0.0067809
h     2.2370553   -3.7227461   -1.5821587  0.00    0.0005131    0.0035749   -0.0044121
h     2.0713631   -3.2497034   -3.1782772  0.00   -0.0009589    0.0117323    0.0141148
    24
 Energy =       0.1065078367
c     1.1578426    2.5991560    0.4722603  0.00    0.0160067    0.0251758    0.0084516
c    -0.1946581    2.7050705    0.3391878  0.00   -0.0013756    0.0331405    0.0080491
c    -0.9116344    1.6883179   -0.2239878  0.00   -0.0310664    0.0147654    0.0007971
c     1.7996590    1.4739494    0.0304511  0.00    0.0239028   -0.0046394    0.0025962
c     1.0994891    0.4386599   -0.5512559  0.00    0.0038674   -0.0322416   -0.0096330
c    -0.2769098    0.5480054   -0.6629632  0.00   -0.0153817   -0.0245291   -0.0177613
o    -0.8605376    3.8342429    0.7895984  0.00   -0.0174895   -0.0052316   -0.0087917
h    -1.1244179    4.4005055    0.0014797  0.00    0.0124584   -0.0094390    0.0079691
h    -0.8931627   -0.2405733   -1.1073484  0.00   -0.0071785   -0.0840522   -0.1573130
h     2.8840619    1.4179930    0.1300405  0.00    0.0028160   -0.0004792   -0.0001086
h     1.7211765    3.4081864    0.9285933  0.00    0.0043628   -0.0004544    0.0004291
h    -1.9908409    1.7855110   -0.3128171  0.00   -0.0023568    0.0005628   -0.0000549
c     1.9428841   -0.7141292   -1.0864449  0.00   -0.0096219    0.0060843   -0.0003843
c     1.2413049   -1.8858363   -1.7882557  0.00   -0.0053183    0.0108093    0.0486418
h     2.5431480   -1.1296825   -0.2478394  0.00    0.0014920    0.0008536   -0.0009099
h     2.6775916   -0.2832548   -1.8073556  0.00    0.0001832    0.0046833    0.0010320
c     0.4770812   -1.4038114   -3.0221282  0.00    0.0416800    0.0070436   -0.1226841
o     1.0548772   -1.1935831   -4.2077921  0.00   -0.0382524   -0.0074335    0.0824435
o    -0.8579562   -1.1175800   -2.8401936  0.00    0.0429554    0.1225622    0.2006940
h    -1.3845864   -1.6937190   -3.5250346  0.00   -0.0198647   -0.0403246   -0.0163749
n     2.2545231   -2.9087299   -2.1621238  0.00   -0.0036294   -0.0246929   -0.0299322
h     0.4873512   -2.3431761   -1.1102381  0.00    0.0019849   -0.0037794   -0.0051302
h     2.1935874   -3.7236248   -1.5110235  0.00    0.0005508    0.0021346   -0.0028766
h     2.0887183   -3.2762503   -3.1230032  0.00   -0.0007251    0.0094813    0.0108513
    24
 Energy =       0.0982570519
c     1.2019692    2.6001006    0.4525893  0.00    0.0134606    0.0211431    0.0071226
c    -0.1457448    2.7287887    0.3074057  0.00   -0.0012258    0.0275156    0.0067519
c    -0.8734646    1.7231159   -0.2563792  0.00   -0.0261710    0.0123273    0.0007270
c     1.8284819    1.4628612    0.0242050  0.00    0.0201091   -0.0038071    0.0021033
c     1.1150742    0.4384118   -0.5545524  0.00    0.0028614   -0.0262402   -0.0079895
c    -0.2538597    0.5736920   -0.6829682  0.00   -0.0131486   -0.0206928   -0.0149337
o    -0.7929799    3.8752799    0.7439724  0.00   -0.0146036   -0.0049003   -0.0061826
h    -1.0184617    4.4562805   -0.0484687  0.00    0.0101209   -0.0069343    0.0055576
h    -0.8718610   -0.2056806   -1.1349991  0.00   -0.0052867   -0.0714450   -0.1333790
h     2.9101057    1.3856847    0.1366125  0.00    0.0026878   -0.0004432   -0.0000938
h     1.7735039    3.4030288    0.9090418  0.00    0.0036814   -0.0003279    0.0003809
h    -1.9496159    1.8386107   -0.3583198  0.00   -0.0022405    0.0005073   -0.0000510
c     1.9255831   -0.7523726   -1.0563012  0.00   -0.0080541    0.0048205   -0.0003794
c     1.1819168   -1.9018940   -1.7554767  0.00   -0.0055340    0.0106374    0.0410683
h     2.4888301   -1.1818170   -0.1981746  0.00    0.0017396    0.0000398   -0.0002021
h     2.6927058   -0.3634668   -1.7686693  0.00    0.0011575    0.0045204    0.0001135
c     0.4655207   -1.4038135   -3.0129839  0.00    0.0340344    0.0055741   -0.1000715
o     1.1126990   -1.1719524   -4.1707839  0.00   -0.0296497   -0.0051477    0.0658864
o    -0.8764035   -1.0961580   -2.8895089  0.00    0.0366601    0.1074195    0.1733338
h    -1.3790758   -1.6103238   -3.6369532  0.00   -0.0204707   -0.0371166   -0.0178967
n     2.1583592   -2.9750394   -2.0851258  0.00   -0.0000386   -0.0207007   -0.0269575
h     0.3927306   -2.3119888   -1.0842089  0.00    0.0003067   -0.0037154   -0.0033468
h     2.0348343   -3.7815541   -1.4287972  0.00    0.0002171   -0.0007973   -0.0003877
h     2.0077446   -3.3441463   -3.0493500  0.00   -0.0006132    0.0077635    0.0088259
    24
 Energy =       0.0875777117
c     1.1569769    2.5855884    0.4704006  0.00    0.0092517    0.0145401    0.0049064
c    -0.1889761    2.6932178    0.3232682  0.00   -0.0008794    0.0189728    0.0042827
c    -0.8962164    1.6817846   -0.2472176  0.00   -0.0180140    0.0086710    0.0004590
c     1.8030217    1.4657933    0.0363399  0.00    0.0138968   -0.0027840    0.0014100
c     1.1095195    0.4373360   -0.5499624  0.00    0.0019871   -0.0181947   -0.0054871
c    -0.2578712    0.5502284   -0.6795014  0.00   -0.0091530   -0.0144489   -0.0104304
o    -0.8528035    3.8297736    0.7652888  0.00   -0.0096552   -0.0051159   -0.0007476
h    -1.0264708    4.4482624   -0.0171164  0.00    0.0065684   -0.0028753    0.0007444
h    -0.8609967   -0.2357375   -1.1385038  0.00   -0.0036791   -0.0523193   -0.0974055
h     2.8845753    1.4046546    0.1531763  0.00    0.0019798   -0.0003367   -0.0000550
h     1.7113371    3.3955806    0.9347225  0.00    0.0026120   -0.0000745    0.0003416
h    -1.9733883    1.7804487   -0.3513090  0.00   -0.0016763    0.0004097   -0.0000360
c     1.9325504   -0.7466973   -1.0468499  0.00   -0.0054857    0.0032588   -0.0002422
c     1.1990876   -1.8921383   -1.7636904  0.00   -0.0036948    0.0079075    0.0281146
h     2.4801209   -1.1802150   -0.1806927  0.00    0.0012567    0.0000097   -0.0000015
h     2.7103838   -0.3560713   -1.7457720  0.00    0.0008947    0.0031007   -0.0000360
c     0.4936321   -1.3924142   -3.0232682  0.00    0.0204058   -0.0007116   -0.0654927
o     1.1826184   -1.0643657   -4.1543011  0.00   -0.0149655   -0.0006771    0.0400389
o    -0.8663467   -1.1401716   -2.9378132  0.00    0.0320700    0.0888669    0.1465733
h    -1.3137057   -1.5283328   -3.7957063  0.00   -0.0235998   -0.0363075   -0.0319076
n     2.1860244   -2.9561929   -2.0767741  0.00    0.0001030   -0.0140981   -0.0181600
h     0.4042263   -2.3053985   -1.1002901  0.00    0.0001271   -0.0024995   -0.0022318
h     2.0535888   -3.7654332   -1.4254458  0.00    0.0001046   -0.0005861   -0.0001787
h     2.0577044   -3.3238526   -3.0471763  0.00   -0.0004552    0.0052918    0.0055411
    24
 Energy =       0.0852103619
c     1.0957610    2.5723090    0.4958934  0.00    0.0081859    0.0129159    0.0044033
c    -0.2505800    2.6541547    0.3434304  0.00   -0.0007754    0.0166379    0.0036460
c    -0.9343798    1.6332186   -0.2366064  0.00   -0.0159988    0.0076552    0.0003776
c     1.7658880    1.4696276    0.0574816  0.00    0.0124079   -0.0024811    0.0012577
c     1.0965385    0.4326259   -0.5396938  0.00    0.0017932   -0.0160695   -0.0047902
c    -0.2722584    0.5185660   -0.6741605  0.00   -0.0081965   -0.0128378   -0.0092257
o    -0.9385596    3.7753118    0.7900420  0.00   -0.0086548   -0.0041897    0.0000301
h    -1.0984099    4.4084039    0.0157538  0.00    0.0057103   -0.0023615    0.0002477
h    -0.8594229   -0.2748408   -1.1421475  0.00   -0.0034980   -0.0460598   -0.0857093
h     2.8478182    1.4293010    0.1797810  0.00    0.0019751   -0.0003093   -0.0000195
h     1.6310600    3.3902011    0.9687516  0.00    0.0023974    0.0001350    0.0004116
h    -2.0128353    1.7115142   -0.3449347  0.00   -0.0016902    0.0003902   -0.0000479
c     1.9467619   -0.7322767   -1.0384896  0.00   -0.0046749    0.0030503    0.0000353
c     1.2445904   -1.8773750   -1.7872139  0.00   -0.0036875    0.0074719    0.0244143
h     2.4846891   -1.1704548   -0.1687681  0.00    0.0011165    0.0000578    0.0001085
h     2.7310332   -0.3205054   -1.7183676  0.00    0.0010868    0.0028165   -0.0003071
c     0.5299020   -1.3644107   -3.0339797  0.00    0.0148388   -0.0048123   -0.0510062
o     1.2234066   -0.9056126   -4.1285119  0.00   -0.0058062    0.0033072    0.0264710
o    -0.8452800   -1.1939062   -2.9560528  0.00    0.0242837    0.0794316    0.1328581
h    -1.2631130   -1.5424075   -3.8417665  0.00   -0.0210359   -0.0329999   -0.0299655
n     2.2592155   -2.9079303   -2.1217417  0.00    0.0009500   -0.0126444   -0.0165705
h     0.4581320   -2.3257665   -1.1351513  0.00   -0.0004024   -0.0024372   -0.0015132
h     2.1515401   -3.7316134   -1.4832957  0.00    0.0000355   -0.0011890    0.0002978
h     2.1370945   -3.2624865   -3.0984461  0.00   -0.0003607    0.0045219    0.0045963
    24
 Energy =       0.0821493364
c     1.1156393    2.5899436    0.4701791  0.00    0.0077951    0.0121435    0.0041700
c    -0.2324714    2.6691563    0.3346121  0.00   -0.0007567    0.0156471    0.0034398
c    -0.9220748    1.6439921   -0.2300628  0.00   -0.0150977    0.0071133    0.0002983
c     1.7815949    1.4860788    0.0292143  0.00    0.0117484   -0.0022425    0.0012421
c     1.1055742    0.4450369   -0.5523557  0.00    0.0017187   -0.0151104   -0.0044816
c    -0.2640405    0.5281776   -0.6686666  0.00   -0.0077933   -0.0120577   -0.0086976
o    -0.9158697    3.7924925    0.7830732  0.00   -0.0081255   -0.0039174    0.0000393
h    -1.0788944    4.4255430    0.0093131  0.00    0.0053541   -0.0022107    0.0002258
h    -0.8544936   -0.2710466   -1.1210615  0.00   -0.0032986   -0.0433952   -0.0804778
h     2.8650141    1.4473679    0.1379171  0.00    0.0019537   -0.0002717    0.0000059
h     1.6556101    3.4113342    0.9315684  0.00    0.0023142    0.0001800    0.0004230
h    -2.0020444    1.7196666   -0.3244137  0.00   -0.0016942    0.0003480   -0.0000685
c     1.9466063   -0.7249577   -1.0529811  0.00   -0.0045529    0.0032788    0.0002607
c     1.2276595   -1.8822517   -1.7676936  0.00   -0.0039230    0.0072545    0.0231723
h     2.5016414   -1.1499635   -0.1870422  0.00    0.0011477    0.0000334    0.0003347
h     2.7176505   -0.3239020   -1.7541880  0.00    0.0012606    0.0027796   -0.0005239
c     0.5157825   -1.3970070   -3.0287756  0.00    0.0095624   -0.0066052   -0.0395263
o     1.2122018   -1.0643657   -4.1748275  0.00    0.0007291    0.0055052    0.0154123
o    -0.8535054   -1.1744175   -2.9516771  0.00    0.0213181    0.0744345    0.1257529
h    -1.2784254   -1.4982247   -3.8418095  0.00   -0.0200364   -0.0309766   -0.0285983
n     2.2303093   -2.9339244   -2.0725768  0.00    0.0014279   -0.0120955   -0.0159823
h     0.4375843   -2.3030219   -1.1013581  0.00   -0.0006836   -0.0024386   -0.0010785
h     2.1037938   -3.7444956   -1.4204883  0.00   -0.0000133   -0.0015685    0.0006407
h     2.1137499   -3.3055637   -3.0440934  0.00   -0.0003547    0.0041724    0.0040171
    24
 Energy =       0.0759931767
c     1.1090325    2.6086961    0.4426926  0.00    0.0063505    0.0091681    0.0032677
c    -0.2418615    2.6649530    0.3361853  0.00   -0.0007905    0.0118787    0.0025873
c    -0.9254097    1.6264891   -0.2073358  0.00   -0.0117673    0.0053425    0.0000634
c     1.7836592    1.5156782   -0.0077914  0.00    0.0092778   -0.0016534    0.0010702
c     1.1125658    0.4622422   -0.5686791  0.00    0.0017282   -0.0115082   -0.0033918
c    -0.2587350    0.5217157   -0.6537604  0.00   -0.0063122   -0.0091457   -0.0067059
o    -0.9332181    3.7804524    0.7935110  0.00   -0.0062370   -0.0029751    0.0002324
h    -1.0930418    4.4256724    0.0286219  0.00    0.0039959   -0.0015798   -0.0000075
h    -0.8441644   -0.2914804   -1.0848807  0.00   -0.0025712   -0.0341989   -0.0626012
h     2.8694975    1.4944958    0.0788061  0.00    0.0018908   -0.0001940    0.0000661
h     1.6440543    3.4412699    0.8892759  0.00    0.0019313    0.0002290    0.0003972
h    -2.0084657    1.6831042   -0.2778465  0.00   -0.0017676    0.0002635   -0.0001136
c     1.9552411   -0.7034554   -1.0748167  0.00   -0.0036335    0.0029570    0.0004270
c     1.2297803   -1.8795511   -1.7532315  0.00   -0.0035593    0.0056894    0.0180602
h     2.5328427   -1.1101569   -0.2143043  0.00    0.0010748   -0.0001015    0.0006077
h     2.7071501   -0.3066345   -1.7984021  0.00    0.0012470    0.0022958   -0.0006456
c     0.5132827   -1.4339445   -3.0276824  0.00    0.0031132   -0.0052303   -0.0215163
o     1.2013274   -1.2231188   -4.2161448  0.00    0.0052510    0.0051311    0.0026052
o    -0.8517861   -1.1804723   -2.9604437  0.00    0.0177355    0.0582317    0.1015141
h    -1.2664909   -1.4229134   -3.8770795  0.00   -0.0174976   -0.0247569   -0.0265604
n     2.2314338   -2.9412764   -2.0204723  0.00    0.0016694   -0.0094088   -0.0121399
h     0.4414246   -2.2772318   -1.0708683  0.00   -0.0007436   -0.0019588   -0.0005029
h     2.0826681   -3.7435066   -1.3626858  0.00   -0.0000678   -0.0015070    0.0008387
h     2.1378056   -3.3253795   -2.9908616  0.00   -0.0003178    0.0030317    0.0024479
    24
 Energy =       0.0671661726
c     1.0856794    2.6393301    0.3815907  0.00    0.0046426    0.0028922    0.0015451
c    -0.2690594    2.6432568    0.3431628  0.00   -0.0013334    0.0039475    0.0008808