    27
 Energy =       0.2986033890
c    -1.4235396    2.6054793   -0.0667700  0.00   -0.0462966    0.0382233    0.0025062
c    -1.3072796    1.2134697   -0.1072300  0.00   -0.0851686   -0.0326158    0.0017505
c    -0.0178900    0.6711998   -0.1697000  0.00   -0.0896256   -0.1876272    0.0002662
c    -0.2940599    3.4190890   -0.0891300  0.00   -0.0232062    0.0689666    0.0027233
c     0.9872197    2.8590292   -0.1560400  0.00    0.0102782    0.0637595    0.0006956
c     1.1340797    1.4562096   -0.1970299  0.00    0.0528291    0.0515709    0.0025437
n     0.3879399   -0.6395298   -0.2140799  0.00    0.1461173    0.1102346   -0.0083123
c     2.2666594    0.5727398   -0.2659299  0.00    0.1573157   -0.0885959   -0.0148815
c     1.7555995   -0.7123598   -0.2706899  0.00   -0.0968265   -0.0947670   -0.0032172
h    -0.2400399   -1.4313496   -0.2047299  0.00    0.0357986    0.0474808    0.0010459
c     3.7030089    1.0223397   -0.3320099  0.00   -0.0267712    0.0125018   -0.0347583
c     4.2197688    1.4064496   -1.7267995  0.00    0.0138461    0.0547214    0.0586855
h     4.3261788    0.2093419    0.0639454  0.00   -0.0082842    0.0132543   -0.0032475
h     3.8370289    1.8640295    0.3610799  0.00   -0.0036936   -0.0124998   -0.0047525
c     3.7734089    0.3331939   -2.7369592  0.00   -0.3484121   -0.1519662   -0.1102182
n     5.7205784    1.5052196   -1.8052095  0.00    0.0750550   -0.0137931   -0.0627652
h     3.7949889    2.3605393   -2.0604594  0.00    0.0264328   -0.0108517   -0.0007971
h     5.9422883    2.4421693   -2.1574494  0.00   -0.0176551   -0.0275787    0.0191278
h     6.0817983    1.5118596   -0.8448278  0.00   -0.0263246    0.0030040   -0.0252986
h    -2.4108593    3.0588691   -0.0157800  0.00   -0.0009637    0.0003384    0.0002025
h    -2.1896094    0.5822398   -0.0890100  0.00   -0.0036526    0.0036985    0.0003386
h    -0.4052699    4.5000487   -0.0535400  0.00    0.0008752    0.0004705    0.0004454
h     1.8590495    3.5066790   -0.1715100  0.00   -0.0008045    0.0032099    0.0008428
h     2.2327294   -1.6813195   -0.3062999  0.00   -0.0413355   -0.0120825    0.0047753
o     2.6230993   -0.0215760   -2.9339992  0.00    0.2749838    0.0808368    0.0769313
o     4.8385586   -0.1871039   -3.4042990  0.00    0.0270994    0.0658120    0.0634782
h     4.6756787    0.0329305   -4.3580588  0.00   -0.0016105    0.0142941    0.0318894
    27
 Energy =       0.2843315926
c    -1.4279585    2.6633899   -0.0874353  0.00   -0.0418577    0.0345262    0.0022788
c    -1.3172646    1.2745254   -0.1262052  0.00   -0.0770138   -0.0295139    0.0016025
c    -0.0352384    0.7278301   -0.1844407  0.00   -0.0808860   -0.1696003    0.0003689
c    -0.2964549    3.4699070   -0.1083125  0.00   -0.0210226    0.0623459    0.0024792
c     0.9789658    2.9043485   -0.1706785  0.00    0.0093389    0.0576620    0.0006291
c     1.1149442    1.5056216   -0.2080685  0.00    0.0476946    0.0467312    0.0022466
n     0.3558713   -0.5911324   -0.2273864  0.00    0.1315894    0.0996583   -0.0078000
c     2.2394460    0.6252084   -0.2636896  0.00    0.1418263   -0.0795893   -0.0125793
c     1.7305596   -0.6575171   -0.2560007  0.00   -0.0870779   -0.0858251   -0.0030574
h    -0.2764045   -1.3838474   -0.2271932  0.00    0.0323092    0.0428912    0.0008875
c     3.6815505    1.0614099   -0.3188945  0.00   -0.0294212    0.0106213   -0.0306251
c     4.2567553    1.3205765   -1.7307460  0.00    0.0128474    0.0484199    0.0495994
h     4.2817982    0.2796028    0.1806459  0.00   -0.0049183    0.0075081   -0.0000359
h     3.7980822    1.9684908    0.2994995  0.00   -0.0037156   -0.0073107   -0.0012974
c     3.8023943    0.2185572   -2.7058498  0.00   -0.3144224   -0.1382409   -0.1005166
n     5.7601230    1.3666747   -1.7658639  0.00    0.0697176   -0.0157980   -0.0569120
h     3.8772229    2.2718323   -2.1393908  0.00    0.0223982   -0.0065238   -0.0022496
h     6.0379191    2.2834162   -2.1412280  0.00   -0.0149155   -0.0220796    0.0160112
h     6.1021345    1.3737376   -0.7961005  0.00   -0.0230441    0.0028048   -0.0225929
h    -2.4133735    3.1211602   -0.0397349  0.00   -0.0008885    0.0003094    0.0001851
h    -2.2015816    0.6460350   -0.1101408  0.00   -0.0033061    0.0033344    0.0003062
h    -0.4025207    4.5514699   -0.0749279  0.00    0.0007850    0.0004415    0.0004042
h     1.8548563    3.5464193   -0.1844390  0.00   -0.0006228    0.0028597    0.0007448
h     2.2219345   -1.6201618   -0.2775036  0.00   -0.0372238   -0.0110303    0.0043353
o     2.6298435   -0.1300646   -2.8818176  0.00    0.2478952    0.0731794    0.0695980
o     4.8431792   -0.3038028   -3.4115993  0.00    0.0260442    0.0585332    0.0592329
h     4.6743304   -0.0337999   -4.3550141  0.00   -0.0021096    0.0136853    0.0267564
    27
 Energy =       0.2752132638
c    -1.4079502    2.6096654   -0.0586492  0.00   -0.0396203    0.0326970    0.0021520
c    -1.2940179    1.2226743   -0.1007441  0.00   -0.0729181   -0.0279429    0.0015149
c    -0.0131722    0.6796218   -0.1607623  0.00   -0.0766442   -0.1604975    0.0003653
c    -0.2791354    3.4179780   -0.0789870  0.00   -0.0199039    0.0590317    0.0023395
c     0.9954653    2.8556256   -0.1442492  0.00    0.0088847    0.0545850    0.0005729
c     1.1317127    1.4599403   -0.1847299  0.00    0.0451055    0.0443441    0.0020365
n     0.3792063   -0.6415761   -0.2157028  0.00    0.1244341    0.0943502   -0.0073291
c     2.2560304    0.5886118   -0.2513774  0.00    0.1339340   -0.0749232   -0.0114198
c     1.7571000   -0.6954310   -0.2593309  0.00   -0.0823603   -0.0812668   -0.0030142
h    -0.2492018   -1.4394936   -0.2144785  0.00    0.0305777    0.0405795    0.0008365
c     3.6949279    1.0323497   -0.3233211  0.00   -0.0313997    0.0097927   -0.0279762
c     4.2105482    1.3847623   -1.7395372  0.00    0.0109153    0.0448735    0.0452251
h     4.3206674    0.2199645    0.0986707  0.00   -0.0028743    0.0042312    0.0014005
h     3.8269990    1.9004322    0.3504561  0.00   -0.0037010   -0.0052054    0.0004914
c     3.7766095    0.2985841   -2.7385184  0.00   -0.2971002   -0.1315673   -0.0953697
n     5.7094797    1.4998411   -1.8143834  0.00    0.0690524   -0.0180314   -0.0545005
h     3.7692839    2.3347550   -2.0923174  0.00    0.0196971   -0.0033412   -0.0031166
h     5.9290652    2.4421693   -2.1738407  0.00   -0.0133572   -0.0177068    0.0137725
h     6.0835350    1.4989994   -0.8549563  0.00   -0.0210910    0.0026514   -0.0205452
h    -2.3943585    3.0650841   -0.0096732  0.00   -0.0008444    0.0002960    0.0001752
h    -2.1765282    0.5916425   -0.0873821  0.00   -0.0031361    0.0031516    0.0002884
h    -0.3874486    4.4992546   -0.0438019  0.00    0.0007437    0.0004222    0.0003822
h     1.8708479    3.4983647   -0.1595884  0.00   -0.0005607    0.0026864    0.0006877
h     2.2610861   -1.6508383   -0.3053191  0.00   -0.0350279   -0.0107672    0.0040745
o     2.6009290   -0.0623382   -2.9277703  0.00    0.2344543    0.0692382    0.0656901
o     4.8263267   -0.2173112   -3.4396156  0.00    0.0247523    0.0552591    0.0562905
h     4.6731066    0.0665547   -4.3826059  0.00   -0.0020122    0.0130601    0.0249756
    27
 Energy =       0.2557437023
c    -1.3706397    2.5573917   -0.0152088  0.00   -0.0332051    0.0275107    0.0017873
c    -1.2553952    1.1756331   -0.0706898  0.00   -0.0612436   -0.0235925    0.0013021
c     0.0190234    0.6354470   -0.1287818  0.00   -0.0642714   -0.1335126    0.0010459
c    -0.2444852    3.3637665   -0.0255458  0.00   -0.0167021    0.0496137    0.0018952
c     1.0251039    2.8029786   -0.0922038  0.00    0.0075475    0.0459059    0.0003626
c     1.1548762    1.4147460   -0.1424875  0.00    0.0376799    0.0375859    0.0015644
n     0.4030654   -0.6932727   -0.2299462  0.00    0.1044161    0.0778889   -0.0069875
c     2.2736028    0.5597671   -0.2250730  0.00    0.1120720   -0.0621794   -0.0091422
c     1.7904973   -0.7241412   -0.2592466  0.00   -0.0694772   -0.0672606   -0.0019374
h    -0.2227575   -1.4992233   -0.2540268  0.00    0.0254240    0.0336347    0.0004816
c     3.7101683    1.0083990   -0.3309461  0.00   -0.0294256    0.0079367   -0.0220167
c     4.1485665    1.4383441   -1.7548943  0.00    0.0068225    0.0363157    0.0366058
h     4.3618728    0.1750009    0.0139101  0.00   -0.0004724    0.0009745    0.0022086
h     3.8686389    1.8434888    0.3815266  0.00   -0.0032924   -0.0033694    0.0018202
c     3.7347246    0.3670756   -2.7733001  0.00   -0.2491862   -0.1108290   -0.0807972
n     5.6343677    1.6354685   -1.8719945  0.00    0.0621763   -0.0185526   -0.0476422
h     3.6367512    2.3769124   -2.0510203  0.00    0.0145125    0.0003939   -0.0035333
h     5.7915896    2.6009224   -2.2166907  0.00   -0.0107252   -0.0112885    0.0100436
h     6.0533909    1.6230085   -0.9274268  0.00   -0.0166888    0.0021185   -0.0156030
h    -2.3574482    3.0118964    0.0321495  0.00   -0.0007141    0.0002447    0.0001480
h    -2.1367107    0.5426824   -0.0749655  0.00   -0.0027512    0.0025320    0.0002265
h    -0.3528525    4.4447885    0.0168308  0.00    0.0006292    0.0003824    0.0003171
h     1.9020948    3.4434781   -0.1033514  0.00   -0.0004389    0.0022363    0.0005403
h     2.3215961   -1.6631538   -0.3469706  0.00   -0.0289311   -0.0101751    0.0033687
o     2.5397788   -0.0104154   -2.9619899  0.00    0.1970316    0.0579966    0.0552711
o     4.7804675   -0.1544113   -3.4827884  0.00    0.0215942    0.0451509    0.0508605
h     4.6612265    0.1833095   -4.4173838  0.00   -0.0023808    0.0123377    0.0178103
    27
 Energy =       0.2551992962
c    -1.3548589    2.5626761    0.0070438  0.00   -0.0326468    0.0271438    0.0017849
c    -1.2432039    1.1825144   -0.0806077  0.00   -0.0600650   -0.0238176    0.0012055
c     0.0296160    0.6394240   -0.1278527  0.00   -0.0617373   -0.1258962    0.0019574
c    -0.2262389    3.3653213    0.0302322  0.00   -0.0160297    0.0489533    0.0018533
c     1.0420053    2.8018914   -0.0295743  0.00    0.0074995    0.0453149    0.0003555
c     1.1675580    1.4149123   -0.1047622  0.00    0.0371365    0.0374556    0.0015709
n     0.4073079   -0.6849644   -0.3164715  0.00    0.1000821    0.0721007   -0.0078516
c     2.2839134    0.5596023   -0.1965070  0.00    0.1102277   -0.0600584   -0.0088087
c     1.7972161   -0.7218364   -0.2701003  0.00   -0.0646640   -0.0637602   -0.0016554
h    -0.2223775   -1.4863694   -0.4127799  0.00    0.0223236    0.0295878    0.0000158
c     3.7203782    1.0069763   -0.3228597  0.00   -0.0287912    0.0076765   -0.0213748
c     4.1336130    1.4384800   -1.7564201  0.00    0.0064347    0.0356100    0.0358038
h     4.3764849    0.1718780    0.0093467  0.00   -0.0003883    0.0009060    0.0021971
h     3.8913083    1.8414296    0.3874741  0.00   -0.0032135   -0.0032615    0.0018567
c     3.7022222    0.3678625   -2.7695908  0.00   -0.2440084   -0.1080467   -0.0787923
n     5.6167979    1.6375585   -1.8992625  0.00    0.0611894   -0.0181189   -0.0469632
h     3.6148303    2.3769857   -2.0407089  0.00    0.0141158    0.0004355   -0.0034918
h     5.7669007    2.6031455   -2.2474974  0.00   -0.0104788   -0.0110111    0.0098140
h     6.0541807    1.6239606   -0.9626695  0.00   -0.0161782    0.0020720   -0.0150079
h    -2.3410277    3.0194248    0.0458561  0.00   -0.0007779    0.0001910    0.0001431
h    -2.1267845    0.5530162   -0.1283180  0.00   -0.0034386    0.0018075    0.0001561
h    -0.3317234    4.4458418    0.0927820  0.00    0.0006860    0.0006030    0.0003205
h     1.9212524    3.4397020   -0.0165255  0.00   -0.0002085    0.0024191    0.0005326
h     2.3284582   -1.6580654   -0.3870060  0.00   -0.0286539   -0.0106626    0.0031839
o     2.5010090   -0.0115476   -2.9301619  0.00    0.1924459    0.0564366    0.0543265
o     4.7360023   -0.1828140   -3.4745092  0.00    0.0215344    0.0438065    0.0494831
h     4.6262743    0.1528810   -4.4110654  0.00   -0.0023956    0.0121137    0.0173851
    27
 Energy =       0.2482300510
c    -1.3599868    2.5486895   -0.0020888  0.00   -0.0310044    0.0258227    0.0017084
c    -1.2454294    1.1681880   -0.0612910  0.00   -0.0569418   -0.0231293    0.0010459
c     0.0264558    0.6287833   -0.1199832  0.00   -0.0572006   -0.1149579    0.0017576
c    -0.2339687    3.3543336   -0.0102781  0.00   -0.0148900    0.0466177    0.0017902
c     1.0335224    2.7936235   -0.0785741  0.00    0.0072228    0.0431354    0.0003935
c     1.1599541    1.4076894   -0.1322079  0.00    0.0353722    0.0360151    0.0015070
n     0.4033519   -0.7088056   -0.2292852  0.00    0.0918673    0.0649351   -0.0071190
c     2.2759855    0.5582432   -0.2207601  0.00    0.1048577   -0.0563184   -0.0083345
c     1.7983153   -0.7261788   -0.2632835  0.00   -0.0571954   -0.0583992   -0.0021362
h    -0.2246563   -1.5214561   -0.2540268  0.00    0.0185483    0.0246332    0.0000413
c     3.7123207    1.0070531   -0.3346679  0.00   -0.0272572    0.0072523   -0.0201250
c     4.1352280    1.4441412   -1.7609864  0.00    0.0058243    0.0337442    0.0340439
h     4.3679351    0.1721695   -0.0005459  0.00   -0.0003712    0.0008533    0.0020904
h     3.8769341    1.8395591    0.3798267  0.00   -0.0030277   -0.0030667    0.0017762
c     3.7265681    0.3738225   -2.7813677  0.00   -0.2310872   -0.1019699   -0.0737426
n     5.6163738    1.6602540   -1.8832492  0.00    0.0582442   -0.0171463   -0.0445439
h     3.6085516    2.3773500   -2.0491306  0.00    0.0132977    0.0004477   -0.0032958
h     5.7621572    2.6291921   -2.2256698  0.00   -0.0098695   -0.0103642    0.0092918
h     6.0453074    1.6453657   -0.9418821  0.00   -0.0152661    0.0019829   -0.0141370
h    -2.3468515    3.0031111    0.0458386  0.00   -0.0008162    0.0001376    0.0001347
h    -2.1274796    0.5336290   -0.0688490  0.00   -0.0039026    0.0011402    0.0001328
h    -0.3415099    4.4356686    0.0344605  0.00    0.0007129    0.0007491    0.0003105
h     1.9116244    3.4334402   -0.0893446  0.00    0.0000277    0.0024913    0.0005006
h     2.3385720   -1.6589794   -0.3669350  0.00   -0.0273790   -0.0103987    0.0029079
o     2.5226011   -0.0073038   -2.9686833  0.00    0.1816984    0.0531541    0.0513290
o     4.7680051   -0.1476339   -3.5009467  0.00    0.0208020    0.0409352    0.0469350
h     4.6612330    0.2159383   -4.4286044  0.00   -0.0022669    0.0117038    0.0157372
    27
 Energy =       0.2343760085
c    -1.3429653    2.5149062    0.0135389  0.00   -0.0252841    0.0210070    0.0013765
c    -1.2258814    1.1379448   -0.0206704  0.00   -0.0463976   -0.0192361    0.0006453
c     0.0397940    0.6017820   -0.0926588  0.00   -0.0455807   -0.0907967    0.0002782
c    -0.2207122    3.3199378   -0.0261621  0.00   -0.0118551    0.0381052    0.0015467
c     1.0417849    2.7607460   -0.1062769  0.00    0.0060856    0.0352262    0.0004424
c     1.1635163    1.3805848   -0.1406721  0.00    0.0288966    0.0298151    0.0013069
n     0.4123149   -0.7474628   -0.1375210  0.00    0.0718666    0.0510167   -0.0040120
c     2.2740632    0.5448362   -0.2349050  0.00    0.0859597   -0.0453575   -0.0067788
c     1.8124534   -0.7406425   -0.2505972  0.00   -0.0430793   -0.0458881   -0.0032711
h    -0.2113055   -1.5697935   -0.0952737  0.00    0.0128593    0.0170820    0.0005201
c     3.7093202    0.9951758   -0.3572943  0.00   -0.0228619    0.0059121   -0.0161472
c     4.1059871    1.4648812   -1.7786381  0.00    0.0036739    0.0270656    0.0280712
h     4.3733210    0.1547167   -0.0529270  0.00   -0.0000711    0.0003033    0.0018616
h     3.8829830    1.8141154    0.3716990  0.00   -0.0024578   -0.0023289    0.0016211
c     3.7291468    0.4030686   -2.8156077  0.00   -0.1884880   -0.0830681   -0.0588740
n     5.5744719    1.7369828   -1.8937675  0.00    0.0489287   -0.0150115   -0.0366833
h     3.5415282    2.3835424   -2.0464732  0.00    0.0103160    0.0011899   -0.0027586
h     5.6903150    2.7170917   -2.2228736  0.00   -0.0078488   -0.0074335    0.0072460
h     6.0155249    1.7144618   -0.9555098  0.00   -0.0123395    0.0016470   -0.0113311
h    -2.3297631    2.9681445    0.0720111  0.00   -0.0007544    0.0000713    0.0001066
h    -2.1051792    0.4997611    0.0087487  0.00   -0.0037278    0.0004581    0.0001189
h    -0.3289950    4.4017916    0.0023759  0.00    0.0006453    0.0007562    0.0002610
h     1.9200316    3.3996203   -0.1425203  0.00    0.0003244    0.0021998    0.0003692
h     2.3756230   -1.6599044   -0.3588323  0.00   -0.0221780   -0.0086762    0.0021389
o     2.5097458    0.0106656   -3.0236865  0.00    0.1475289    0.0430902    0.0415772
o     4.7715028   -0.0900773   -3.5612916  0.00    0.0180945    0.0310434    0.0422824
h     4.6924877    0.3430104   -4.4667302  0.00   -0.0022553    0.0118074    0.0080859
    27
 Energy =       0.2218447804
c    -1.3086050    2.4769042    0.0530628  0.00   -0.0177284    0.0147109    0.0009048
c    -1.1920052    1.1057056    0.0180221  0.00   -0.0326526   -0.0134982    0.0003493
c     0.0645293    0.5702524   -0.0629544  0.00   -0.0321031   -0.0638681    0.0001225
c    -0.1885526    3.2772396    0.0049580  0.00   -0.0083857    0.0267640    0.0010643
c     1.0664769    2.7168806   -0.0845346  0.00    0.0043855    0.0247560    0.0002566
c     1.1786756    1.3445871   -0.1199887  0.00    0.0201235    0.0211433    0.0009227
n     0.4261830   -0.7876814   -0.1169725  0.00    0.0503518    0.0358199   -0.0026074
c     2.2800461    0.5237232   -0.2286186  0.00    0.0604749   -0.0317652   -0.0045576
c     1.8334085   -0.7603706   -0.2456316  0.00   -0.0305074   -0.0318829   -0.0024322
h    -0.1960169   -1.6154495   -0.0693179  0.00    0.0090480    0.0119935    0.0003828
c     3.7145203    0.9736670   -0.3770566  0.00   -0.0174065    0.0039953   -0.0107470
c     4.0597287    1.4904020   -1.7968503  0.00    0.0010214    0.0182776    0.0198494
h     4.3903217    0.1240641   -0.1236052  0.00    0.0007699   -0.0008088    0.0016447
h     3.9106958    1.7716390    0.3708570  0.00   -0.0017545   -0.0012617    0.0017113
c     3.7034494    0.4481606   -2.8575472  0.00   -0.1331663   -0.0583841   -0.0418185
n     5.5086535    1.8301446   -1.9200733  0.00    0.0367833   -0.0124066   -0.0273510
h     3.4473848    2.3917248   -2.0250190  0.00    0.0061759    0.0024587   -0.0021172
h     5.5849151    2.8225924   -2.2330076  0.00   -0.0054069   -0.0035922    0.0045267
h     5.9781405    1.7947589   -0.9922750  0.00   -0.0083072    0.0010814   -0.0071951
h    -2.2943950    2.9311445    0.1182276  0.00   -0.0005558    0.0000538    0.0000713
h    -2.0699101    0.4669543    0.0524410  0.00   -0.0026340    0.0003159    0.0000731
h    -0.2947646    4.3591686    0.0335189  0.00    0.0004503    0.0005344    0.0001835
h     1.9467005    3.3520200   -0.1284702  0.00    0.0003172    0.0015040    0.0001912
h     2.4221819   -1.6619245   -0.3767545  0.00   -0.0152048   -0.0064912    0.0013801
o     2.4598995    0.0413512   -3.0639353  0.00    0.1038703    0.0302914    0.0296007
o     4.7331743   -0.0295352   -3.6384352  0.00    0.0147335    0.0154503    0.0399342
h     4.7062780    0.5017635   -4.5025554  0.00   -0.0026924    0.0148087   -0.0043430
    27
 Energy =       0.2170563079
c    -1.2900638    2.4504975    0.0800352  0.00   -0.0137237    0.0114153    0.0006637
c    -1.1754437    1.0824459    0.0354386  0.00   -0.0252975   -0.0104572    0.0002502
c     0.0754850    0.5462620   -0.0545295  0.00   -0.0248635   -0.0493531    0.0001936
c    -0.1701677    3.2471621    0.0324186  0.00   -0.0065386    0.0207398    0.0007804
c     1.0801347    2.6850978   -0.0656154  0.00    0.0034218    0.0192022    0.0001437
c     1.1856128    1.3169928   -0.1111840  0.00    0.0155123    0.0164187    0.0007072
n     0.4290553   -0.8163100   -0.1257256  0.00    0.0390328    0.0275734   -0.0020783
c     2.2808996    0.5030785   -0.2323910  0.00    0.0468920   -0.0245719   -0.0034030
c     1.8403402   -0.7795636   -0.2580266  0.00   -0.0236898   -0.0246182   -0.0018403
h    -0.1941060   -1.6461572   -0.0837939  0.00    0.0070004    0.0092678    0.0002780
c     3.7160160    0.9513349   -0.3884547  0.00   -0.0140767    0.0029596   -0.0080667
c     4.0392131    1.5077301   -1.7993708  0.00    0.0005054    0.0142021    0.0156479
h     4.3944628    0.0937645   -0.1700450  0.00    0.0009362   -0.0011280    0.0014373
h     3.9249773    1.7292195    0.3777591  0.00   -0.0013378   -0.0006892    0.0016737
c     3.6886445    0.4931622   -2.8881372  0.00   -0.1039927   -0.0449767   -0.0323062
n     5.4780094    1.8775732   -1.9166881  0.00    0.0289055   -0.0102074   -0.0218089
h     3.4082634    2.4041886   -1.9964789  0.00    0.0044896    0.0024985   -0.0016609
h     5.5400164    2.8777750   -2.2113354  0.00   -0.0041409   -0.0022853    0.0033561
h     5.9590963    1.8249165   -0.9937349  0.00   -0.0063112    0.0007769   -0.0052223
h    -2.2746869    2.9061178    0.1519216  0.00   -0.0004509    0.0000584    0.0000546
h    -2.0534387    0.4443111    0.0679329  0.00   -0.0020382    0.0002372    0.0000530
h    -0.2738306    4.3290784    0.0683050  0.00    0.0003371    0.0004450    0.0001408
h     1.9620308    3.3176251   -0.1085855  0.00    0.0002738    0.0011499    0.0001121
h     2.4410936   -1.6716890   -0.4035612  0.00   -0.0116692   -0.0051579    0.0010419
o     2.4309974    0.0819640   -3.0929750  0.00    0.0804799    0.0235436    0.0229636
o     4.7050497    0.0427930   -3.7072902  0.00    0.0129208    0.0051798    0.0385147
h     4.7234530    0.6605167   -4.5184039  0.00   -0.0025769    0.0177765   -0.0116257
    27
 Energy =       0.2156420756
c    -1.2868842    2.4298827    0.0833804  0.00   -0.0121215    0.0101077    0.0005785
c    -1.1750105    1.0633917    0.0228342  0.00   -0.0222800   -0.0093085    0.0002316
c     0.0731362    0.5258267   -0.0708041  0.00   -0.0218958   -0.0433807    0.0002618
c    -0.1656113    3.2237290    0.0479677  0.00   -0.0057259    0.0183372    0.0006608
c     1.0823330    2.6599412   -0.0529045  0.00    0.0030147    0.0170324    0.0000996
c     1.1831620    1.2938265   -0.1150635  0.00    0.0136697    0.0144699    0.0006061
n     0.4211956   -0.8383796   -0.1623873  0.00    0.0344111    0.0240912   -0.0019194
c     2.2752653    0.4819946   -0.2427010  0.00    0.0413051   -0.0216241   -0.0029190
c     1.8351516   -0.7990906   -0.2853501  0.00   -0.0208858   -0.0217523   -0.0015625
h    -0.2043098   -1.6682435   -0.1357327  0.00    0.0060572    0.0080061    0.0002318
c     3.7129268    0.9279018   -0.3861497  0.00   -0.0126412    0.0023690   -0.0068789
c     4.0394261    1.5229900   -1.7814599  0.00    0.0004892    0.0128698    0.0139848
h     4.3880715    0.0618510   -0.1918199  0.00    0.0009442   -0.0012923    0.0013856
h     3.9246712    1.6839779    0.4015129  0.00   -0.0010925   -0.0002954    0.0018042
c     3.6878824    0.5433946   -2.9023743  0.00   -0.0924564   -0.0393766   -0.0281104
n     5.4778928    1.8943390   -1.8805244  0.00    0.0254154   -0.0092091   -0.0194503
h     3.4101790    2.4260245   -1.9534326  0.00    0.0038713    0.0025570   -0.0015390
h     5.5448675    2.9009366   -2.1535142  0.00   -0.0035792   -0.0015915    0.0028479
h     5.9564317    1.8184491   -0.9568595  0.00   -0.0053526    0.0006450   -0.0042052
h    -2.2706179    2.8869203    0.1579127  0.00   -0.0004001    0.0000613    0.0000485
h    -2.0542070    0.4266045    0.0445255  0.00   -0.0018321    0.0001509    0.0000471
h    -0.2666831    4.3054435    0.0964210  0.00    0.0003019    0.0004796    0.0001252
h     1.9660310    3.2904961   -0.0848540  0.00    0.0002952    0.0010676    0.0000821
h     2.4403533   -1.6872946   -0.4378380  0.00   -0.0102728   -0.0045815    0.0009224
o     2.4230175    0.1392622   -3.1151384  0.00    0.0708903    0.0207140    0.0199429
o     4.6948575    0.1264423   -3.7533437  0.00    0.0120305   -0.0025418    0.0397731
h     4.7575860    0.8192698   -4.5048182  0.00   -0.0021599    0.0219953   -0.0170491
    27
 Energy =       0.2131848583
c    -1.2523926    2.4217374    0.1548214  0.00   -0.0096542    0.0078324    0.0004153
c    -1.1435990    1.0570955    0.0930697  0.00   -0.0176319   -0.0072291    0.0001171
c     0.0990891    0.5179170   -0.0227900  0.00   -0.0171775   -0.0339592    0.0001089
c    -0.1312226    3.2122030    0.0991441  0.00   -0.0045464    0.0144444    0.0005062
c     1.1116280    2.6461307   -0.0246486  0.00    0.0025700    0.0132678    0.0000589
c     1.2062452    1.2825559   -0.0891454  0.00    0.0106542    0.0113951    0.0005279
n     0.4397298   -0.8498749   -0.1187666  0.00    0.0263993    0.0189483   -0.0012507
c     2.2915299    0.4742086   -0.2417980  0.00    0.0322860   -0.0169836   -0.0021169
c     1.8536659   -0.8057187   -0.2757721  0.00   -0.0159821   -0.0168852   -0.0013503
h    -0.1861022   -1.6805807   -0.0759511  0.00    0.0045806    0.0061095    0.0002191
c     3.7268901    0.9176440   -0.4230129  0.00   -0.0099214    0.0017805   -0.0051160
c     4.0110638    1.5316952   -1.8200701  0.00   -0.0004072    0.0097278    0.0108321
h     4.4073463    0.0488743   -0.2615647  0.00    0.0011745   -0.0013493    0.0011676
h     3.9631785    1.6636302    0.3675633  0.00   -0.0008332   -0.0000774    0.0017543
c     3.6551192    0.5633167   -2.9489545  0.00   -0.0710499   -0.0291626   -0.0218242
n     5.4368454    1.9382846   -1.9380662  0.00    0.0205703   -0.0077276   -0.0162977
h     3.3581058    2.4223702   -1.9675868  0.00    0.0026201    0.0024789   -0.0012775
h     5.4798193    2.9515233   -2.1938047  0.00   -0.0028324   -0.0005152    0.0019402
h     5.9437121    1.8465908   -1.0295219  0.00   -0.0037670    0.0002992   -0.0023611
h    -2.2338796    2.8805809    0.2471633  0.00   -0.0004842    0.0000847    0.0000475
h    -2.0228617    0.4213765    0.1314253  0.00   -0.0015765    0.0000661    0.0000370
h    -0.2290945    4.2940727    0.1494436  0.00    0.0002233    0.0003851    0.0000992
h     1.9962236    3.2743657   -0.0726670  0.00    0.0003714    0.0008754    0.0000468
h     2.4625397   -1.6881565   -0.4498575  0.00   -0.0078026   -0.0037177    0.0006358
o     2.3876951    0.1112640   -3.1171639  0.00    0.0528580    0.0151199    0.0163196
o     4.6410067    0.1803304   -3.8428120  0.00    0.0110405   -0.0108813    0.0395383
h     4.5988329    0.8264507   -4.6411925  0.00   -0.0016816    0.0256729   -0.0227773
    27
 Energy =       0.2125259627
c    -1.2195156    2.4237271    0.2170624  0.00   -0.0085610    0.0067614    0.0003545
c    -1.1177918    1.0595828    0.1539800  0.00   -0.0155161   -0.0062513    0.0000862
c     0.1191025    0.5149737    0.0175431  0.00   -0.0149627   -0.0295413    0.0000608
c    -0.0960529    3.2083470    0.1428585  0.00   -0.0040119    0.0126646    0.0004423
c     1.1410525    2.6365198   -0.0019636  0.00    0.0024219    0.0115018    0.0000338
c     1.2270815    1.2737827   -0.0688146  0.00    0.0092760    0.0099503    0.0004878
n     0.4498713   -0.8557870   -0.0827249  0.00    0.0225919    0.0165210   -0.0009666
c     2.3043149    0.4627027   -0.2433313  0.00    0.0280808   -0.0148093   -0.0017960
c     1.8620989   -0.8150450   -0.2684399  0.00   -0.0136128   -0.0146390   -0.0012575
h    -0.1789376   -1.6842775   -0.0263161  0.00    0.0038596    0.0051952    0.0002121
c     3.7385343    0.8981723   -0.4560059  0.00   -0.0085555    0.0015571   -0.0043466
c     3.9932915    1.5324337   -1.8507294  0.00   -0.0008648    0.0085146    0.0097108
h     4.4172293    0.0227149   -0.3251825  0.00    0.0014028   -0.0014756    0.0010668
h     3.9997001    1.6307852    0.3396191  0.00   -0.0006804    0.0001341    0.0018842
c     3.6133100    0.5868953   -2.9925113  0.00   -0.0615957   -0.0236852   -0.0174863
n     5.4155335    1.9428598   -1.9866690  0.00    0.0177721   -0.0069629   -0.0149558
h     3.3372560    2.4250561   -1.9698615  0.00    0.0019907    0.0024399   -0.0011302
h     5.4552435    2.9615614   -2.2216293  0.00   -0.0025348   -0.0000769    0.0015664
h     5.9452432    1.8266807   -1.0930287  0.00   -0.0027513    0.0000878   -0.0011270
h    -2.1972839    2.8871064    0.3258549  0.00   -0.0005787    0.0001132    0.0000549
h    -1.9989804    0.4276610    0.2075337  0.00   -0.0014977    0.0000096    0.0000381
h    -0.1878894    4.2906418    0.1951256  0.00    0.0001798    0.0003582    0.0000884
h     2.0278398    3.2603803   -0.0641652  0.00    0.0004463    0.0007981    0.0000206
h     2.4670419   -1.6972318   -0.4586237  0.00   -0.0066448   -0.0033092    0.0005055
o     2.3497680    0.0894855   -3.1045107  0.00    0.0425926    0.0122676    0.0151770
o     4.5639732    0.2580128   -3.9486844  0.00    0.0135019   -0.0139636    0.0354459
h     4.4400798    0.8921457   -4.7489009  0.00   -0.0017482    0.0258399   -0.0241702
    27
 Energy =       0.2131995297
c    -1.1933612    2.4373461    0.2490165  0.00   -0.0085184    0.0066676    0.0003579
c    -1.1027095    1.0725291    0.1866764  0.00   -0.0153732   -0.0061774    0.0000922
c     0.1285345    0.5182281    0.0398381  0.00   -0.0147606   -0.0291037    0.0000608
c    -0.0644760    3.2130402    0.1644338  0.00   -0.0039661    0.0125538    0.0004416
c     1.1668476    2.6314693    0.0089815  0.00    0.0024817    0.0113504    0.0000246
c     1.2416008    1.2681334   -0.0583148  0.00    0.0091554    0.0098294    0.0004801
n     0.4468452   -0.8554027   -0.0603628  0.00    0.0221129    0.0162544   -0.0009293
c     2.3102756    0.4481676   -0.2442083  0.00    0.0276584   -0.0145856   -0.0018749
c     1.8573575   -0.8261273   -0.2619924  0.00   -0.0132984   -0.0144455   -0.0012800
h    -0.1882711   -1.6785579    0.0049498  0.00    0.0037217    0.0050253    0.0002183
c     3.7464935    0.8691346   -0.4741583  0.00   -0.0083931    0.0014901   -0.0042965
c     3.9925706    1.5260702   -1.8612701  0.00   -0.0017119    0.0085298    0.0104313
h     4.4153005   -0.0177072   -0.3691428  0.00    0.0016836   -0.0017638    0.0011030
h     4.0296333    1.5839804    0.3305923  0.00   -0.0005821    0.0003882    0.0021901
c     3.5715784    0.6184839   -3.0223333  0.00   -0.0621816   -0.0223315   -0.0146069