    27
 Energy =       0.3479202416
c    -1.4235396    2.6054793   -0.0667700  0.00   -0.0462703    0.0383741    0.0026705
c    -1.3072796    1.2134697   -0.1072300  0.00   -0.0852028   -0.0325798    0.0019636
c    -0.0178900    0.6711998   -0.1697000  0.00   -0.0888367   -0.1882313   -0.0008214
c    -0.2940599    3.4190890   -0.0891300  0.00   -0.0232998    0.0690141    0.0028770
c     0.9872197    2.8590292   -0.1560400  0.00    0.0254575    0.0657341   -0.0092872
c     1.1340797    1.4562096   -0.1970299  0.00    0.0547024    0.0524905    0.0010614
n     0.3879399   -0.6395298   -0.2140799  0.00    0.1428260    0.1098049   -0.0034839
c     2.2666594    0.5727398   -0.2659299  0.00    0.1494706   -0.0826660    0.0090955
c     1.7555995   -0.7123598   -0.2706899  0.00   -0.1008921   -0.0973860    0.0042872
h    -0.2400399   -1.4313496   -0.2047299  0.00    0.0367408    0.0478313   -0.0004736
c     3.7030089    1.0223397   -0.3320099  0.00    0.0099643    0.0161064   -0.0208519
c     4.2197688    1.4064496   -1.7267995  0.00   -0.0479992   -0.0290171    0.0143836
h     4.3261788    0.2093419    0.0639454  0.00   -0.0060718    0.0144841   -0.0088667
h     3.8370289    1.8640295    0.3610799  0.00   -0.0056737   -0.0111575   -0.0087642
c     5.7571784    1.4848496   -1.6848495  0.00    0.2697495   -0.2063895    0.0858867
n     3.7117889    2.7395892   -2.2095194  0.00    0.0622879    0.0971473   -0.0297165
h     3.9553389    0.6476998   -2.4727493  0.00    0.0008465    0.0191790    0.0062095
h     3.0482891    3.0810591   -1.5064896  0.00   -0.0493119   -0.0050619    0.0730919
h     4.4902887    3.4059490   -2.1568694  0.00    0.3026068   -0.1826837    0.0179244
h    -2.4108593    3.0588691   -0.0157800  0.00   -0.0007992    0.0002134    0.0001040
h    -2.1896094    0.5822398   -0.0890100  0.00   -0.0035955    0.0037667    0.0001220
h    -0.4052699    4.5000487   -0.0535400  0.00    0.0006474    0.0002548    0.0004266
h     1.8590495    3.5066790   -0.1715100  0.00    0.0626180   -0.0196666   -0.0703968
h     2.2327294   -1.6813195   -0.3062999  0.00   -0.0410530   -0.0111361    0.0025076
o     6.5042181    0.5890648   -1.3279196  0.00   -0.1798688    0.2175060   -0.0745940
o     6.1990582    2.7009292   -2.1049194  0.00   -0.4028257    0.1197593   -0.0133082
h     6.7510581    2.5098593   -2.9070392  0.00   -0.0362171   -0.0056905    0.0179531
    27
 Energy =       0.3358952016
c    -1.4236830    2.4921805   -0.0119133  0.00   -0.0444375    0.0367357    0.0025670
c    -1.2907371    1.1012767   -0.0718288  0.00   -0.0819859   -0.0313874    0.0018293
c     0.0045183    0.5787301   -0.1514854  0.00   -0.0855228   -0.1800090   -0.0008668
c    -0.3033302    3.3199974   -0.0165882  0.00   -0.0221675    0.0661860    0.0025756
c     0.9805689    2.7726186   -0.0944941  0.00    0.0234690    0.0623901   -0.0084693
c     1.1362813    1.3849047   -0.1811649  0.00    0.0512529    0.0507891    0.0009537
n     0.4464658   -0.7265993   -0.2014878  0.00    0.1341896    0.1058988   -0.0025853
c     2.2856324    0.5501778   -0.2930754  0.00    0.1427391   -0.0790940    0.0090074
c     1.8179423   -0.7486766   -0.3191898  0.00   -0.0943641   -0.0933702    0.0038680
h    -0.1504493   -1.5445733   -0.1719919  0.00    0.0342006    0.0445039   -0.0004236
c     3.6951054    1.0805378   -0.3884905  0.00    0.0104268    0.0169855   -0.0204088
c     4.1784069    1.5198617   -1.7842507  0.00   -0.0449044   -0.0279771    0.0135247
h     4.3615940    0.2901765   -0.0111816  0.00   -0.0044313    0.0129888   -0.0086299
h     3.8034335    1.9150452    0.3188607  0.00   -0.0059528   -0.0100153   -0.0082470
c     5.7158071    1.5786691   -1.7528276  0.00    0.2561166   -0.2023059    0.0835348
n     3.6800519    2.8795441   -2.2188132  0.00    0.0586826    0.0945647   -0.0292014
h     3.8978467    0.7878750   -2.5528012  0.00    0.0007465    0.0179986    0.0052541
h     3.0054744    3.2312391   -1.5244370  0.00   -0.0372531   -0.0063771    0.0581082
h     4.4697329    3.5375237   -2.1594030  0.00    0.2901988   -0.1746392    0.0171092
h    -2.4161119    2.9328148    0.0525715  0.00   -0.0009222    0.0003420    0.0001120
h    -2.1639046    0.4574331   -0.0544888  0.00   -0.0035442    0.0035304    0.0001040
h    -0.4243229    4.3986917    0.0539389  0.00    0.0005977    0.0009344    0.0003770
h     1.8654261    3.3950666   -0.0529228  0.00    0.0518858   -0.0174856   -0.0549526
h     2.3324898   -1.6958946   -0.4065147  0.00   -0.0378921   -0.0125275    0.0022640
o     6.4498430    0.6714708   -1.3727841  0.00   -0.1720652    0.2085178   -0.0711086
o     6.1766428    2.8129518   -2.0930644  0.00   -0.3859037    0.1193275   -0.0113959
h     6.7072087    2.6686124   -2.9217806  0.00   -0.0331592   -0.0065050    0.0151004
    27
 Energy =       0.2995270855
c    -1.4815861    2.3715797   -0.0763988  0.00   -0.0358037    0.0300020    0.0020663
c    -1.2936646    0.9925940   -0.1176647  0.00   -0.0656967   -0.0256222    0.0013284
c     0.0116932    0.5204829   -0.2021206  0.00   -0.0690753   -0.1388328   -0.0025807
c    -0.3982393    3.2376923   -0.0953562  0.00   -0.0171675    0.0536487    0.0022023
c     0.8971688    2.7408979   -0.1707710  0.00    0.0190979    0.0495017   -0.0068025
c     1.1028548    1.3666067   -0.2436837  0.00    0.0400527    0.0410883    0.0008594
n     0.4985983   -0.7854395   -0.1771799  0.00    0.1051463    0.0803290    0.0001452
c     2.2786739    0.5908728   -0.3247938  0.00    0.1132709   -0.0612162    0.0063177
c     1.8795502   -0.7222769   -0.3169297  0.00   -0.0741976   -0.0709741    0.0017234
h    -0.0533099   -1.6432883   -0.1064321  0.00    0.0252512    0.0313284    0.0005045
c     3.6859024    1.1568332   -0.3547417  0.00    0.0093797    0.0132123   -0.0164961
c     4.2225134    1.5806953   -1.7399782  0.00   -0.0347529   -0.0223050    0.0102912
h     4.3602730    0.3922380    0.0709929  0.00   -0.0021107    0.0096612   -0.0063748
h     3.7386557    2.0098943    0.3435319  0.00   -0.0048235   -0.0067370   -0.0052471
c     5.7559590    1.6666775   -1.6819558  0.00    0.2033057   -0.1606122    0.0663430
n     3.7086672    2.9162190   -2.2000000  0.00    0.0449523    0.0734574   -0.0244369
h     3.9763936    0.8275945   -2.5054773  0.00    0.0005431    0.0138350    0.0035004
h     3.0066401    3.2659923   -1.5321610  0.00   -0.0283017   -0.0046236    0.0458865
h     4.4821054    3.5926355   -2.0900618  0.00    0.2370714   -0.1410421    0.0151588
h    -2.4906320    2.7740616   -0.0086481  0.00   -0.0015723    0.0006634    0.0001434
h    -2.1391232    0.3123509   -0.0729241  0.00   -0.0039437    0.0018956    0.0001793
h    -0.5603473    4.3124375   -0.0354116  0.00    0.0004569    0.0016958    0.0003578
h     1.7415102    3.4099716   -0.1335931  0.00    0.0402653   -0.0129798   -0.0422323
h     2.4729875   -1.6301988   -0.3484453  0.00   -0.0273648   -0.0141966    0.0015676
o     6.5053873    0.7322140   -1.2913510  0.00   -0.1365007    0.1650128   -0.0563995
o     6.2364677    2.8989291   -2.0443711  0.00   -0.3141684    0.1006055   -0.0036475
h     6.6928338    2.7533880   -2.9256830  0.00   -0.0233139   -0.0067957    0.0056423
    27
 Energy =       0.2961676792
c    -1.5149388    2.2858280   -0.0921576  0.00   -0.0345148    0.0288613    0.0019223
c    -1.2920784    0.9123476   -0.1025105  0.00   -0.0627295   -0.0253072    0.0012302
c     0.0221887    0.4712617   -0.2002890  0.00   -0.0653994   -0.1269360   -0.0037552
c    -0.4551320    3.1774127   -0.1452605  0.00   -0.0159838    0.0518060    0.0020948
c     0.8491996    2.7120961   -0.2301950  0.00    0.0184877    0.0475755   -0.0065314
c     1.0899627    1.3435171   -0.2804164  0.00    0.0383823    0.0398107    0.0007802
n     0.5467323   -0.8224626   -0.0902438  0.00    0.0985880    0.0720350    0.0015539
c     2.2842672    0.5990179   -0.3544077  0.00    0.1085629   -0.0567448    0.0058458
c     1.9206461   -0.7222681   -0.3001869  0.00   -0.0678008   -0.0657539    0.0005806
h     0.0255924   -1.6958610    0.0523210  0.00    0.0214168    0.0253319    0.0013468
c     3.6840683    1.1941216   -0.3745368  0.00    0.0091035    0.0125186   -0.0157560
c     4.2354822    1.6311461   -1.7524701  0.00   -0.0330044   -0.0211843    0.0097667
h     4.3696897    0.4432832    0.0594970  0.00   -0.0018281    0.0090650   -0.0060203
h     3.7127946    2.0469376    0.3267061  0.00   -0.0045881   -0.0061575   -0.0048017
c     5.7693005    1.7308707   -1.6831784  0.00    0.1929427   -0.1527382    0.0629411
n     3.7162293    2.9648585   -2.2054909  0.00    0.0418639    0.0689667   -0.0235525
h     4.0020890    0.8808352   -2.5256209  0.00    0.0005132    0.0130519    0.0032414
h     3.0089282    3.3043604   -1.5399863  0.00   -0.0258369   -0.0044511    0.0425659
h     4.4785895    3.6473922   -2.0592274  0.00    0.2257328   -0.1332518    0.0146324
h    -2.5328796    2.6640502   -0.0136574  0.00   -0.0019202    0.0006957    0.0001650
h    -2.1181724    0.2111937   -0.0136772  0.00   -0.0047688    0.0007879    0.0002977
h    -0.6433231    4.2491675   -0.1026422  0.00    0.0004558    0.0021452    0.0003624
h     1.6676318    3.4074680   -0.2111972  0.00    0.0377879   -0.0117465   -0.0387741
h     2.5438205   -1.6107933   -0.3072547  0.00   -0.0258534   -0.0145482    0.0015231
o     6.5267349    0.7954498   -1.2899639  0.00   -0.1295011    0.1566813   -0.0535174
o     6.2483929    2.9726924   -2.0269120  0.00   -0.2982475    0.0960417   -0.0029973
h     6.6921174    2.8477319   -2.9186501  0.00   -0.0218607   -0.0065548    0.0048556
    27
 Energy =       0.2770206049
c    -1.5283949    2.2022100   -0.1082024  0.00   -0.0301247    0.0250058    0.0016783
c    -1.2742296    0.8374952   -0.1345845  0.00   -0.0545761   -0.0225506    0.0013897
c     0.0462084    0.4288285   -0.2209760  0.00   -0.0558925   -0.1068994   -0.0024724
c    -0.4901481    3.1167417   -0.1428182  0.00   -0.0138377    0.0450899    0.0016082
c     0.8218161    2.6822923   -0.2156675  0.00    0.0165981    0.0412692   -0.0059910
c     1.0885362    1.3248965   -0.2720960  0.00    0.0329363    0.0351567    0.0005313
n     0.5908867   -0.8671207   -0.1770619  0.00    0.0809120    0.0604117    0.0009486
c     2.2962519    0.6223456   -0.3338269  0.00    0.0945501   -0.0485303    0.0044492
c     1.9780384   -0.7069996   -0.3044060  0.00   -0.0541250   -0.0548172    0.0008315
h     0.0882625   -1.7661460   -0.1064321  0.00    0.0162703    0.0174589    0.0020858
c     3.6783000    1.2594067   -0.3332922  0.00    0.0081840    0.0111190   -0.0142660
c     4.2322482    1.6800098   -1.7166890  0.00   -0.0284663   -0.0183922    0.0083036
h     4.3779343    0.5372127    0.1314008  0.00   -0.0008674    0.0074418   -0.0048582
h     3.6720618    2.1302856    0.3488961  0.00   -0.0040242   -0.0044276   -0.0037592
c     5.7626553    1.7774778   -1.6525933  0.00    0.1667639   -0.1318142    0.0539538
n     3.7095516    3.0053782   -2.1842993  0.00    0.0369442    0.0593131   -0.0211954
h     3.9994829    0.9169900   -2.4798705  0.00    0.0004491    0.0112590    0.0026279
h     2.9758477    3.3496179   -1.5450767  0.00   -0.0233441   -0.0030474    0.0373102
h     4.4694156    3.6980053   -2.0438047  0.00    0.1977230   -0.1158602    0.0126885
h    -2.5561460    2.5554970   -0.0395460  0.00   -0.0021745    0.0004577    0.0002429
h    -2.0846910    0.1148113   -0.0740703  0.00   -0.0046501   -0.0000568    0.0007102
h    -0.7038461    4.1835494   -0.0973560  0.00    0.0001293    0.0020600    0.0000345
h     1.6276891    3.3931224   -0.1897269  0.00    0.0329198   -0.0103357   -0.0339682
h     2.6442371   -1.5644517   -0.2990149  0.00   -0.0211769   -0.0134862    0.0016520
o     6.5212921    0.8253575   -1.2487340  0.00   -0.1118484    0.1353452   -0.0462340
o     6.2576651    3.0115516   -2.0075664  0.00   -0.2620518    0.0852037    0.0017541
h     6.6370077    2.8932901   -2.9341938  0.00   -0.0172204   -0.0063741   -0.0000561
    27
 Energy =       0.2696735667
c    -1.5268867    2.1923825   -0.1269717  0.00   -0.0283924    0.0233746    0.0015630
c    -1.2718361    0.8300006   -0.1829283  0.00   -0.0510432   -0.0216085    0.0013520
c     0.0478817    0.4243931   -0.2574673  0.00   -0.0519147   -0.0977254   -0.0020483
c    -0.4890311    3.1071699   -0.1247680  0.00   -0.0126134    0.0424945    0.0014503
c     0.8227661    2.6747368   -0.1855557  0.00    0.0156562    0.0389577   -0.0056834
c     1.0883045    1.3205250   -0.2688531  0.00    0.0309932    0.0332891    0.0004409
n     0.5865764   -0.8769877   -0.2751316  0.00    0.0743468    0.0546457    0.0005855
c     2.2943213    0.6229784   -0.3290041  0.00    0.0888743   -0.0445314    0.0041097
c     1.9801528   -0.7065562   -0.3410759  0.00   -0.0488958   -0.0504215    0.0009236
h     0.0801275   -1.7794990   -0.2651852  0.00    0.0137125    0.0137213    0.0019104
c     3.6760059    1.2590864   -0.3054894  0.00    0.0077488    0.0105011   -0.0133283
c     4.2371295    1.6923401   -1.6825061  0.00   -0.0265736   -0.0171529    0.0077279
h     4.3714966    0.5298080    0.1554716  0.00   -0.0007961    0.0069227   -0.0045068
h     3.6660218    2.1229309    0.3861371  0.00   -0.0037458   -0.0040798   -0.0034603
c     5.7658560    1.7921391   -1.6134620  0.00    0.1558710   -0.1231724    0.0503499
n     3.7095656    3.0167975   -2.1439678  0.00    0.0345305    0.0554283   -0.0198152
h     4.0108285    0.9323746   -2.4517336  0.00    0.0004136    0.0104865    0.0024268
h     2.9738098    3.3594400   -1.5048002  0.00   -0.0218953   -0.0028027    0.0348945
h     4.4690289    3.7127447   -2.0081756  0.00    0.1853124   -0.1084608    0.0118682
h    -2.5558393    2.5437332   -0.0681624  0.00   -0.0021160    0.0003726    0.0002316
h    -2.0830281    0.1052053   -0.1611391  0.00   -0.0048760   -0.0006384    0.0006822
h    -0.7035712    4.1728191   -0.0587656  0.00    0.0001880    0.0021688    0.0000394
h     1.6301521    3.3841063   -0.1301258  0.00    0.0311614   -0.0093621   -0.0317287
h     2.6527611   -1.5590359   -0.3435055  0.00   -0.0198814   -0.0127623    0.0016080
o     6.5256539    0.8327089   -1.2074266  0.00   -0.1045180    0.1264426   -0.0432143
o     6.2671908    3.0233415   -1.9724949  0.00   -0.2458540    0.0801022    0.0028090
h     6.6124948    2.9119723   -2.9145217  0.00   -0.0156928   -0.0061896   -0.0011875
    27
 Energy =       0.2612250402
c    -1.5346855    2.1497778   -0.1570105  0.00   -0.0258895    0.0210703    0.0014104
c    -1.2666680    0.7934981   -0.2432347  0.00   -0.0460524   -0.0199928    0.0012915
c     0.0546888    0.4016988   -0.3066201  0.00   -0.0466058   -0.0866315   -0.0013726
c    -0.5058721    3.0718876   -0.1163006  0.00   -0.0109986    0.0387012    0.0012505
c     0.8082280    2.6520848   -0.1647659  0.00    0.0142629    0.0355083   -0.0052060
c     1.0843569    1.3048991   -0.2774267  0.00    0.0281078    0.0303150    0.0003113
n     0.5995877   -0.8979853   -0.3782333  0.00    0.0657373    0.0478788   -0.0000021
c     2.2938483    0.6234578   -0.3345128  0.00    0.0804236   -0.0393920    0.0036627
c     1.9960585   -0.7070272   -0.3879743  0.00   -0.0427456   -0.0449177    0.0011602
h     0.0990950   -1.8056504   -0.4239384  0.00    0.0111054    0.0101268    0.0015289
c     3.6716760    1.2672757   -0.2771782  0.00    0.0071824    0.0094793   -0.0118811
c     4.2466893    1.7263979   -1.6416300  0.00   -0.0238028   -0.0153845    0.0068563
h     4.3653278    0.5321302    0.1787990  0.00   -0.0007321    0.0061819   -0.0040142
h     3.6488839    2.1189452    0.4302351  0.00   -0.0033501   -0.0034762   -0.0029148
c     5.7734177    1.8350378   -1.5610443  0.00    0.1404850   -0.1108370    0.0451516
n     3.7100667    3.0501779   -2.0892036  0.00    0.0311474    0.0499272   -0.0179398
h     4.0340958    0.9739207   -2.4236981  0.00    0.0003619    0.0092905    0.0020377
h     2.9708188    3.3851773   -1.4490274  0.00   -0.0196872   -0.0023728    0.0314286
h     4.4644107    3.7522050   -1.9461329  0.00    0.1678778   -0.0980611    0.0107921
h    -2.5675131    2.4908387   -0.1075366  0.00   -0.0020383    0.0003099    0.0002154
h    -2.0714314    0.0609439   -0.2589617  0.00   -0.0049206   -0.0011582    0.0006100
h    -0.7303181    4.1339904   -0.0279514  0.00    0.0002313    0.0022958    0.0000531
h     1.6082801    3.3667428   -0.0764780  0.00    0.0284136   -0.0080785   -0.0285257
h     2.6843676   -1.5468942   -0.3953150  0.00   -0.0178503   -0.0117002    0.0015199
o     6.5377622    0.8673731   -1.1523313  0.00   -0.0940822    0.1138093   -0.0389321
o     6.2807700    3.0668588   -1.9165912  0.00   -0.2230899    0.0730705    0.0046857
h     6.5819913    2.9738930   -2.8775457  0.00   -0.0134909   -0.0059622   -0.0031774
    27
 Energy =       0.2535178217
c    -1.5520675    2.0731377   -0.2022573  0.00   -0.0234046    0.0186600    0.0012534
c    -1.2590990    0.7264582   -0.3194317  0.00   -0.0409006   -0.0182941    0.0012106
c     0.0668501    0.3592403   -0.3712740  0.00   -0.0412554   -0.0759231   -0.0007490
c    -0.5408949    3.0096820   -0.1200362  0.00   -0.0093140    0.0348318    0.0010755
c     0.7783503    2.6130986   -0.1549329  0.00    0.0127862    0.0318884   -0.0046577
c     1.0774414    1.2766888   -0.2997379  0.00    0.0250568    0.0269942    0.0001611
n     0.6307926   -0.9318742   -0.4874454  0.00    0.0569191    0.0412569   -0.0005506
c     2.2961090    0.6216975   -0.3518208  0.00    0.0712936   -0.0342147    0.0032268
c     2.0263128   -0.7105901   -0.4467531  0.00   -0.0368003   -0.0395662    0.0013680
h     0.1458699   -1.8467763   -0.5826915  0.00    0.0087693    0.0069722    0.0010837
c     3.6652779    1.2826425   -0.2496286  0.00    0.0066705    0.0081464   -0.0101460
c     4.2597291    1.7847049   -1.5934046  0.00   -0.0207194   -0.0135206    0.0058365
h     4.3604016    0.5429961    0.1984805  0.00   -0.0006993    0.0053472   -0.0034759
h     3.6195689    2.1149389    0.4811662  0.00   -0.0029502   -0.0025692   -0.0020570
c     5.7841468    1.9087105   -1.4932195  0.00    0.1242478   -0.0977934    0.0395781
n     3.7101739    3.1095523   -2.0160812  0.00    0.0274541    0.0440049   -0.0162435
h     4.0682915    1.0471863   -2.3970611  0.00    0.0002990    0.0077966    0.0013840
h     2.9659132    3.4284037   -1.3729600  0.00   -0.0170477   -0.0017579    0.0275592
h     4.4544859    3.8193217   -1.8509521  0.00    0.1495030   -0.0867467    0.0097795
h    -2.5913578    2.3954450   -0.1623676  0.00   -0.0020705    0.0003006    0.0002013
h    -2.0503787   -0.0193914   -0.3720053  0.00   -0.0049474   -0.0016816    0.0005077
h    -0.7844460    4.0655003   -0.0071561  0.00    0.0002421    0.0025794    0.0000937
h     1.5622588    3.3389225   -0.0286792  0.00    0.0252626   -0.0066006   -0.0248088
h     2.7373512   -1.5314965   -0.4562677  0.00   -0.0155208   -0.0106616    0.0014102
o     6.5558409    0.9344247   -1.0813777  0.00   -0.0829722    0.1004590   -0.0343788
o     6.2949135    3.1462929   -1.8335535  0.00   -0.1985798    0.0656779    0.0063334
h     6.5560979    3.0827381   -2.8101604  0.00   -0.0113219   -0.0055858   -0.0049955
    27
 Energy =       0.2486512158
c    -1.5784331    1.9685247   -0.2699923  0.00   -0.0219112    0.0168644    0.0011334
c    -1.2508322    0.6340010   -0.4155165  0.00   -0.0373111   -0.0172508    0.0011069
c     0.0826384    0.2999546   -0.4533788  0.00   -0.0374521   -0.0684458   -0.0003980
c    -0.5921755    2.9251970   -0.1449706  0.00   -0.0080688    0.0322888    0.0010138
c     0.7346935    2.5603171   -0.1631514  0.00    0.0117396    0.0293596   -0.0041746
c     1.0678253    1.2375853   -0.3387808  0.00    0.0228662    0.0244542    0.0000320
n     0.6772168   -0.9763948   -0.6025654  0.00    0.0501501    0.0363612   -0.0009330
c     2.3009901    0.6163537   -0.3806629  0.00    0.0643802   -0.0305846    0.0029264
c     2.0675992   -0.7183866   -0.5135836  0.00   -0.0322401   -0.0358251    0.0014732
h     0.2161887   -1.9001675   -0.7414446  0.00    0.0069751    0.0044375    0.0006668
c     3.6557369    1.3027737   -0.2227006  0.00    0.0064728    0.0067044   -0.0084687
c     4.2748312    1.8643625   -1.5356804  0.00   -0.0182158   -0.0121074    0.0049184
h     4.3555789    0.5608880    0.2155259  0.00   -0.0007228    0.0046315   -0.0030341
h     3.5762392    2.1079309    0.5374210  0.00   -0.0027141   -0.0013992   -0.0008637
c     5.7963135    2.0094838   -1.4055198  0.00    0.1120545   -0.0883055    0.0353778
n     3.7107487    3.1928517   -1.9225993  0.00    0.0242612    0.0390218   -0.0157714
h     4.1119898    1.1513494   -2.3696276  0.00    0.0002288    0.0062394    0.0003801
h     2.9558964    3.4841282   -1.2787376  0.00   -0.0147638   -0.0010095    0.0244889
h     4.4392753    3.9095528   -1.7136318  0.00    0.1360177   -0.0771050    0.0093021
h    -2.6259507    2.2652026   -0.2415364  0.00   -0.0023263    0.0003452    0.0001931
h    -2.0227537   -0.1292240   -0.5033776  0.00   -0.0051355   -0.0022517    0.0003898
h    -0.8625131    3.9721041   -0.0083909  0.00    0.0002044    0.0030582    0.0001713
h     1.4946450    3.3011812    0.0044391  0.00    0.0226259   -0.0052115   -0.0214303
h     2.8039999   -1.5169948   -0.5183118  0.00   -0.0135765   -0.0100039    0.0013231
o     6.5768383    1.0352498   -0.9856570  0.00   -0.0745130    0.0905736   -0.0308971
o     6.3040172    3.2593973   -1.7158460  0.00   -0.1790225    0.0602077    0.0062128
h     6.5673292    3.2244333   -2.6933310  0.00   -0.0100030   -0.0050473   -0.0051390
    27
 Energy =       0.2479096914
c    -1.6064505    1.8635360   -0.3533037  0.00   -0.0217180    0.0161545    0.0010765
c    -1.2437378    0.5404546   -0.5157912  0.00   -0.0362064   -0.0170911    0.0010161
c     0.0979351    0.2395021   -0.5381006  0.00   -0.0361078   -0.0657673   -0.0003435
c    -0.6461666    2.8407703   -0.1946106  0.00   -0.0076590    0.0316496    0.0010562
c     0.6883355    2.5076933   -0.1942238  0.00    0.0113941    0.0285384   -0.0039106
c     1.0578166    1.1980158   -0.3891187  0.00    0.0220564    0.0234594   -0.0000422
n     0.7261572   -1.0203387   -0.7026796  0.00    0.0470946    0.0343460   -0.0011168
c     2.3067009    0.6089541   -0.4139950  0.00    0.0615606   -0.0294986    0.0027850
c     2.1083865   -0.7285703   -0.5707841  0.00   -0.0300183   -0.0344074    0.0015074
h     0.2911953   -1.9526391   -0.8732012  0.00    0.0060552    0.0029824    0.0003974
c     3.6440218    1.3219743   -0.1993696  0.00    0.0066495    0.0055679   -0.0073425
c     4.2893466    1.9450030   -1.4760225  0.00   -0.0171205   -0.0114720    0.0044068
h     4.3495609    0.5806600    0.2309802  0.00   -0.0007881    0.0042623   -0.0028183
h     3.5265912    2.0979747    0.5878775  0.00   -0.0027241   -0.0003751    0.0002939
c     5.8071797    2.1119756   -1.3093093  0.00    0.1070448   -0.0851564    0.0336050
n     3.7137890    3.2784523   -1.8256479  0.00    0.0221628    0.0357188   -0.0170685
h     4.1573823    1.2612687   -2.3413617  0.00    0.0001688    0.0050984   -0.0007014
h     2.9416192    3.5360129   -1.1885137  0.00   -0.0137501   -0.0003763    0.0233089
h     4.4224496    3.9969779   -1.5548786  0.00    0.1318925   -0.0712637    0.0096611
h    -2.6615336    2.1344543   -0.3374870  0.00   -0.0026959    0.0004061    0.0001890
h    -1.9954691   -0.2397987   -0.6300131  0.00   -0.0054143   -0.0026874    0.0003030
h    -0.9438697    3.8785500   -0.0429839  0.00    0.0001365    0.0034914    0.0002437
h     1.4220334    3.2633429    0.0079642  0.00    0.0212507   -0.0043947   -0.0193969
h     2.8653991   -1.5078780   -0.5597618  0.00   -0.0125470   -0.0098960    0.0012982
o     6.5947943    1.1458621   -0.8742678  0.00   -0.0708821    0.0867982   -0.0294674
o     6.3042706    3.3783559   -1.5799147  0.00   -0.1709618    0.0588280    0.0085558
h     6.6201956    3.3610891   -2.5430904  0.00   -0.0088731   -0.0049155   -0.0074961
    27
 Energy =       0.2351913280
c    -1.5928864    1.8211969   -0.3373503  0.00   -0.0170348    0.0122711    0.0006700
c    -1.2096208    0.5120925   -0.5307074  0.00   -0.0278333   -0.0138045    0.0007398
c     0.1304130    0.2304531   -0.5394656  0.00   -0.0278069   -0.0502444    0.0000933
c    -0.6498354    2.8045096   -0.1363797  0.00   -0.0054314    0.0248469    0.0006702
c     0.6862190    2.4900020   -0.1251215  0.00    0.0089917    0.0224867   -0.0031311
c     1.0692320    1.1935966   -0.3513989  0.00    0.0171160    0.0184257   -0.0002740
n     0.7701419   -1.0201953   -0.7413994  0.00    0.0359948    0.0253887   -0.0013601
c     2.3180848    0.6275068   -0.3864070  0.00    0.0471737   -0.0209290    0.0022609
c     2.1493734   -0.7039128   -0.5942792  0.00   -0.0233103   -0.0267985    0.0011614
h     0.3460946   -1.9529551   -0.9420343  0.00    0.0044486    0.0014397    0.0000079
c     3.6457713    1.3500541   -0.1710499  0.00    0.0051128    0.0040767   -0.0055213
c     4.2697403    1.9624523   -1.4612385  0.00   -0.0131782   -0.0089111    0.0037203
h     4.3582985    0.6158918    0.2632060  0.00   -0.0005896    0.0032556   -0.0020487
h     3.5272138    2.1325399    0.6094933  0.00   -0.0021483   -0.0002604    0.0003159
c     5.7861371    2.1310003   -1.3215144  0.00    0.0808482   -0.0667207    0.0258056
n     3.6719492    3.2821659   -1.8177700  0.00    0.0144138    0.0249444   -0.0142669
h     4.1296845    1.2645568   -2.3150146  0.00    0.0000687    0.0039372   -0.0006307
h     2.9135990    3.5499833   -1.1639452  0.00   -0.0116110   -0.0003007    0.0187033
h     4.3895552    4.0219606   -1.6179864  0.00    0.1082800   -0.0528188    0.0079412
h    -2.6514564    2.0771152   -0.3327605  0.00   -0.0023078    0.0001565    0.0000114
h    -1.9469907   -0.2750274   -0.6821347  0.00   -0.0046347   -0.0028309    0.0000048
h    -0.9641672    3.8334879    0.0372520  0.00    0.0000241    0.0030240    0.0001661
h     1.4122893    3.2510063    0.1028234  0.00    0.0171858   -0.0030581   -0.0149260
h     2.9312969   -1.4595411   -0.6227168  0.00   -0.0088251   -0.0086951    0.0009507
o     6.5838135    1.1462514   -0.8989086  0.00   -0.0537781    0.0665107   -0.0227974
o     6.3025403    3.3783767   -1.6446801  0.00   -0.1375254    0.0494214    0.0300943
h     6.4614425    3.3770871   -2.6601205  0.00   -0.0036432   -0.0048131   -0.0283607
    27
 Energy =       0.2326680765
c    -1.5737054    1.9099505   -0.2511702  0.00   -0.0171785    0.0119783    0.0006388
c    -1.2196145    0.5915334   -0.4377958  0.00   -0.0275842   -0.0138440    0.0006597
c     0.1138028    0.2829711   -0.4627736  0.00   -0.0273603   -0.0492827    0.0000467
c    -0.6078614    2.8768209   -0.0747593  0.00   -0.0053704    0.0247604    0.0007315
c     0.7226033    2.5365139   -0.0827935  0.00    0.0088596    0.0222306   -0.0029459
c     1.0741159    1.2291704   -0.3000556  0.00    0.0167608    0.0180250   -0.0002868
n     0.7236282   -0.9829920   -0.6620975  0.00    0.0345982    0.0245830   -0.0013881
c     2.3097364    0.6378733   -0.3555971  0.00    0.0458924   -0.0208258    0.0022751
c     2.1125287   -0.6915804   -0.5514995  0.00   -0.0221605   -0.0262375    0.0011257
h     0.2760150   -1.9096312   -0.8412910  0.00    0.0039572    0.0006619   -0.0001364
c     3.6551208    1.3382761   -0.1914080  0.00    0.0053702    0.0031799   -0.0046954
c     4.2547347    1.8948194   -1.5180324  0.00   -0.0128245   -0.0088549    0.0035692
h     4.3627216    0.6027410    0.2488095  0.00   -0.0006466    0.0030604   -0.0019220
h     3.5720618    2.1487733    0.5662924  0.00   -0.0021661    0.0005967    0.0012323
c     5.7752300    2.0447085   -1.4191912  0.00    0.0790234   -0.0660543    0.0253805
n     3.6631201    3.2083664   -1.9082754  0.00    0.0126720    0.0220529   -0.0158124
h     4.0852636    1.1674189   -2.3427847  0.00   -0.0000642    0.0030299   -0.0015651
h     2.9261996    3.5109450   -1.2420944  0.00   -0.0117797    0.0001682    0.0187368
h     4.3995315    3.9492561   -1.7767395  0.00    0.1082572   -0.0485458    0.0080530
h    -2.6270669    2.1869456   -0.2334057  0.00   -0.0025985    0.0002087    0.0000118
h    -1.9746834   -0.1824284   -0.5710029  0.00   -0.0048331   -0.0030764   -0.0000492
h    -0.8992084    3.9139714    0.0916631  0.00   -0.0000275    0.0032990    0.0002176
h     1.4720895    3.2869653    0.1177109  0.00    0.0168351   -0.0024828   -0.0138602
h     2.8810969   -1.4604674   -0.6014955  0.00   -0.0082464   -0.0087437    0.0009151
o     6.5670344    1.0603924   -0.9805727  0.00   -0.0525817    0.0648367   -0.0221981
o     6.3041647    3.2713618   -1.7952723  0.00   -0.1336814    0.0500493    0.0316998
h     6.4892737    3.2189800   -2.8059770  0.00   -0.0031223   -0.0047728   -0.0304341
    27
 Energy =       0.2283016720
c    -1.5536025    1.9822343   -0.1740984  0.00   -0.0161765    0.0110296    0.0005720
c    -1.2213091    0.6586559   -0.3577119  0.00   -0.0256953   -0.0129757    0.0005584
c     0.1054006    0.3301636   -0.3956348  0.00   -0.0253645   -0.0455652   -0.0000142
c    -0.5715712    2.9355892   -0.0157837  0.00   -0.0050420    0.0231149    0.0007200
c     0.7535691    2.5762785   -0.0402769  0.00    0.0081520    0.0206423   -0.0026172
c     1.0803019    1.2620604   -0.2516545  0.00    0.0154030    0.0166476   -0.0002656
n     0.6905844   -0.9474284   -0.5949944  0.00    0.0315509    0.0226099   -0.0012575
c     2.3036810    0.6526171   -0.3258686  0.00    0.0420661   -0.0196078    0.0021878
c     2.0863027   -0.6736960   -0.5158167  0.00   -0.0200098   -0.0241793    0.0009872
h     0.2244717   -1.8685258   -0.7569667  0.00    0.0033924    0.0001456   -0.0002045
c     3.6618395    1.3336203   -0.2067513  0.00    0.0051961    0.0021622   -0.0036823
c     4.2357907    1.8374065   -1.5653296  0.00   -0.0118824   -0.0084633    0.0034073
h     4.3660820    0.5986962    0.2404528  0.00   -0.0006673    0.0027212   -0.0016827
h     3.6095904    2.1690452    0.5273469  0.00   -0.0020233    0.0012728    0.0018878
c     5.7586660    1.9712927   -1.5069813  0.00    0.0726684   -0.0619725    0.0235390