    13
 Energy =       0.1089471511
c    -3.7133889    1.6950595    0.3173519  0.00   -0.1136215    0.0632488    0.0179541
c    -2.4962693    2.6345192    0.2419999  0.00    0.3657663   -0.0256609    0.1177544
c    -4.9565486    2.3924193   -0.2155699  0.00    0.0499167    0.0183026   -0.0068049
h    -5.2099685    3.2528291    0.4143399  0.00    0.0033382   -0.0130276   -0.0096100
h    -5.8205883    1.7190695   -0.2147749  0.00    0.0115407    0.0113026   -0.0019516
h    -4.8083986    2.7651692   -1.2348596  0.00   -0.0013785   -0.0006771    0.0209441
n    -3.4097890    0.4519539   -0.4549189  0.00    0.0455223   -0.0393155   -0.0510057
h    -3.8575589    1.4177196    1.3669296  0.00   -0.0004457   -0.0018722   -0.0221033
h    -4.2340588    0.2238779   -1.0206697  0.00    0.0215767    0.0301582    0.0209461
h    -2.6878492    0.6694128   -1.1486897  0.00   -0.0297346    0.0070983    0.0345848
o    -1.4040496    2.4172293    0.7380088  0.00   -0.2604148    0.0450748   -0.1272337
o    -2.7835192    3.7545589   -0.4737969  0.00   -0.0693365   -0.0575588    0.0101694
h    -2.5521993    4.5104687    0.1222010  0.00   -0.0227294   -0.0370734   -0.0036437
    13
 Energy =       0.0860303838
c    -3.6816315    1.7010211    0.2853306  0.00   -0.0656385    0.0383193    0.0093136
c    -2.4810084    2.6412290    0.1566969  0.00    0.2162107   -0.0140548    0.0712077
c    -4.9586063    2.3967521   -0.1824615  0.00    0.0339798    0.0119473   -0.0040067
h    -5.1445579    3.3043487    0.4212868  0.00    0.0025278   -0.0047001   -0.0033072
h    -5.8369983    1.7317338   -0.0724858  0.00    0.0020103    0.0035894   -0.0000737
h    -4.8638390    2.7104107   -1.2389837  0.00    0.0014287    0.0005485    0.0090876
n    -3.4467290    0.4413921   -0.4716884  0.00    0.0237361   -0.0252938   -0.0277234
h    -3.7657780    1.4503095    1.3584087  0.00   -0.0001884   -0.0009344   -0.0107355
h    -4.2884137    0.2054260   -1.0253677  0.00    0.0121235    0.0179144    0.0122553
h    -2.6904598    0.5828401   -1.1676819  0.00   -0.0136135    0.0045255    0.0171371
o    -1.3322284    2.3914706    0.6813362  0.00   -0.1541139    0.0261702   -0.0743810
o    -2.7329837    3.8079448   -0.5166787  0.00   -0.0457085   -0.0698710   -0.0366113
h    -2.7109524    4.5394085    0.2098399  0.00   -0.0127540    0.0118395    0.0378374
    13
 Energy =       0.0773869130
c    -3.6938337    1.7093776    0.2917650  0.00   -0.0510604    0.0301560    0.0072759
c    -2.5002501    2.6525642    0.1442002  0.00    0.1672322   -0.0106383    0.0564392
c    -4.9812600    2.3908218   -0.1752300  0.00    0.0271053    0.0093163   -0.0030080
h    -5.1573937    3.3183520    0.4043019  0.00    0.0021362   -0.0031296   -0.0023234
h    -5.8563413    1.7255168   -0.0329645  0.00    0.0012147    0.0024421    0.0000266
h    -4.9003772    2.6740992   -1.2434279  0.00    0.0012537    0.0006136    0.0065661
n    -3.4681993    0.4359773   -0.4413165  0.00    0.0178332   -0.0200307   -0.0210168
h    -3.7680558    1.4801817    1.3726797  0.00   -0.0001381   -0.0007520   -0.0080756
h    -4.3067532    0.1863745   -0.9989057  0.00    0.0093541    0.0139149    0.0094390
h    -2.6946638    0.5462512   -1.1286742  0.00   -0.0098391    0.0034192    0.0126141
o    -1.3238378    2.3859163    0.6553398  0.00   -0.1193625    0.0200923   -0.0584339
o    -2.7310211    3.8182984   -0.5460532  0.00   -0.0385047   -0.0705348   -0.0438559
h    -2.5521993    4.5805559    0.1358368  0.00   -0.0072247    0.0251312    0.0443526
    13
 Energy =       0.0701313624
c    -3.7080672    1.7310921    0.3055827  0.00   -0.0361725    0.0226233    0.0054965
c    -2.5114166    2.6624946    0.1152211  0.00    0.1146362   -0.0063219    0.0407799
c    -5.0025972    2.3959636   -0.1748720  0.00    0.0198820    0.0061421   -0.0016512
h    -5.1653348    3.3555686    0.3599299  0.00    0.0014822   -0.0007777   -0.0009195
h    -5.8774715    1.7391761    0.0140524  0.00    0.0001234    0.0009108    0.0002775
h    -4.9346997    2.6241451   -1.2599983  0.00    0.0011077    0.0008057    0.0030192
n    -3.5042603    0.4236394   -0.3707074  0.00    0.0102520   -0.0160708   -0.0134037
h    -3.7729188    1.5515769    1.3997476  0.00   -0.0001661   -0.0006771   -0.0043496
h    -4.3394099    0.1554562   -0.9303648  0.00    0.0064217    0.0094819    0.0063296
h    -2.7068375    0.4731678   -1.0447579  0.00   -0.0043153    0.0018431    0.0062845
o    -1.3046698    2.3669241    0.6026316  0.00   -0.0816807    0.0134537   -0.0415268
o    -2.7130569    3.8253837   -0.5975532  0.00   -0.0306277   -0.0632739   -0.0432061
h    -2.3934462    4.5996987    0.0186396  0.00   -0.0009430    0.0318608    0.0428696
    13
 Energy =       0.0679472679
c    -3.7250884    1.7690813    0.3306017  0.00   -0.0312431    0.0235221    0.0054964
c    -2.5104022    2.6654097    0.0767098  0.00    0.0936726   -0.0032171    0.0338788
c    -5.0082036    2.4129100   -0.2142551  0.00    0.0164828    0.0046274   -0.0001236
h    -5.1621249    3.4193614    0.2398530  0.00    0.0005070    0.0032111    0.0007940
h    -5.8932118    1.7829898    0.0219270  0.00   -0.0007963   -0.0003964    0.0009160
h    -4.9278582    2.5502355   -1.3178710  0.00    0.0012631    0.0013578   -0.0016353
n    -3.5407961    0.4020068   -0.2339133  0.00    0.0055167   -0.0206844   -0.0092121
h    -3.8019116    1.6829525    1.4398741  0.00   -0.0005854   -0.0010358    0.0007624
h    -4.3685123    0.1024129   -0.7916033  0.00    0.0051546    0.0066266    0.0042024
h    -2.7186015    0.3662427   -0.8860048  0.00    0.0012202   -0.0002638    0.0002258
o    -1.2897228    2.3435587    0.5405381  0.00   -0.0659396    0.0110704   -0.0344019
o    -2.6874751    3.8151051   -0.6678889  0.00   -0.0258579   -0.0552938   -0.0392205
h    -2.3002779    4.5920206   -0.1004160  0.00    0.0006054    0.0304758    0.0383177
    13
 Energy =       0.0648414760
c    -3.7133152    1.7502797    0.3187672  0.00   -0.0213129    0.0203009    0.0049669
c    -2.4967638    2.6372464    0.0456597  0.00    0.0703841   -0.0013207    0.0265062
c    -5.0213067    2.4436107   -0.1122175  0.00    0.0086577    0.0042688    0.0005686
h    -5.1273150    3.4309935    0.3986061  0.00   -0.0003553    0.0048578    0.0021001
h    -5.9020857    1.8178836    0.1501182  0.00   -0.0012686   -0.0001048    0.0008119
h    -5.0094472    2.6306197   -1.2141220  0.00    0.0006718    0.0014037   -0.0047391
n    -3.5900052    0.4093233   -0.3219784  0.00    0.0070884   -0.0197212   -0.0066695
h    -3.7257756    1.6094292    1.4281773  0.00   -0.0001840   -0.0007365    0.0041085
h    -4.4493713    0.1574177   -0.8607913  0.00    0.0017593    0.0037081    0.0012489
h    -2.7964952    0.3855083   -1.0106392  0.00    0.0020579   -0.0010259   -0.0014206
o    -1.2571773    2.2783048    0.4645385  0.00   -0.0481080    0.0073990   -0.0261440
o    -2.6673824    3.8004295   -0.6828219  0.00   -0.0241736   -0.0500045   -0.0367453
h    -2.1777456    4.5532408   -0.1657453  0.00    0.0047831    0.0309752    0.0354072
    13
 Energy =       0.0642271021
c    -3.7057457    1.7539967    0.3258571  0.00   -0.0183055    0.0194185    0.0065612
c    -2.4671796    2.5880327   -0.0204667  0.00    0.0604942   -0.0014784    0.0236995
c    -5.0118559    2.5031936   -0.0207870  0.00    0.0048253    0.0033707    0.0004276
h    -5.0469108    3.4917135    0.5008645  0.00   -0.0005477    0.0062388    0.0033422
h    -5.9018409    1.9113307    0.2911010  0.00   -0.0029663   -0.0005485    0.0009748
h    -5.0591961    2.6942717   -1.1220702  0.00    0.0003532    0.0010493   -0.0059179
n    -3.6800058    0.4097260   -0.3226721  0.00    0.0074788   -0.0203858   -0.0047429
h    -3.6557213    1.6118204    1.4353443  0.00   -0.0000188    0.0000427    0.0055736
h    -4.5789170    0.1985602   -0.8181089  0.00   -0.0019294    0.0018580   -0.0009952
h    -2.9224083    0.3485935   -1.0512066  0.00    0.0041798   -0.0016645   -0.0037718
o    -1.2205783    2.1856862    0.3549487  0.00   -0.0387789    0.0065542   -0.0228124
o    -2.6126188    3.7296311   -0.7907542  0.00   -0.0207057   -0.0445932   -0.0348293
h    -2.0712078    4.4777306   -0.3244984  0.00    0.0059210    0.0301382    0.0324906
    13
 Energy =       0.0626870997
c    -3.7185141    1.7445307    0.3102434  0.00   -0.0169622    0.0175225    0.0071510
c    -2.4869833    2.6166011    0.0306469  0.00    0.0569882   -0.0052374    0.0247554
c    -5.0309180    2.4658878   -0.0715360  0.00    0.0037257    0.0026603    0.0005135
h    -5.1070481    3.4460963    0.4622572  0.00   -0.0005471    0.0064543    0.0036038
h    -5.9168519    1.8481950    0.2018888  0.00   -0.0036531   -0.0009226    0.0011021
h    -5.0448067    2.6723821   -1.1708885  0.00    0.0003705    0.0009237   -0.0061088
n    -3.6372468    0.4129898   -0.3606154  0.00    0.0067443   -0.0197100   -0.0024557
h    -3.7072310    1.5834782    1.4185079  0.00   -0.0001009    0.0002624    0.0060229
h    -4.5074454    0.1930135   -0.9042538  0.00   -0.0037935    0.0008277   -0.0023600
h    -2.8421634    0.3774155   -1.0518275  0.00    0.0058635   -0.0018130   -0.0053609
o    -1.2368190    2.1977718    0.3856291  0.00   -0.0352326    0.0053283   -0.0205824
o    -2.6404151    3.8199340   -0.6467553  0.00   -0.0205626   -0.0356435   -0.0377506
h    -2.0577438    4.5259912   -0.1657453  0.00    0.0071596    0.0293474    0.0314697
    13
 Energy =       0.0607222758
c    -3.7257054    1.7381420    0.2944667  0.00   -0.0133187    0.0133614    0.0064185
c    -2.5074410    2.6418058    0.0570968  0.00    0.0456965   -0.0101098    0.0247040
c    -5.0473066    2.4335570   -0.1022661  0.00    0.0025070    0.0018283    0.0004253
h    -5.1555132    3.4034229    0.4436272  0.00   -0.0004425    0.0057730    0.0032014
h    -5.9234722    1.7917963    0.1454644  0.00   -0.0035005   -0.0009781    0.0010091
h    -5.0449730    2.6572200   -1.1971983  0.00    0.0004244    0.0007859   -0.0052227
n    -3.6056438    0.4190400   -0.3915070  0.00    0.0053619   -0.0165395   -0.0010511
h    -3.7336150    1.5613534    1.3993844  0.00   -0.0001481    0.0003161    0.0051426
h    -4.4537326    0.1926244   -0.9671313  0.00   -0.0040422    0.0002459   -0.0026574
h    -2.7866165    0.4021110   -1.0547145  0.00    0.0057674   -0.0015568   -0.0051802
o    -1.2386388    2.1865400    0.3233917  0.00   -0.0238653   -0.0005695   -0.0149594
o    -2.6869897    3.9158909   -0.4880022  0.00   -0.0257349   -0.0202171   -0.0424076
h    -2.0245387    4.5607835   -0.0250604  0.00    0.0112951    0.0276602    0.0305775
    13
 Energy =       0.0613502745
c    -3.7099778    1.7449454    0.2981545  0.00   -0.0134946    0.0133450    0.0060923
c    -2.5062489    2.6571801    0.0154639  0.00    0.0393751   -0.0086255    0.0241612
c    -5.0476656    2.4195790   -0.0814460  0.00    0.0023294    0.0019277    0.0004380
h    -5.1566727    3.3947117    0.4547782  0.00   -0.0003862    0.0057081    0.0031597
h    -5.9119641    1.7714482    0.1913143  0.00   -0.0037230   -0.0011903    0.0010655
h    -5.0689172    2.6299554   -1.1789580  0.00    0.0003721    0.0008637   -0.0054532
n    -3.5928052    0.4152912   -0.3676262  0.00    0.0056994   -0.0160650    0.0014503
h    -3.6908790    1.5873904    1.4061054  0.00   -0.0000651    0.0002008    0.0055402
h    -4.4631335    0.1574120   -0.8979128  0.00   -0.0063033   -0.0005044   -0.0040029
h    -2.8047545    0.4040263   -1.0691490  0.00    0.0072253   -0.0012969   -0.0062720
o    -1.2171464    2.1872575    0.1646385  0.00   -0.0151080   -0.0041248   -0.0134574
o    -2.7212327    3.9496343   -0.4743149  0.00   -0.0273035   -0.0173053   -0.0429884
h    -2.0427888    4.5854556   -0.0234965  0.00    0.0113824    0.0270669    0.0302667
    13
 Energy =       0.0590639754
c    -3.7208960    1.7341528    0.2900943  0.00   -0.0128067    0.0126816    0.0053027
c    -2.5231122    2.6674813    0.0584130  0.00    0.0280150   -0.0053237    0.0194300
c    -5.0599980    2.4028375   -0.0925637  0.00    0.0022550    0.0018861    0.0005218
h    -5.1865902    3.3641598    0.4637114  0.00   -0.0003468    0.0054225    0.0030165
h    -5.9197194    1.7379330    0.1532323  0.00   -0.0036757   -0.0013398    0.0010927
h    -5.0688718    2.6380812   -1.1849251  0.00    0.0003716    0.0008156   -0.0052129
n    -3.5777407    0.4240365   -0.4075914  0.00    0.0054480   -0.0142866    0.0069968
h    -3.7199274    1.5468284    1.3936717  0.00   -0.0001106    0.0001669    0.0054969
h    -4.4125053    0.1971081   -1.0105080  0.00   -0.0101858   -0.0022207   -0.0070271
h    -2.7383510    0.4192642   -1.0504994  0.00    0.0103133   -0.0008985   -0.0085140
o    -1.2326331    2.2370176    0.3233917  0.00   -0.0046668   -0.0060785   -0.0098916
o    -2.7342186    3.9492864   -0.4589295  0.00   -0.0254492   -0.0153695   -0.0382289
h    -2.0396226    4.5861001   -0.0399460  0.00    0.0108386    0.0245446    0.0270171
    13
 Energy =       0.0553260170
c    -3.7240272    1.7198510    0.2792086  0.00   -0.0085065    0.0089796    0.0031645
c    -2.5580388    2.6998889    0.0950936  0.00    0.0084092   -0.0006132    0.0074545
c    -5.0851454    2.3578835   -0.0727895  0.00    0.0015771    0.0022951    0.0008073
h    -5.2431101    3.2898417    0.5224042  0.00   -0.0005523    0.0047020    0.0024815
h    -5.9188781    1.6515384    0.1453731  0.00   -0.0033143   -0.0017114    0.0012456
h    -5.1048243    2.6389619   -1.1531223  0.00    0.0004784    0.0008180   -0.0042412
n    -3.5417283    0.4448908   -0.4677434  0.00    0.0038757   -0.0098123    0.0151552
h    -3.7189529    1.4866283    1.3731864  0.00   -0.0003609   -0.0000988    0.0043505
h    -4.3184387    0.2657701   -1.1640716  0.00   -0.0141901   -0.0049487   -0.0118618
h    -2.6402843    0.4497044   -1.0243593  0.00    0.0137786   -0.0000045   -0.0101811
o    -1.2683698    2.3394064    0.4821448  0.00    0.0083243   -0.0058780   -0.0020925
o    -2.7841424    3.9669778   -0.4450408  0.00   -0.0246872   -0.0153315   -0.0266107
h    -2.0282461    4.5929437   -0.1327322  0.00    0.0151679    0.0216035    0.0203283
    13
 Energy =       0.0541134228
c    -3.7444462    1.7142265    0.2738961  0.00   -0.0069773    0.0062639    0.0017026
c    -2.5648898    2.6934194    0.1821846  0.00    0.0055938    0.0006244    0.0048494
c    -5.0819668    2.3640979   -0.1457028  0.00   -0.0001033    0.0016067    0.0009332
h    -5.2656029    3.2898626    0.4498807  0.00   -0.0004727    0.0035417    0.0021337
h    -5.9313593    1.6623654    0.0220742  0.00   -0.0035352   -0.0018710    0.0011291
h    -5.0428130    2.6555035   -1.2231703  0.00    0.0003031    0.0009325   -0.0047343
n    -3.5210199    0.4583379   -0.4910601  0.00    0.0014800   -0.0083915    0.0131110
h    -3.8043647    1.4557502    1.3616432  0.00   -0.0003584   -0.0003318    0.0054405
h    -4.3161727    0.2369306   -1.1510127  0.00   -0.0124175   -0.0035309   -0.0100682
h    -2.6459823    0.5174104   -1.0842201  0.00    0.0133654   -0.0002074   -0.0092070
o    -1.3018770    2.3198618    0.6408979  0.00    0.0096254   -0.0044818   -0.0004780
o    -2.7498563    3.9722895   -0.3437016  0.00   -0.0186001   -0.0108698   -0.0197716
h    -1.9638356    4.5642313   -0.0541576  0.00    0.0120970    0.0167150    0.0149598
    13
 Energy =       0.0524591397
c    -3.7397763    1.7066234    0.2762746  0.00   -0.0024098    0.0033117    0.0005738
c    -2.5815115    2.7048949    0.1931301  0.00    0.0001368   -0.0013725    0.0012851
c    -5.0954950    2.3463572   -0.0910345  0.00   -0.0005140    0.0009342    0.0009089
h    -5.2867278    3.2417597    0.5446485  0.00   -0.0005341    0.0024386    0.0013164
h    -5.9250044    1.6203036    0.0603076  0.00   -0.0017447   -0.0010809    0.0007444
h    -5.0819167    2.6828841   -1.1544868  0.00    0.0002911    0.0007700   -0.0030968
n    -3.5131900    0.4834904   -0.5334333  0.00    0.0019217   -0.0040841    0.0062736
h    -3.7723770    1.4094062    1.3533056  0.00   -0.0002845   -0.0003878    0.0031230
h    -4.2866901    0.3008904   -1.2229491  0.00   -0.0061444   -0.0027356   -0.0052600
h    -2.6249706    0.5528847   -1.0954482  0.00    0.0057013    0.0001283   -0.0042066
o    -1.3355147    2.3710005    0.7209770  0.00    0.0071206   -0.0038210    0.0014114
o    -2.7577041    3.9544184   -0.4008294  0.00   -0.0147664   -0.0067306   -0.0110361
h    -1.9333083    4.5293737   -0.2129107  0.00    0.0112266    0.0126297    0.0079629
    13
 Energy =       0.0517199285
c    -3.7357763    1.6906390    0.2741227  0.00   -0.0023549    0.0045748    0.0003703
c    -2.5849771    2.6972083    0.2319562  0.00   -0.0043370   -0.0040318    0.0019277
c    -5.0966035    2.3474600   -0.0373920  0.00   -0.0006568    0.0000425    0.0007466
h    -5.2798570    3.2064879    0.6487455  0.00   -0.0005086    0.0024607    0.0014579
h    -5.9216278    1.6122050    0.0853692  0.00   -0.0008348   -0.0008432    0.0004330
h    -5.0997651    2.7403645   -1.0815543  0.00    0.0000568    0.0009346   -0.0028739
n    -3.5147417    0.5198753   -0.6118732  0.00   -0.0003953   -0.0053359    0.0035155
h    -3.7525774    1.3283952    1.3320483  0.00   -0.0000687   -0.0008418    0.0033731
h    -4.3145157    0.3536839   -1.2715143  0.00   -0.0032739   -0.0012164   -0.0031727
h    -2.6589806    0.6453338   -1.2131229  0.00    0.0057610   -0.0006478   -0.0046198
o    -1.3813255    2.4067367    0.8797301  0.00    0.0118615   -0.0062733    0.0060223
o    -2.7148548    3.8981100   -0.4725706  0.00   -0.0102180    0.0045607   -0.0101947
h    -1.8785839    4.4577874   -0.3263933  0.00    0.0049687    0.0066170    0.0030147
    13
 Energy =       0.0510938301
c    -3.7220754    1.6745102    0.2658333  0.00    0.0005834    0.0038116    0.0013968
c    -2.5790668    2.6868677    0.2245919  0.00   -0.0024817   -0.0030541    0.0016489
c    -5.0976552    2.3459525    0.0591117  0.00   -0.0028128   -0.0003211    0.0011838
h    -5.2529181    3.1581362    0.8074986  0.00   -0.0009849    0.0029143    0.0022336
h    -5.9142544    1.6007642    0.1710794  0.00   -0.0002479   -0.0003038    0.0003065
h    -5.1497504    2.8037621   -0.9582793  0.00   -0.0003164    0.0015520   -0.0037818
n    -3.5411461    0.5607315   -0.6998136  0.00    0.0020526   -0.0050162    0.0001826
h    -3.6875903    1.2492515    1.3004460  0.00    0.0002184   -0.0011733    0.0039074
h    -4.3662715    0.4381492   -1.3361565  0.00   -0.0019993   -0.0011978   -0.0028440
h    -2.7141270    0.7251534   -1.3276366  0.00    0.0027596   -0.0007617   -0.0027711
o    -1.4068131    2.4402709    0.9362266  0.00    0.0056127   -0.0035966    0.0030242
o    -2.6759537    3.8389665   -0.5566963  0.00   -0.0041946    0.0044997   -0.0050173
h    -1.8265643    4.3817713   -0.4486538  0.00    0.0018108    0.0026471    0.0005304
    13
 Energy =       0.0506815863
c    -3.7127617    1.6638427    0.2600488  0.00    0.0010432    0.0021863    0.0008610
c    -2.5778935    2.6835310    0.2131796  0.00   -0.0056270   -0.0047836    0.0016076
c    -5.0945397    2.3398456    0.1360107  0.00   -0.0022906   -0.0001986    0.0009656
h    -5.2249902    3.1125561    0.9280295  0.00   -0.0007343    0.0020148    0.0016340
h    -5.9050531    1.5870678    0.2399709  0.00   -0.0001077   -0.0001417    0.0001987
h    -5.1839597    2.8446325   -0.8552815  0.00   -0.0002737    0.0011589   -0.0026684
n    -3.5692591    0.5941884   -0.7583204  0.00    0.0028356   -0.0031121   -0.0005304
h    -3.6378711    1.1952020    1.2724922  0.00    0.0001387   -0.0008277    0.0026537
h    -4.4047570    0.5210437   -1.3881701  0.00   -0.0016834   -0.0010193   -0.0023291
h    -2.7516909    0.7765564   -1.3910383  0.00    0.0006954   -0.0003124   -0.0009277
o    -1.4561750    2.5150508    1.0291462  0.00    0.0100899   -0.0055106    0.0084897
o    -2.6290638    3.7601153   -0.6779991  0.00   -0.0046163    0.0098775   -0.0101588
h    -1.7861715    4.3106547   -0.5705171  0.00    0.0005301    0.0006686    0.0002042
    13
 Energy =       0.0502511509
c    -3.6970661    1.6440171    0.2383218  0.00    0.0018718    0.0031919    0.0022676
c    -2.5669367    2.6678880    0.1898496  0.00   -0.0021501   -0.0000173   -0.0003158
c    -5.0812945    2.3292943    0.2345397  0.00   -0.0032457   -0.0005210    0.0011378
h    -5.1682689    3.0440114    1.0867826  0.00   -0.0009355    0.0028073    0.0030681
h    -5.8878227    1.5708449    0.3277077  0.00   -0.0000707   -0.0001441    0.0001823
h    -5.2214944    2.9019361   -0.7147292  0.00   -0.0007906    0.0021046   -0.0037468
n    -3.6144343    0.6411714   -0.8547603  0.00    0.0038251   -0.0050048   -0.0013554
h    -3.5668952    1.1110360    1.2142244  0.00    0.0005645   -0.0016117    0.0037989
h    -4.4779618    0.6236261   -1.4511462  0.00   -0.0027114   -0.0008806   -0.0033244
h    -2.8251933    0.8579838   -1.5132841  0.00    0.0011621   -0.0003530   -0.0021882
o    -1.4850410    2.5562449    1.0592020  0.00    0.0037950   -0.0018720    0.0025814
o    -2.5886451    3.6981102   -0.7460832  0.00   -0.0015074    0.0022808   -0.0022280
h    -1.7531324    4.2581229   -0.6330734  0.00    0.0001928    0.0000199    0.0001226
    13
 Energy =       0.0500157124
c    -3.6945499    1.6418635    0.2358853  0.00    0.0010509    0.0013493    0.0011947
c    -2.5662606    2.6668188    0.1798744  0.00   -0.0053980   -0.0021526   -0.0011514
c    -5.0748216    2.3282388    0.2676846  0.00   -0.0016127   -0.0002120    0.0005251
h    -5.1452484    3.0258319    1.1329505  0.00   -0.0004721    0.0013555    0.0014525
h    -5.8815673    1.5700131    0.3607763  0.00   -0.0000351   -0.0000553    0.0000768
h    -5.2291843    2.9165408   -0.6672729  0.00   -0.0003334    0.0009685   -0.0018031
n    -3.6354351    0.6565615   -0.8714653  0.00    0.0019976   -0.0023720   -0.0006268
h    -3.5476299    1.0947622    1.1993119  0.00    0.0001807   -0.0007529    0.0018349
h    -4.5061573    0.6561421   -1.4554118  0.00   -0.0013596   -0.0004346   -0.0016302
h    -2.8549318    0.8801213   -1.5372267  0.00    0.0005298   -0.0001200   -0.0009785
o    -1.5429515    2.6338408    1.1297036  0.00    0.0081232   -0.0031971    0.0088640
o    -2.5392034    3.6285909   -0.8307860  0.00   -0.0032711    0.0055018   -0.0081471
h    -1.7162453    4.2049614   -0.7064726  0.00    0.0005999    0.0001213    0.0003891
    13
 Energy =       0.0497590599
c    -3.6810418    1.6239187    0.2089339  0.00    0.0023896    0.0027710    0.0028271
c    -2.5492667    2.6442509    0.1462268  0.00   -0.0009164    0.0006030   -0.0008586
c    -5.0502486    2.3196768    0.3672470  0.00   -0.0033400   -0.0003533    0.0009005
h    -5.0609409    2.9609687    1.2799871  0.00   -0.0005162    0.0022239    0.0031950
h    -5.8587723    1.5634231    0.4611125  0.00   -0.0001522    0.0000363    0.0000701
h    -5.2549573    2.9671245   -0.5194138  0.00   -0.0010191    0.0020007   -0.0029567
n    -3.7003005    0.7070213   -0.9601430  0.00    0.0034738   -0.0049565   -0.0014133
h    -3.4801081    1.0168965    1.1276063  0.00    0.0009373   -0.0016878    0.0032619
h    -4.6044510    0.7540598   -1.4916646  0.00   -0.0035302   -0.0002989   -0.0032417
h    -2.9577853    0.9645473   -1.6582140  0.00    0.0014373   -0.0000871   -0.0027606
o    -1.5746681    2.6706784    1.1386662  0.00    0.0018463   -0.0007385    0.0015655
o    -2.4874308    3.5617659   -0.8968958  0.00   -0.0007547    0.0004492   -0.0006487
h    -1.6742151    4.1499552   -0.7658970  0.00    0.0001447    0.0000381    0.0000596
    13
 Energy =       0.0496400099
c    -3.6830133    1.6250000    0.2073879  0.00    0.0010041    0.0011227    0.0013087
c    -2.5498090    2.6436958    0.1441914  0.00   -0.0033145   -0.0014263   -0.0017363
c    -5.0469816    2.3215913    0.3775276  0.00   -0.0013610   -0.0001126    0.0003546
h    -5.0495400    2.9565883    1.2922378  0.00   -0.0002238    0.0009181    0.0013060
h    -5.8567983    1.5668603    0.4727654  0.00   -0.0000617    0.0000120    0.0000235
h    -5.2549745    2.9732004   -0.5026964  0.00   -0.0003872    0.0008028   -0.0012278
n    -3.7126586    0.7151315   -0.9637246  0.00    0.0014675   -0.0020616   -0.0005727
h    -3.4786625    1.0132301    1.1196477  0.00    0.0003383   -0.0007151    0.0013364
h    -4.6190569    0.7663471   -1.4878241  0.00   -0.0014477   -0.0001210   -0.0013404
h    -2.9749041    0.9758529   -1.6643607  0.00    0.0006046    0.0000462   -0.0011002
o    -1.6348013    2.7380186    1.1921937  0.00    0.0047054   -0.0011237    0.0067622
o    -2.4374174    3.5037547   -0.9461705  0.00   -0.0017548    0.0025198   -0.0054129
h    -1.6355690    4.1050161   -0.8036238  0.00    0.0004307    0.0001385    0.0002989
    13
 Energy =       0.0495585099
c    -3.6786423    1.6183549    0.1916947  0.00    0.0000672    0.0001468    0.0000924
c    -2.5419292    2.6333798    0.1275059  0.00    0.0009375    0.0005930    0.0003703
c    -5.0315520    2.3151879    0.4219072  0.00   -0.0001380    0.0000006    0.0000158
h    -5.0024506    2.9228874    1.3530549  0.00   -0.0000210    0.0000933    0.0001373
h    -5.8423894    1.5619664    0.5205156  0.00   -0.0000251    0.0000098    0.0000023
h    -5.2619932    2.9919140   -0.4316552  0.00   -0.0000473    0.0000677   -0.0001291
n    -3.7481770    0.7432837   -1.0020624  0.00    0.0000885   -0.0003078    0.0001918
h    -3.4516849    0.9796725    1.0782027  0.00    0.0000569   -0.0000634    0.0001392
h    -4.6707134    0.8090675   -1.4934452  0.00   -0.0002569    0.0000202   -0.0001762
h    -3.0334988    1.0237626   -1.7182318  0.00    0.0002461    0.0000195   -0.0003300
o    -1.6622883    2.7644522    1.1939869  0.00   -0.0011090    0.0001370   -0.0019965
o    -2.4021922    3.4662326   -0.9757622  0.00    0.0003149   -0.0006682    0.0017709
h    -1.6066751    4.0741255   -0.8281595  0.00   -0.0001138   -0.0000486   -0.0000882
    13
 Energy =       0.0495541219
c    -3.6730715    1.6127541    0.1811950  0.00    0.0002527    0.0002952    0.0002447
c    -2.5379276    2.6295238    0.1159967  0.00    0.0002140    0.0000886    0.0001288
c    -5.0216590    2.3044488    0.4510208  0.00   -0.0003760   -0.0000416    0.0001813
h    -4.9749549    2.8934509    1.3936983  0.00   -0.0000439    0.0002114    0.0003630
h    -5.8303008    1.5489319    0.5501289  0.00   -0.0000239    0.0000032    0.0000255
h    -5.2686405    2.9980538   -0.3845280  0.00   -0.0001380    0.0002764   -0.0003434
n    -3.7650952    0.7614035   -1.0284679  0.00    0.0002996   -0.0005675   -0.0000991
h    -3.4291167    0.9565291    1.0505594  0.00    0.0001355   -0.0002408    0.0003778
h    -4.6970013    0.8362295   -1.5007284  0.00   -0.0004117    0.0000018   -0.0003241
h    -3.0644619    1.0565481   -1.7526489  0.00    0.0002470    0.0000223   -0.0004355
o    -1.6504041    2.7532974    1.1781780  0.00   -0.0001716    0.0000023   -0.0003254
o    -2.4086357    3.4726076   -0.9818579  0.00    0.0000359   -0.0000433    0.0002245
h    -1.6129171    4.0805084   -0.8349945  0.00   -0.0000198   -0.0000080   -0.0000182
    13
 Energy =       0.0495525963
c    -3.6738557    1.6136854    0.1819481  0.00    0.0000257    0.0000326    0.0000270
c    -2.5389420    2.6308131    0.1176292  0.00   -0.0000563   -0.0000505   -0.0000259
c    -5.0227268    2.3049147    0.4485493  0.00   -0.0000400   -0.0000038    0.0000194
h    -4.9775864    2.8950469    1.3902058  0.00   -0.0000037    0.0000216    0.0000385
h    -5.8312267    1.5492195    0.5474205  0.00   -0.0000024    0.0000003    0.0000026
h    -5.2685434    2.9970855   -0.3880063  0.00   -0.0000146    0.0000292   -0.0000354
n    -3.7637736    0.7607274   -1.0262279  0.00    0.0000322   -0.0000606   -0.0000133
h    -3.4312665    0.9588893    1.0522728  0.00    0.0000144   -0.0000264    0.0000389
h    -4.6948130    0.8342256   -1.4998161  0.00   -0.0000444    0.0000010   -0.0000337
h    -3.0622927    1.0552389   -1.7494964  0.00    0.0000255    0.0000050   -0.0000445
o    -1.6625883    2.7664866    1.1879968  0.00    0.0000906   -0.0000102    0.0001569
o    -2.4000022    3.4637857   -0.9869914  0.00   -0.0000380    0.0000571   -0.0001386
h    -1.6065691    4.0741686   -0.8379330  0.00    0.0000110    0.0000045    0.0000083
    13
 Energy =       0.0495525692
c    -3.6738765    1.6137071    0.1819446  0.00    0.0000000   -0.0000000    0.0000000
c    -2.5389531    2.6308245    0.1176143  0.00   -0.0000000   -0.0000000   -0.0000000
c    -5.0227055    2.3049038    0.4485014  0.00    0.0000000   -0.0000000    0.0000000
h    -4.9775639    2.8950463    1.3901029  0.00    0.0000000   -0.0000000    0.0000000
h    -5.8312085    1.5492131    0.5473750  0.00    0.0000000   -0.0000000    0.0000000
h    -5.2684874    2.9970377   -0.3880362  0.00   -0.0000000    0.0000000    0.0000000
n    -3.7638020    0.7607315   -1.0261552  0.00   -0.0000000    0.0000000   -0.0000000
h    -3.4313224    0.9589544    1.0522542  0.00    0.0000000   -0.0000000   -0.0000000
h    -4.6948059    0.8342105   -1.4997474  0.00   -0.0000000    0.0000000    0.0000000
h    -3.0623063    1.0552084   -1.7493817  0.00   -0.0000000    0.0000000   -0.0000000
o    -1.6624742    2.7663366    1.1877706  0.00    0.0000000    0.0000000    0.0000000
o    -2.4000762    3.4638896   -0.9868489  0.00    0.0000000   -0.0000000   -0.0000000
h    -1.6066043    4.0742235   -0.8378421  0.00    0.0000000    0.0000000    0.0000000
    13
 Energy =       0.0495525692
c    -3.6738766    1.6137072    0.1819451  0.00   -0.0000000    0.0000000   -0.0000000
c    -2.5389529    2.6308241    0.1176142  0.00   -0.0000000   -0.0000000   -0.0000000
c    -5.0227056    2.3049045    0.4485003  0.00   -0.0000000    0.0000000    0.0000000
h    -4.9775645    2.8950479    1.3901013  0.00   -0.0000000    0.0000000    0.0000000
h    -5.8312089    1.5492143    0.5473740  0.00   -0.0000000   -0.0000000    0.0000000
h    -5.2684867    2.9970377   -0.3880381  0.00   -0.0000000    0.0000000   -0.0000000
n    -3.7638017    0.7607304   -1.0261540  0.00    0.0000000   -0.0000000    0.0000000
h    -3.4313233    0.9589553    1.0522555  0.00   -0.0000000   -0.0000000    0.0000000
h    -4.6948051    0.8342095   -1.4997470  0.00   -0.0000000    0.0000000   -0.0000000