13
UFF-Energy = 0.0393986
C    -5.1163630    2.2757867    0.6945539 
C    -4.0875559    1.5202124   -0.1643710 
H    -5.2121148    3.3276963    0.3448804 
H    -4.7930199    2.2935016    1.7591536 
H    -6.1148724    1.7942195    0.6270853 
C    -2.7312410    2.2079222   -0.1463484 
N    -3.9929250    0.1267876    0.2974120 
H    -4.4108257    1.5310280   -1.2328492 
H    -3.6143141    0.1097148    1.2765886 
H    -4.9427066   -0.3124308    0.3170747 
O    -2.2753223    2.8797937   -1.2741448 
O    -1.9613926    2.2233979    1.0107949 
H    -1.1056667    2.7275240    0.8180104 
