13
UFF-Energy = 0.0768423
C    -4.9078494    2.6518841    0.5781912 
C    -4.1703150    1.4921181   -0.1024863 
H    -4.7850165    3.5957416    0.0046900 
H    -4.5031395    2.8007732    1.6058556 
H    -5.9923784    2.4267086    0.6618769 
C    -2.6936144    1.8146764   -0.3103333 
N    -4.3593400    0.2899416    0.7227258 
H    -4.5953310    1.3256272   -1.1213712 
H    -5.3638195   -0.0039604    0.6864682 
H    -3.8036657   -0.5032357    0.3208919 
O    -1.8317116    1.9424622    0.7710532 
O    -2.2069253    2.0411078   -1.5917480 
H    -2.4740236    2.9688237   -1.8856518 
