13
UFF-Energy = 0.0701836
C    -5.2723500    2.3091379    0.5541355 
C    -4.1067893    1.5659994   -0.1208651 
H    -5.4205820    3.3065073    0.0847744 
H    -5.0631829    2.4635622    1.6372037 
H    -6.2195083    1.7359785    0.4543680 
C    -2.8030387    2.3657133   -0.0345394 
N    -3.9687217    0.2323934    0.4848267 
H    -4.3276876    1.4378116   -1.2060856 
H    -3.7257713    0.3228014    1.5024687 
H    -4.8737554   -0.2912778    0.4249075 
O    -2.0497694    2.3307292    1.1335863 
O    -2.3873135    3.1997276   -1.0738672 
H    -3.0374697    3.2114100   -1.8441432 
