13
UFF-Energy = 0.0358799
C    -5.0599405    2.1152512   -0.5698373 
C    -3.9185968    1.3152177    0.0691872 
H    -4.7201669    2.5963423   -1.5125478 
H    -5.3942957    2.9132101    0.1300602 
H    -5.9225928    1.4538216   -0.7936175 
C    -2.6759292    2.1669289    0.3121454 
N    -4.4220468    0.7218072    1.3169409 
H    -3.5990490    0.5108349   -0.6343162 
H    -5.1083027   -0.0332510    1.0833928 
H    -3.6277683    0.2474097    1.8136714 
O    -2.7065259    3.5520575    0.1807025 
O    -1.4834510    1.5504691    0.6671465 
H    -0.7791543    2.2662199    0.7945784 
