13
UFF-Energy = 0.0705302
C    -5.3284474    2.2360355    0.5781641 
C    -4.1244161    1.6346572   -0.1677870 
H    -5.5682158    3.2466678    0.1788572 
H    -5.0993232    2.3374836    1.6625374 
H    -6.2228509    1.5885808    0.4538676 
C    -2.9098836    2.5536362   -0.0807780 
N    -3.8525215    0.2611634    0.3169257 
H    -4.3788159    1.5784936   -1.2524151 
H    -2.8681360    0.1689565    0.6703715 
H    -4.4577428   -0.0010071    1.1309790 
O    -2.2583456    2.7434708    1.1304787 
O    -2.4521437    3.2180258   -1.2096437 
H    -1.8964773    2.5811349   -1.7619572 
