    13
 Energy =       0.1156001786
c    -3.7133889    1.6950595    0.3173519  0.00   -0.1112960    0.0557307    0.0070051
c    -2.4962693    2.6345192    0.2419999  0.00    0.3742242   -0.0424210    0.0882680
c    -4.9565486    2.3924193   -0.2155699  0.00    0.0518745    0.0293938    0.0025059
h    -5.8072983    1.7014095   -0.2223689  0.00    0.0128971    0.0087657   -0.0034128
h    -4.8071186    2.7393792   -1.2437896  0.00    0.0008861   -0.0040938    0.0179741
h    -5.2375685    3.2516891    0.4029209  0.00   -0.0014710   -0.0157296   -0.0112468
n    -3.4097890    0.4519539   -0.4549189  0.00    0.0436716   -0.0409962   -0.0483590
h    -3.8575589    1.4177196    1.3669296  0.00   -0.0011089   -0.0030228   -0.0229733
h    -4.2340588    0.2238779   -1.0206697  0.00    0.0219284    0.0314756    0.0208925
h    -2.6878492    0.6694128   -1.1486897  0.00   -0.0287833    0.0096648    0.0336266
o    -1.4040496    2.4172293    0.7380088  0.00   -0.2649480    0.0527230   -0.1122229
o    -2.7835192    3.7545589   -0.4737969  0.00   -0.0702900   -0.0620378    0.0036689
h    -2.2118794    3.7013989   -1.2803496  0.00   -0.0275845   -0.0194526    0.0242737
    13
 Energy =       0.0823875644
c    -3.6777041    1.6876232    0.2837929  0.00   -0.0366789    0.0197817    0.0013901
c    -2.5181268    2.6731928    0.2141911  0.00    0.1352340   -0.0219530    0.0225815
c    -4.9802659    2.3593619   -0.1632844  0.00    0.0243289    0.0150282   -0.0005111
h    -5.8322015    1.6540479   -0.0779371  0.00    0.0013071    0.0009360   -0.0001906
h    -4.8961146    2.7083683   -1.2111253  0.00    0.0030733    0.0003442    0.0051097
h    -5.2006877    3.2413518    0.4714212  0.00    0.0001038   -0.0042155   -0.0025944
n    -3.4048352    0.4699354   -0.5205287  0.00    0.0150877   -0.0165361   -0.0144784
h    -3.7579449    1.3916411    1.3509509  0.00   -0.0001550   -0.0015931   -0.0061063
h    -4.2356124    0.2074350   -1.0885059  0.00    0.0073489    0.0116798    0.0066056
h    -2.6381567    0.6497426   -1.2018112  0.00   -0.0080521    0.0047729    0.0113177
o    -1.3450193    2.4157607    0.7770790  0.00   -0.0962287    0.0179521   -0.0385108
o    -2.7495948    3.8671018   -0.4363350  0.00   -0.0568904   -0.0021074    0.0565732
h    -2.3706325    3.7250647   -1.3908496  0.00    0.0115214   -0.0240898   -0.0411862
    13
 Energy =       0.0754812222
c    -3.6762349    1.6603873    0.2511705  0.00   -0.0184442    0.0114174    0.0015323
c    -2.5609141    2.7023701    0.2469225  0.00    0.0637952   -0.0095274    0.0071996
c    -5.0237145    2.2936080   -0.1345813  0.00    0.0121745    0.0091837    0.0007233
h    -5.8395188    1.5403135   -0.0739821  0.00   -0.0007921   -0.0010604    0.0005608
h    -4.9736822    2.7072796   -1.1662697  0.00    0.0023007    0.0017536    0.0000676
h    -5.2723869    3.1322495    0.5542278  0.00   -0.0010179    0.0000902    0.0002368
n    -3.3666464    0.5051680   -0.6322242  0.00    0.0073485   -0.0139514   -0.0062249
h    -3.7327171    1.2920384    1.3031522  0.00   -0.0008803   -0.0021640   -0.0001492
h    -4.1736541    0.2531081   -1.2472590  0.00    0.0027808    0.0037086    0.0004045
h    -2.5720373    0.7310291   -1.2762359  0.00   -0.0008951    0.0032232    0.0029806
o    -1.3728586    2.4619452    0.8630188  0.00   -0.0440590    0.0094465   -0.0158343
o    -2.7764028    3.9114880   -0.3911341  0.00   -0.0352426    0.0026036    0.0486195
h    -2.2661287    3.8596426   -1.2897476  0.00    0.0129316   -0.0147235   -0.0401166
    13
 Energy =       0.0737884829
c    -3.7045026    1.6729672    0.2559890  0.00   -0.0127860    0.0107615    0.0038147
c    -2.6073306    2.7351136    0.2946776  0.00    0.0450500   -0.0066640    0.0030547
c    -5.0415105    2.2617132   -0.2420587  0.00    0.0053463    0.0059211   -0.0003403
h    -5.8452925    1.4942379   -0.2017659  0.00   -0.0011809   -0.0007894    0.0002280
h    -4.9343055    2.6319784   -1.2881874  0.00    0.0015367    0.0018652   -0.0026028
h    -5.3499149    3.1246539    0.3954747  0.00   -0.0020076    0.0024557    0.0021664
n    -3.3172770    0.4932885   -0.5660553  0.00    0.0076190   -0.0133784   -0.0013349
h    -3.8241341    1.3409604    1.3170915  0.00   -0.0006736   -0.0017116    0.0026426
h    -4.0724833    0.2098324   -1.2371693  0.00   -0.0016195    0.0009363   -0.0036366
h    -2.4681352    0.6976086   -1.1509638  0.00    0.0037382    0.0021717   -0.0017042
o    -1.4447631    2.5195461    0.9866670  0.00   -0.0285873    0.0066698   -0.0087240
o    -2.8023117    3.9404350   -0.3597953  0.00   -0.0318519    0.0033857    0.0459003
h    -2.1949354    3.9282922   -1.1968462  0.00    0.0154167   -0.0116237   -0.0394638
    13
 Energy =       0.0731844619
c    -3.7098791    1.6807175    0.2604783  0.00   -0.0113616    0.0101097    0.0068419
c    -2.5723797    2.7021578    0.2511305  0.00    0.0416165   -0.0112241    0.0053765
c    -5.0478376    2.3207974   -0.1738381  0.00    0.0031496    0.0050883   -0.0010541
h    -5.8773478    1.5820384   -0.1019796  0.00   -0.0022489   -0.0012915    0.0001192
h    -4.9738546    2.6922821   -1.2230090  0.00    0.0013314    0.0017107   -0.0030847
h    -5.2960112    3.1921559    0.4805594  0.00   -0.0023402    0.0037509    0.0032164
n    -3.4029911    0.4887556   -0.5808108  0.00    0.0089292   -0.0153147   -0.0015337
h    -3.7944562    1.3505775    1.3261313  0.00   -0.0006264   -0.0012761    0.0032187
h    -4.1894887    0.2496845   -1.2353841  0.00   -0.0034510   -0.0000215   -0.0050594
h    -2.5597106    0.6552406   -1.1868657  0.00    0.0048470    0.0021047   -0.0024874
o    -1.4544489    2.5059171    1.0267298  0.00   -0.0233417    0.0028432   -0.0039245
o    -2.6922125    3.8564129   -0.5185484  0.00   -0.0355093    0.0151010    0.0411444
h    -2.0362784    3.7738899   -1.3175357  0.00    0.0190053   -0.0115807   -0.0427734
    13
 Energy =       0.0733504636
c    -3.6858178    1.6847483    0.2647267  0.00   -0.0109019    0.0087367    0.0068486
c    -2.5982549    2.7609012    0.2341910  0.00    0.0354573   -0.0109479    0.0027311
c    -5.0581141    2.2586167   -0.1594242  0.00    0.0020804    0.0058364   -0.0012920
h    -5.8535682    1.4838141   -0.0676818  0.00   -0.0030935   -0.0021542    0.0002058
h    -5.0145082    2.6204315   -1.2139680  0.00    0.0010989    0.0019247   -0.0033364
h    -5.3362000    3.1270142    0.4870825  0.00   -0.0023408    0.0039849    0.0031401
n    -3.3339634    0.5000568   -0.5693044  0.00    0.0089496   -0.0157390   -0.0002747
h    -3.7437439    1.3599341    1.3340286  0.00   -0.0005646   -0.0016260    0.0032905
h    -4.1190848    0.2160322   -1.2087471  0.00   -0.0047109   -0.0005401   -0.0057033
h    -2.5086180    0.7015048   -1.1901997  0.00    0.0057792    0.0023839   -0.0029879
o    -1.4941803    2.6646702    1.0567965  0.00   -0.0155739    0.0021027    0.0009870
o    -2.7605131    3.8785772   -0.5838258  0.00   -0.0339816    0.0169836    0.0363414
h    -2.1003296    3.7943258   -1.3766165  0.00    0.0178018   -0.0109457   -0.0399502
    13
 Energy =       0.0744994400
c    -3.6879728    1.6771971    0.2548014  0.00   -0.0111803    0.0085503    0.0061874
c    -2.6287065    2.7824767    0.2781148  0.00    0.0281709   -0.0092514   -0.0012552
c    -5.0653065    2.2262155   -0.1839590  0.00    0.0019560    0.0054588   -0.0011922
h    -5.8432769    1.4304890   -0.1209607  0.00   -0.0033711   -0.0024279    0.0002560
h    -5.0115163    2.6084982   -1.2306787  0.00    0.0010960    0.0017900   -0.0032959
h    -5.3753721    3.0758010    0.4733014  0.00   -0.0023103    0.0041240    0.0032682
n    -3.2903457    0.5204082   -0.5980965  0.00    0.0077939   -0.0154473    0.0040252
h    -3.7623795    1.3254831    1.3148909  0.00   -0.0007816   -0.0015150    0.0035148
h    -4.0360290    0.2621793   -1.2969785  0.00   -0.0072413   -0.0020722   -0.0083686
h    -2.4230091    0.7351703   -1.1581766  0.00    0.0089039    0.0030049   -0.0052170
o    -1.5801155    2.7325231    1.1824018  0.00   -0.0080794    0.0021772    0.0055347
o    -2.7735642    3.8916826   -0.5537863  0.00   -0.0316904    0.0154211    0.0329273
h    -2.1293023    3.7825032   -1.3538160  0.00    0.0167338   -0.0098126   -0.0363847
    13
 Energy =       0.0755408578
c    -3.6829445    1.6726258    0.2472995  0.00   -0.0109384    0.0081473    0.0055707
c    -2.6549001    2.8059476    0.3072156  0.00    0.0233461   -0.0079850   -0.0035724
c    -5.0704608    2.1938590   -0.1916422  0.00    0.0018059    0.0052849   -0.0010155
h    -5.8275899    1.3766553   -0.1484615  0.00   -0.0034817   -0.0026211    0.0003159
h    -5.0196973    2.5961442   -1.2308062  0.00    0.0010926    0.0017139   -0.0031808
h    -5.4068660    3.0234114    0.4782828  0.00   -0.0023027    0.0041748    0.0032684
n    -3.2492139    0.5427532   -0.6235956  0.00    0.0066857   -0.0150183    0.0073410
h    -3.7593069    1.2973424    1.2992457  0.00   -0.0009144   -0.0014734    0.0034631
h    -3.9578106    0.3155089   -1.3726764  0.00   -0.0088759   -0.0031515   -0.0104559
h    -2.3469716    0.7645645   -1.1257121  0.00    0.0111505    0.0035080   -0.0065412
o    -1.6538804    2.7975226    1.2696478  0.00   -0.0037105    0.0022660    0.0080035
o    -2.7902474    3.9055116   -0.5383318  0.00   -0.0310748    0.0143474    0.0317936
h    -2.1870070    3.7587807   -1.3634077  0.00    0.0172175   -0.0091930   -0.0349905
    13
 Energy =       0.0758056693
c    -3.6781089    1.6707579    0.2427330  0.00   -0.0101332    0.0075209    0.0049801
c    -2.6701812    2.8203111    0.3226673  0.00    0.0205860   -0.0071052   -0.0039380
c    -5.0731053    2.1742904   -0.1912756  0.00    0.0016418    0.0049200   -0.0008638
h    -5.8161572    1.3439735   -0.1589593  0.00   -0.0032964   -0.0025294    0.0003257
h    -5.0284911    2.5899903   -1.2251651  0.00    0.0010288    0.0016038   -0.0029697
h    -5.4237392    2.9896837    0.4881843  0.00   -0.0021695    0.0039417    0.0030615
n    -3.2254738    0.5597093   -0.6413241  0.00    0.0059534   -0.0139490    0.0076160
h    -3.7511556    1.2798544    1.2890954  0.00   -0.0009048   -0.0013938    0.0032449
h    -3.9135724    0.3522489   -1.4146984  0.00   -0.0086232   -0.0032437   -0.0102917
h    -2.3074487    0.7859805   -1.1114336  0.00    0.0109150    0.0034049   -0.0063876
o    -1.6980968    2.8343576    1.3154063  0.00   -0.0022745    0.0021156    0.0081785
o    -2.7960386    3.9122143   -0.5335951  0.00   -0.0293784    0.0132596    0.0298495
h    -2.2253275    3.7372556   -1.3745772  0.00    0.0166550   -0.0085455   -0.0328056
    13
 Energy =       0.0753672006
c    -3.6756196    1.6640284    0.2256358  0.00   -0.0083213    0.0057180    0.0015691
c    -2.7110427    2.8415050    0.3967643  0.00    0.0097541   -0.0036854   -0.0048798
c    -5.0766344    2.1402728   -0.2110599  0.00    0.0017106    0.0026706   -0.0002576
h    -5.7910730    1.2850633   -0.2266021  0.00   -0.0027358   -0.0025147    0.0003420
h    -5.0297320    2.6002649   -1.2252276  0.00    0.0008313    0.0011858   -0.0024526
h    -5.4645913    2.9131031    0.4959326  0.00   -0.0016090    0.0032471    0.0025820
n    -3.1705497    0.6177210   -0.7040212  0.00    0.0023396   -0.0106093    0.0039104
h    -3.7596145    1.2141257    1.2476785  0.00   -0.0011881   -0.0013529    0.0034303
h    -3.8231879    0.4383866   -1.5107562  0.00   -0.0051550   -0.0028475   -0.0070321
h    -2.2389965    0.8798219   -1.1211649  0.00    0.0080540    0.0022502   -0.0049508
o    -1.8269008    2.8750388    1.4741594  0.00    0.0055364    0.0013115    0.0112916
o    -2.7610650    3.9206152   -0.4830500  0.00   -0.0252623    0.0123743    0.0215388
h    -2.2778891    3.6606807   -1.3512308  0.00    0.0160454   -0.0077478   -0.0250914
    13
 Energy =       0.0747234678
c    -3.6941534    1.6687471    0.2270909  0.00   -0.0018462    0.0007049   -0.0000470
c    -2.6941543    2.8112627    0.4047162  0.00   -0.0029457   -0.0027495   -0.0038622
c    -5.0784769    2.1852006   -0.2136960  0.00   -0.0003348    0.0013157    0.0001817
h    -5.8157447    1.3528075   -0.2341150  0.00   -0.0007833   -0.0009538    0.0000832
h    -5.0146014    2.6446730   -1.2252950  0.00    0.0001558    0.0004016   -0.0006038
h    -5.4463756    2.9644752    0.4917277  0.00   -0.0004850    0.0007611    0.0005572
n    -3.2159305    0.6184488   -0.7036687  0.00   -0.0013858   -0.0043309    0.0179122
h    -3.7911881    1.2164370    1.2438014  0.00   -0.0002368   -0.0004446    0.0007165
h    -3.9396841    0.3515602   -1.4278393  0.00   -0.0115213   -0.0039564   -0.0124737
h    -2.3523670    0.9256932   -1.2323605  0.00    0.0147985    0.0045901   -0.0074233
o    -1.7605904    2.7727451    1.4362347  0.00    0.0051598    0.0019149    0.0063047
o    -2.6844941    3.8892519   -0.4743326  0.00   -0.0058082    0.0063348    0.0117673
h    -2.1191360    3.6493247   -1.2852058  0.00    0.0052331   -0.0035879   -0.0131128
    13
 Energy =       0.0746915182
c    -3.6516452    1.6714392    0.2237698  0.00    0.0017398   -0.0009894   -0.0013659
c    -2.7064334    2.8682942    0.3464889  0.00   -0.0010860   -0.0012587   -0.0022708
c    -5.0959156    2.1145840   -0.1104225  0.00   -0.0046940    0.0019430    0.0022869
h    -5.7814256    1.2367060   -0.1081617  0.00   -0.0021479   -0.0021126    0.0007873
h    -5.1277106    2.6081788   -1.1122236  0.00   -0.0000145    0.0027491   -0.0045367
h    -5.4662688    2.8486232    0.6424831  0.00   -0.0019330    0.0015227    0.0012453
n    -3.1829972    0.6576336   -0.7516173  0.00    0.0027636   -0.0018323    0.0075404
h    -3.6526711    1.2010153    1.2412192  0.00   -0.0003646   -0.0026241    0.0041967
h    -3.8907167    0.4502457   -1.5033348  0.00   -0.0051072   -0.0037813   -0.0068137
h    -2.3008954    0.9590411   -1.2392349  0.00    0.0054967    0.0023102   -0.0033229
o    -1.7818370    2.9221537    1.3853918  0.00    0.0053977    0.0004241    0.0059108
o    -2.7369100    3.8998884   -0.5880613  0.00   -0.0047563    0.0051114    0.0046846
h    -2.2314699    3.6128241   -1.4192388  0.00    0.0047058   -0.0014622   -0.0083421
    13
 Energy =       0.0744529946
c    -3.6569090    1.6628058    0.2101578  0.00   -0.0026081    0.0010268    0.0008328
c    -2.7036398    2.8403789    0.3861990  0.00   -0.0007406    0.0013338    0.0026528
c    -5.0789469    2.1350275   -0.1240600  0.00    0.0036592   -0.0014704   -0.0019388
h    -5.7787434    1.2745270   -0.1471325  0.00    0.0015931    0.0011141   -0.0006090
h    -5.0950314    2.6423773   -1.1099495  0.00   -0.0001952   -0.0021513    0.0032823
h    -5.4342663    2.8594254    0.6398537  0.00    0.0015362   -0.0010555   -0.0009162
n    -3.1956466    0.6810804   -0.7971455  0.00   -0.0072303   -0.0040277    0.0101807
h    -3.6734918    1.1612016    1.2043394  0.00    0.0004706    0.0018580   -0.0024895
h    -3.9588285    0.4036517   -1.4641022  0.00   -0.0052172    0.0016712   -0.0025559
h    -2.4026008    1.0572471   -1.3830949  0.00    0.0110111    0.0034633   -0.0066405
o    -1.8371368    2.8769647    1.4667112  0.00   -0.0017592   -0.0002595   -0.0025666
o    -2.6709182    3.8727072   -0.5421819  0.00    0.0027261   -0.0021172   -0.0027420
h    -2.1207369    3.5832326   -1.3325368  0.00   -0.0032457    0.0006143    0.0035099
    13
 Energy =       0.0744063061
c    -3.6272169    1.6696408    0.2211122  0.00   -0.0019415    0.0003752    0.0008568
c    -2.7053180    2.8791174    0.3541237  0.00   -0.0043179   -0.0013722    0.0015637
c    -5.0700878    2.0883200   -0.1028820  0.00    0.0032136   -0.0008325   -0.0013225
h    -5.7457866    1.2068004   -0.0768938  0.00    0.0005137   -0.0003097   -0.0005977
h    -5.1216872    2.5558045   -1.1088294  0.00   -0.0004958   -0.0012750    0.0016374
h    -5.4306506    2.8331757    0.6394072  0.00    0.0014835   -0.0006045   -0.0005261
n    -3.1500699    0.6798461   -0.7703907  0.00   -0.0050310   -0.0045674    0.0157411
h    -3.6114551    1.1915112    1.2278740  0.00    0.0005664    0.0011747   -0.0015934
h    -3.9273741    0.3238871   -1.3879458  0.00   -0.0102482   -0.0008392   -0.0062086
h    -2.4098672    1.0862101   -1.4076308  0.00    0.0139019    0.0057456   -0.0086777
o    -1.7451906    2.9131298    1.3597504  0.00    0.0040468   -0.0016161    0.0046537
o    -2.7827023    3.9358025   -0.5510518  0.00   -0.0010576    0.0045067   -0.0042714
h    -2.2794900    3.6873815   -1.3895854  0.00   -0.0006340   -0.0003857   -0.0012553
    13
 Energy =       0.0743354517
c    -3.6072401    1.6515746    0.1989473  0.00   -0.0013618    0.0024669    0.0022238
c    -2.6933709    2.8652294    0.3492874  0.00   -0.0034943   -0.0009936    0.0016539
c    -5.0695770    2.0713053   -0.0386136  0.00    0.0012845   -0.0015127   -0.0003590
h    -5.7335014    1.1800933   -0.0343670  0.00    0.0003566   -0.0006921   -0.0002758
h    -5.1697071    2.5973809   -1.0153681  0.00   -0.0008498    0.0005859   -0.0014367
h    -5.4080777    2.7680210    0.7630148  0.00   -0.0000650    0.0013616    0.0016807
n    -3.1638404    0.7154733   -0.8623643  0.00   -0.0022590   -0.0067459    0.0109802
h    -3.5414064    1.1232835    1.1815669  0.00    0.0007284   -0.0003258    0.0011289
h    -3.9611580    0.3833189   -1.4662333  0.00   -0.0084801   -0.0013068   -0.0061253
h    -2.4520714    1.1555300   -1.5074524  0.00    0.0121815    0.0047326   -0.0084025
o    -1.7354112    2.8929538    1.3562992  0.00    0.0032959   -0.0012600    0.0037162
o    -2.7836407    3.9381559   -0.5346798  0.00   -0.0010317    0.0041031   -0.0034175
h    -2.2878940    3.7083075   -1.3829793  0.00   -0.0003053   -0.0004133   -0.0013669
    13
 Energy =       0.0740169410
c    -3.6490151    1.6474258    0.2036705  0.00    0.0002612    0.0015612    0.0020039
c    -2.6748765    2.8075873    0.4185154  0.00   -0.0049588   -0.0029798    0.0019863
c    -5.0700352    2.1525471   -0.1365265  0.00   -0.0026401   -0.0006138    0.0011814
h    -5.7884152    1.3016988   -0.1619916  0.00   -0.0016279   -0.0027875    0.0001568
h    -5.0761458    2.6698117   -1.1283382  0.00   -0.0012750    0.0032094   -0.0059970
h    -5.4179659    2.8824222    0.6337740  0.00   -0.0013150    0.0026713    0.0030951
n    -3.1856577    0.6906905   -0.8317104  0.00   -0.0009226   -0.0100061    0.0178325
h    -3.6793232    1.1132091    1.1900719  0.00    0.0007750   -0.0030687    0.0054598
h    -3.9854763    0.3085472   -1.4099547  0.00   -0.0140141   -0.0040656   -0.0109361
h    -2.4990146    1.1394576   -1.5057847  0.00    0.0187721    0.0078949   -0.0135376
o    -1.7455093    2.7547624    1.4569806  0.00    0.0084081   -0.0020935    0.0094413
o    -2.6767021    3.9083116   -0.4435497  0.00   -0.0012885    0.0107624   -0.0080623
h    -2.1587597    3.6741559   -1.2780987  0.00   -0.0001745   -0.0004843   -0.0026243
    13
 Energy =       0.0726545381
c    -3.6859480    1.6426731    0.1972097  0.00    0.0020856   -0.0016208   -0.0009598
c    -2.6595549    2.7393132    0.5087746  0.00   -0.0039801   -0.0044037    0.0009858
c    -5.0484272    2.2366096   -0.2468353  0.00   -0.0066596    0.0020922    0.0018906
h    -5.8205143    1.4339156   -0.3207447  0.00   -0.0043529   -0.0040893    0.0005805
h    -4.9514177    2.7499350   -1.2390154  0.00   -0.0005886    0.0047869   -0.0088074
h    -5.4045607    2.9904129    0.4956493  0.00   -0.0019843    0.0023105    0.0025965
n    -3.1978857    0.6902559   -0.8251728  0.00    0.0050356   -0.0100970    0.0347856
h    -3.8211689    1.0893638    1.1681784  0.00   -0.0002337   -0.0053184    0.0085061
h    -4.0070378    0.1813101   -1.3007141  0.00   -0.0262352   -0.0138181   -0.0164158
h    -2.6418606    1.1975264   -1.5859348  0.00    0.0252663    0.0174422   -0.0241071
o    -1.8065736    2.6109207    1.6091304  0.00    0.0120461   -0.0023259    0.0142533
o    -2.5484074    3.8663492   -0.3164333  0.00   -0.0004939    0.0151684   -0.0110151
h    -2.0135395    3.6220416   -1.1370342  0.00    0.0000946   -0.0001268   -0.0022933
    13
 Energy =       0.0697583297
c    -3.7124470    1.6425793    0.1795645  0.00    0.0001483   -0.0017928   -0.0010716
c    -2.6579479    2.6788900    0.5692645  0.00   -0.0028775   -0.0024055   -0.0013754
c    -5.0193910    2.3037508   -0.3051121  0.00   -0.0011781    0.0012865    0.0006361
h    -5.8181485    1.5400222   -0.4438564  0.00   -0.0025115   -0.0022823    0.0000827
h    -4.8537133    2.8386107   -1.2695638  0.00   -0.0002635    0.0013473   -0.0031373
h    -5.3756796    3.0487877    0.4413117  0.00   -0.0000921    0.0001916    0.0002610
n    -3.2215472    0.7134375   -0.8532944  0.00   -0.0013129   -0.0056076    0.0170479
h    -3.9128538    1.0673240    1.1191413  0.00    0.0000326   -0.0018670    0.0027053
h    -4.0142554    0.1335903   -1.2384344  0.00   -0.0101440   -0.0042932   -0.0059806
h    -2.8006137    1.2500356   -1.6622290  0.00    0.0114571    0.0089706   -0.0114797
o    -1.9101171    2.5125320    1.7339504  0.00    0.0071212   -0.0016150    0.0087831
o    -2.4297462    3.7988557   -0.2317611  0.00   -0.0010562    0.0080919   -0.0052748
h    -1.8804357    3.5222114   -1.0319234  0.00    0.0006765   -0.0000244   -0.0011966
    13
 Energy =       0.0685350517
c    -3.7249306    1.6410130    0.1589409  0.00   -0.0006933   -0.0016204    0.0013213
c    -2.6435502    2.6298370    0.5888498  0.00   -0.0043864   -0.0029800   -0.0009771
c    -5.0115955    2.3590628   -0.2945416  0.00   -0.0000543    0.0001860    0.0001748
h    -5.8221457    1.6216853   -0.4950694  0.00   -0.0023740   -0.0027065   -0.0004403
h    -4.8238847    2.9550714   -1.2194886  0.00   -0.0001305    0.0020255   -0.0037206
h    -5.3615406    3.0608364    0.4977456  0.00   -0.0002303    0.0014138    0.0015278
n    -3.2605914    0.7487208   -0.9173628  0.00    0.0007056   -0.0066133    0.0152952
h    -3.9393891    1.0305556    1.0722087  0.00    0.0001259   -0.0015205    0.0019450
h    -4.0493961    0.1252490   -1.2330515  0.00   -0.0090582   -0.0041991   -0.0035825
h    -2.9514691    1.3145219   -1.7568600  0.00    0.0088022    0.0092386   -0.0135543
o    -1.9914649    2.4618240    1.8104342  0.00    0.0061888   -0.0029845    0.0104444
o    -2.3052558    3.7151009   -0.2231414  0.00   -0.0019260    0.0104863   -0.0044395
h    -1.7216826    3.3871491   -0.9816062  0.00    0.0030304   -0.0007259   -0.0039942
    13
 Energy =       0.0675339892
c    -3.7288936    1.6396722    0.1333245  0.00   -0.0006093   -0.0004889    0.0037321
c    -2.6227427    2.5867333    0.5826534  0.00   -0.0034904   -0.0022127   -0.0001018
c    -5.0126262    2.4022644   -0.2479981  0.00   -0.0004120   -0.0010039   -0.0005328
h    -5.8294849    1.6901061   -0.4994893  0.00   -0.0010701   -0.0018636   -0.0004991
h    -4.8273553    3.0678884   -1.1250284  0.00   -0.0000506    0.0023122   -0.0034327
h    -5.3492433    3.0436289    0.6013062  0.00   -0.0007970    0.0024041    0.0026925
n    -3.3054001    0.7994189   -1.0013415  0.00    0.0018809   -0.0071012    0.0082459
h    -3.9303444    0.9867455    1.0192415  0.00    0.0001688   -0.0009855    0.0014783
h    -4.0817328    0.1398678   -1.2592844  0.00   -0.0050639   -0.0021706   -0.0009991
h    -3.1102222    1.3980934   -1.8492635  0.00    0.0047235    0.0066814   -0.0111481
o    -2.0581853    2.4431674    1.8475616  0.00    0.0030973   -0.0028093    0.0072100
o    -2.1870022    3.6195972   -0.2474583  0.00   -0.0032231    0.0090817   -0.0010032
h    -1.5636636    3.2334438   -0.9471659  0.00    0.0048459   -0.0018437   -0.0056421
    13
 Energy =       0.0669133463
c    -3.7255497    1.6389966    0.1066192  0.00    0.0001975    0.0006078    0.0036044
c    -2.6024323    2.5626907    0.5540194  0.00   -0.0025731   -0.0019206   -0.0017144
c    -5.0224470    2.4204768   -0.1791882  0.00   -0.0016032   -0.0009440   -0.0006517
h    -5.8431092    1.7264690   -0.4599729  0.00   -0.0000278   -0.0004779   -0.0001472
h    -4.8627674    3.1490558   -1.0089257  0.00    0.0000843    0.0018002   -0.0023107
h    -5.3375782    2.9951478    0.7239159  0.00   -0.0010774    0.0019711    0.0024248
n    -3.3486948    0.8607198   -1.0873979  0.00    0.0019453   -0.0056638    0.0018324
h    -3.8899386    0.9415528    0.9660539  0.00   -0.0000568   -0.0009488    0.0016046
h    -4.1086271    0.1743540   -1.3116047  0.00   -0.0012806   -0.0004160    0.0001604
h    -3.2508949    1.4974821   -1.9201892  0.00    0.0014855    0.0035659   -0.0062602
o    -2.1205437    2.4850214    1.8576169  0.00    0.0015166   -0.0022851    0.0066430
o    -2.0844904    3.5239699   -0.3107701  0.00   -0.0057174    0.0089456    0.0018930
h    -1.4098231    3.0746906   -0.9231188  0.00    0.0071071   -0.0042345   -0.0070784
    13
 Energy =       0.0665827453
c    -3.7107113    1.6344410    0.0761397  0.00    0.0012909    0.0013728    0.0018600
c    -2.5779826    2.5529688    0.5077462  0.00    0.0003066   -0.0005600   -0.0016767
c    -5.0341940    2.4075224   -0.0841260  0.00   -0.0024494   -0.0001515   -0.0003075
h    -5.8587324    1.7207892   -0.3693640  0.00   -0.0000745    0.0003208    0.0001065
h    -4.9306215    3.1949161   -0.8667310  0.00    0.0000674    0.0013553   -0.0015237
h    -5.3091530    2.9085501    0.8730964  0.00   -0.0009238    0.0008820    0.0017455
n    -3.3948823    0.9338801   -1.1816238  0.00    0.0011641   -0.0030529   -0.0021713
h    -3.8109079    0.8860462    0.9024376  0.00   -0.0001250   -0.0013708    0.0019970
h    -4.1493727    0.2412683   -1.3994219  0.00    0.0007576    0.0002555   -0.0002281
h    -3.3680298    1.6201241   -1.9757420  0.00   -0.0001213    0.0007196   -0.0013540
o    -2.1609611    2.5612131    1.8327088  0.00    0.0004266   -0.0000824    0.0018763
o    -2.0025558    3.4423666   -0.3904742  0.00    0.0000624    0.0002898   -0.0002796
h    -1.2987921    2.9465415   -0.9175880  0.00   -0.0003815    0.0000218   -0.0000444
    13
 Energy =       0.0665469696
c    -3.7145206    1.6374471    0.0719350  0.00   -0.0000333    0.0000512    0.0000755
c    -2.5788755    2.5519232    0.5053292  0.00   -0.0006547   -0.0006063   -0.0002388
c    -5.0343453    2.4122088   -0.0796542  0.00    0.0000065    0.0000075   -0.0000337
h    -5.8622445    1.7274599   -0.3607662  0.00   -0.0000106   -0.0000093   -0.0000100
h    -4.9333705    3.1993805   -0.8601147  0.00    0.0000108   -0.0000026   -0.0000076
h    -5.3008559    2.9119978    0.8784316  0.00   -0.0000176    0.0000125    0.0000206
n    -3.4069859    0.9421513   -1.1881020  0.00    0.0002448   -0.0000390    0.0001856
h    -3.8136218    0.8864182    0.8929218  0.00   -0.0000020   -0.0000085    0.0000151
h    -4.1723692    0.2629820   -1.4130722  0.00   -0.0002116   -0.0001710   -0.0000645
h    -3.3665168    1.6340562   -1.9758617  0.00   -0.0000147    0.0001488   -0.0001381
o    -2.1971134    2.5928435    1.8400103  0.00    0.0001796   -0.0002724    0.0015141
o    -1.9664636    3.4070816   -0.4028387  0.00   -0.0004037    0.0015326   -0.0006884
h    -1.2596134    2.8846771   -0.9011604  0.00    0.0009066   -0.0006434   -0.0006297
    13
 Energy =       0.0665444079
c    -3.7128537    1.6361946    0.0689438  0.00    0.0000217    0.0000230    0.0000425
c    -2.5761474    2.5497423    0.5015492  0.00    0.0000064   -0.0000009    0.0000012
c    -5.0346314    2.4099813   -0.0703648  0.00   -0.0000359   -0.0000006   -0.0000065
h    -5.8633109    1.7256419   -0.3501135  0.00   -0.0000039    0.0000016   -0.0000006
h    -4.9395299    3.2015425   -0.8471416  0.00   -0.0000020    0.0000227   -0.0000245
h    -5.2959309    2.9041313    0.8920934  0.00   -0.0000124    0.0000156    0.0000323
n    -3.4115453    0.9489703   -1.1970417  0.00    0.0000241   -0.0000624   -0.0000293
h    -3.8061683    0.8800764    0.8859314  0.00    0.0000018   -0.0000217    0.0000309
h    -4.1778318    0.2712964   -1.4226661  0.00   -0.0000005   -0.0000045   -0.0000061
h    -3.3746788    1.6458645   -1.9804654  0.00    0.0000023    0.0000262   -0.0000406
o    -2.1940099    2.5913959    1.8351950  0.00   -0.0000008   -0.0000001    0.0000004
o    -1.9636710    3.4039345   -0.4060361  0.00   -0.0000012    0.0000022    0.0000023
h    -1.2565869    2.8818553   -0.9028258  0.00    0.0000005   -0.0000010   -0.0000021
    13
 Energy =       0.0665444011
c    -3.7128549    1.6362137    0.0689137  0.00   -0.0000000    0.0000000   -0.0000000
c    -2.5761694    2.5497878    0.5015189  0.00   -0.0000000   -0.0000000   -0.0000000
c    -5.0346244    2.4099256   -0.0703357  0.00   -0.0000000    0.0000000   -0.0000000
h    -5.8632860    1.7255608   -0.3500704  0.00    0.0000000   -0.0000000    0.0000000
h    -4.9395651    3.2014926   -0.8470682  0.00    0.0000000    0.0000000   -0.0000000
h    -5.2958939    2.9040361    0.8921108  0.00   -0.0000000    0.0000000    0.0000000
n    -3.4115802    0.9490505   -1.1970588  0.00    0.0000000   -0.0000000    0.0000000
h    -3.8061335    0.8800847    0.8858487  0.00   -0.0000000   -0.0000000    0.0000000
h    -4.1778760    0.2713935   -1.4226939  0.00   -0.0000000    0.0000000    0.0000000
h    -3.3747106    1.6459630   -1.9804301  0.00   -0.0000000    0.0000000   -0.0000000
o    -2.1941798    2.5916093    1.8352016  0.00    0.0000000   -0.0000000    0.0000000
o    -1.9635653    3.4038409   -0.4061112  0.00   -0.0000000    0.0000000   -0.0000000
h    -1.2564575    2.8816689   -0.9027675  0.00    0.0000000   -0.0000000   -0.0000000
