    27
 Energy =       0.3437801778
c    -1.4235396    2.6054793   -0.0667700  0.00   -0.0463162    0.0383723    0.0027425
c    -1.3072796    1.2134697   -0.1072300  0.00   -0.0852365   -0.0325814    0.0020075
c    -0.0178900    0.6711998   -0.1697000  0.00   -0.0885980   -0.1878990   -0.0011410
c    -0.2940599    3.4190890   -0.0891300  0.00   -0.0230425    0.0691510    0.0029068
c     0.9872197    2.8590292   -0.1560400  0.00    0.0106258    0.0643258    0.0009540
c     1.1340797    1.4562096   -0.1970299  0.00    0.0532782    0.0514730    0.0020950
n     0.3879399   -0.6395298   -0.2140799  0.00    0.1423104    0.1097264   -0.0030929
c     2.2666594    0.5727398   -0.2659299  0.00    0.1403556   -0.0573421   -0.0206254
c     1.7555995   -0.7123598   -0.2706899  0.00   -0.0940995   -0.0976938    0.0034761
h    -0.2400399   -1.4313496   -0.2047299  0.00    0.0366427    0.0478181   -0.0005754
c     3.7030089    1.0223397   -0.3320099  0.00    0.0371229    0.0205469    0.0450691
c     4.7465686   -0.0024900    0.1378100  0.00   -0.1037615    0.1372107    0.1237836
h     3.7978489    1.9290294    0.2803699  0.00    0.1675828   -0.0380216    0.1513403
h     3.9233889    1.3348996   -1.3618196  0.00   -0.0045659   -0.0016260    0.0159345
c     6.0911583    0.7171698    0.3515799  0.00    0.3460827   -0.0486410   -0.1458771
n     4.9813086   -1.1161597   -0.8485798  0.00    0.0421086   -0.0778140   -0.0359697
h     4.4627987   -0.4486599    1.0982597  0.00    0.0098177   -0.0046502   -0.0252839
h     4.8172486   -1.9976894   -0.3514999  0.00   -0.0051323    0.0379891   -0.0107011
h     4.2259388   -1.0808397   -1.5421496  0.00    0.0126191    0.0078879    0.0360850
h    -2.4108593    3.0588691   -0.0157800  0.00   -0.0007210    0.0001961    0.0000370
h    -2.1896094    0.5822398   -0.0890100  0.00   -0.0035957    0.0037808    0.0000701
h    -0.4052699    4.5000487   -0.0535400  0.00    0.0008714    0.0000354    0.0002864
h     1.8590495    3.5066790   -0.1715100  0.00   -0.0010208    0.0027358    0.0007447
h     2.2327294   -1.6813195   -0.3062999  0.00   -0.0369466   -0.0108461    0.0010648
o     7.1486880    0.4175409   -0.1773389  0.00   -0.2599592    0.0660485    0.1230384
o     5.9603183    1.7554495    1.2207397  0.00   -0.0842899   -0.0370385   -0.0212815
h     5.0076686    1.7390995    1.4978396  0.00   -0.1621324   -0.0631442   -0.2470878
    27
 Energy =       0.2540407090
c    -1.3701209    2.5792330   -0.0757389  0.00   -0.0183305    0.0153523    0.0011411
c    -1.2595442    1.2075303   -0.1124484  0.00   -0.0355232   -0.0136966    0.0008109
c    -0.0032743    0.6653657   -0.1707836  0.00   -0.0351021   -0.0792114    0.0000291
c    -0.2456947    3.3741914   -0.1008018  0.00   -0.0101274    0.0282610    0.0013750
c     1.0097538    2.8077063   -0.1639557  0.00    0.0049424    0.0270580    0.0005211
c     1.1183483    1.4332831   -0.1966028  0.00    0.0201130    0.0230784    0.0011987
n     0.3534720   -0.6860490   -0.2206814  0.00    0.0561898    0.0439556   -0.0024342
c     2.2227459    0.6027267   -0.2551730  0.00    0.0610219   -0.0231277   -0.0090283
c     1.7587783   -0.6789159   -0.2637404  0.00   -0.0418468   -0.0362829    0.0024356
h    -0.2743994   -1.5037707   -0.2200812  0.00    0.0158077    0.0199197   -0.0005301
c     3.6644195    1.0621920   -0.3357737  0.00    0.0207232    0.0113773    0.0241044
c     4.6968134    0.0217355    0.1325095  0.00   -0.0450979    0.0718945    0.0615981
h     3.7708071    1.9556809    0.2902299  0.00    0.0939341   -0.0238385    0.0836095
h     3.8869981    1.3761712   -1.3741282  0.00   -0.0018728   -0.0008049    0.0068018
c     6.0343447    0.6944767    0.4325638  0.00    0.1427210   -0.0220218   -0.0630706
n     4.9092385   -1.0430417   -0.8903013  0.00    0.0210114   -0.0287821   -0.0161169
h     4.3661324   -0.4419118    1.0828955  0.00    0.0035761   -0.0021081   -0.0101694
h     4.8024308   -1.9753447   -0.4401293  0.00   -0.0035052    0.0110699   -0.0024589
h     4.1922317   -0.9929612   -1.6419093  0.00    0.0030952    0.0033295    0.0129799
h    -2.3546499    3.0385111   -0.0274920  0.00   -0.0003305    0.0000658    0.0000214
h    -2.1404500    0.5745973   -0.0954259  0.00   -0.0014431    0.0015510    0.0000151
h    -0.3477367    4.4564967   -0.0713639  0.00    0.0003144    0.0000681    0.0001353
h     1.8930680    3.4392246   -0.1849728  0.00   -0.0000396    0.0008788    0.0003547
h     2.3337165   -1.5987050   -0.2957417  0.00   -0.0115791   -0.0071473    0.0002652
o     7.1560141    0.3451280   -0.1673763  0.00   -0.1115603    0.0254628    0.0484197
o     6.0061803    1.6946359    1.3794928  0.00   -0.0063616   -0.0132276   -0.0051312
h     5.0210494    1.8419976    1.5826618  0.00   -0.1207299   -0.0330736   -0.1368771
    27
 Energy =       0.2352506609
c    -1.3352035    2.6071856   -0.0330417  0.00   -0.0109581    0.0086069    0.0006496
c    -1.2405883    1.2395596   -0.0410159  0.00   -0.0206263   -0.0084344    0.0001423
c    -0.0006725    0.6833275   -0.1117071  0.00   -0.0196493   -0.0448912   -0.0013788
c    -0.2040829    3.3839441   -0.0970320  0.00   -0.0056168    0.0165965    0.0009573
c     1.0364571    2.8006297   -0.1728454  0.00    0.0030610    0.0159873    0.0005442
c     1.1195732    1.4324977   -0.1776731  0.00    0.0116678    0.0134222    0.0008208
n     0.3271092   -0.6850530   -0.1228643  0.00    0.0301940    0.0246925    0.0005025
c     2.2044927    0.6039634   -0.2475055  0.00    0.0350161   -0.0132578   -0.0048024
c     1.7413667   -0.6718875   -0.2343886  0.00   -0.0217804   -0.0202339   -0.0001030
h    -0.3125067   -1.5017080   -0.0720657  0.00    0.0077038    0.0098728    0.0002793
c     3.6501546    1.0489394   -0.3758750  0.00    0.0130558    0.0069060    0.0150992
c     4.6826579   -0.0020744    0.0882677  0.00   -0.0266604    0.0433617    0.0366656
h     3.7900526    1.9588582    0.2336203  0.00    0.0628790   -0.0139492    0.0560560
h     3.8501315    1.3422656   -1.4280902  0.00   -0.0008574   -0.0006171    0.0033075
c     6.0214505    0.6634853    0.3934903  0.00    0.0818241   -0.0128722   -0.0361455
n     4.8685229   -1.0715077   -0.9277853  0.00    0.0240348   -0.0095649   -0.0039048
h     4.3530516   -0.4521508    1.0493354  0.00    0.0019904   -0.0009619   -0.0055499
h     4.6436777   -2.0056629   -0.5032821  0.00   -0.0054413   -0.0040760    0.0036492
h     4.2268842   -0.9434736   -1.7508692  0.00   -0.0074056    0.0051880   -0.0026696
h    -2.3131034    3.0794748    0.0250075  0.00   -0.0003868    0.0000250    0.0000157
h    -2.1270698    0.6153442    0.0110332  0.00   -0.0013537    0.0004095    0.0000396
h    -0.2910418    4.4683271   -0.0900276  0.00    0.0002557    0.0004387    0.0000866
h     1.9283475    3.4187794   -0.2284454  0.00    0.0005866    0.0009449    0.0001898
h     2.3293722   -1.5816217   -0.2934661  0.00   -0.0051529   -0.0043390   -0.0003664
o     7.1604499    0.3002427   -0.2327351  0.00   -0.0642476    0.0143374    0.0271970
o     6.0300132    1.6700829    1.3438819  0.00   -0.0011504   -0.0074750   -0.0029101
h     5.0611761    1.8484166    1.5918107  0.00   -0.0809822   -0.0201167   -0.0883715
    27
 Energy =       0.2326090767
c    -1.2733002    2.7272511    0.0306667  0.00   -0.0112073    0.0077354    0.0006966
c    -1.2219082    1.3577345    0.0564855  0.00   -0.0194224   -0.0085035    0.0001814
c    -0.0031916    0.7608152   -0.0332474  0.00   -0.0178673   -0.0400010   -0.0014078
c    -0.1196675    3.4655673   -0.0854345  0.00   -0.0044565    0.0161413    0.0008183
c     1.0993863    2.8407578   -0.1823016  0.00    0.0038497    0.0151731    0.0004152
c     1.1378504    1.4711782   -0.1531989  0.00    0.0108776    0.0122260    0.0007637
n     0.2759839   -0.6196825   -0.0131542  0.00    0.0247559    0.0213462    0.0009059
c     2.1914330    0.6065034   -0.2410935  0.00    0.0303421   -0.0120177   -0.0032850
c     1.6872962   -0.6537631   -0.1846892  0.00   -0.0177553   -0.0188207   -0.0004942
h    -0.3909728   -1.4129988    0.0866874  0.00    0.0048104    0.0065069    0.0006078
c     3.6487128    0.9911025   -0.4510509  0.00    0.0129980    0.0041950    0.0138150
c     4.6513507   -0.0785062    0.0407610  0.00   -0.0242537    0.0389625    0.0331067
h     3.8594615    1.9397878    0.0904220  0.00    0.0572530   -0.0076460    0.0518789
h     3.8202764    1.2060733   -1.5308535  0.00    0.0004861   -0.0000151   -0.0005937
c     6.0113468    0.5609069    0.3072947  0.00    0.0716906   -0.0113329   -0.0319314
n     4.7920365   -1.1891067   -0.9389028  0.00    0.0228794   -0.0088823   -0.0050811
h     4.3188959   -0.4821649    1.0231586  0.00    0.0011454   -0.0012384   -0.0038051
h     4.5751833   -2.1047805   -0.4701706  0.00   -0.0053167   -0.0053414    0.0040306
h     4.1245530   -1.0906752   -1.7456846  0.00   -0.0072270    0.0039974   -0.0038230
h    -2.2345260    3.2321301    0.1038520  0.00   -0.0011644    0.0002720    0.0000786
h    -2.1263947    0.7626871    0.1508985  0.00   -0.0024708   -0.0005488    0.0001680
h    -0.1717808    4.5528864   -0.1047697  0.00    0.0003713    0.0014236    0.0000457
h     2.0093135    3.4286707   -0.2818492  0.00    0.0018687    0.0018174    0.0000233
h     2.2452360   -1.5825775   -0.2558876  0.00   -0.0040811   -0.0044854   -0.0004168
o     7.1249505    0.1795841   -0.3652974  0.00   -0.0551781    0.0122127    0.0229507
o     6.0645912    1.5840790    1.2410675  0.00    0.0003281   -0.0057024   -0.0018384
h     5.1045567    1.7967240    1.5020231  0.00   -0.0732557   -0.0174737   -0.0778099
    27
 Energy =       0.2240001769
c    -1.3225380    2.6172716   -0.0126058  0.00   -0.0068260    0.0048502    0.0004685
c    -1.2367207    1.2520731    0.0165374  0.00   -0.0117324   -0.0050939    0.0001925
c    -0.0067942    0.6859099   -0.0633493  0.00   -0.0108726   -0.0232595   -0.0006512
c    -0.1885355    3.3814263   -0.1230538  0.00   -0.0025247    0.0098959    0.0005161
c     1.0422147    2.7866208   -0.2071071  0.00    0.0028118    0.0089643    0.0002332
c     1.1109160    1.4229274   -0.1724887  0.00    0.0060224    0.0076136    0.0005341
n     0.3059484   -0.6930129   -0.0461876  0.00    0.0129407    0.0123996    0.0003524
c     2.1859374    0.5969903   -0.2389351  0.00    0.0172799   -0.0072234   -0.0014148
c     1.7276799   -0.6767152   -0.1818084  0.00   -0.0095493   -0.0110161   -0.0002764
h    -0.3388992   -1.5095894    0.0364904  0.00    0.0022106    0.0029016    0.0004013
c     3.6323530    1.0406057   -0.4133437  0.00    0.0083530    0.0016398    0.0081282
c     4.6807255   -0.0012944    0.0504173  0.00   -0.0143496    0.0245418    0.0198418
h     3.7805508    1.9707581    0.1796052  0.00    0.0362024   -0.0029964    0.0353782
h     3.8124478    1.3104140   -1.4806974  0.00    0.0010209    0.0002740   -0.0017894
c     6.0149734    0.6811233    0.3547473  0.00    0.0415399   -0.0066895   -0.0189814
n     4.8618610   -1.0727770   -0.9625621  0.00    0.0162047   -0.0026422   -0.0059028
h     4.3541866   -0.4458012    1.0192241  0.00    0.0000697   -0.0009672   -0.0013625
h     4.7286672   -2.0159321   -0.5131923  0.00   -0.0041882   -0.0089040    0.0049933
h     4.1685699   -1.0009324   -1.7488580  0.00   -0.0052180    0.0030256   -0.0033005
h    -2.2962968    3.0987332    0.0518119  0.00   -0.0010384    0.0003711    0.0000760
h    -2.1260758    0.6344981    0.1039124  0.00   -0.0018010   -0.0005071    0.0001410
h    -0.2668322    4.4669357   -0.1467593  0.00    0.0002089    0.0012014    0.0000215
h     1.9379046    3.3959295   -0.3006710  0.00    0.0014320    0.0012068   -0.0000115
h     2.3291364   -1.5811474   -0.2265925  0.00   -0.0013898   -0.0038995   -0.0002513
o     7.1657481    0.3383372   -0.3068419  0.00   -0.0304283    0.0072504    0.0128908
o     6.0467376    1.6844827    1.3173206  0.00    0.0007251   -0.0028872   -0.0002716
h     5.0968068    1.8823493    1.6107188  0.00   -0.0471037   -0.0100501   -0.0499553
    27
 Energy =       0.2192973724
c    -1.3589694    2.5305859   -0.0597867  0.00   -0.0039494    0.0031603    0.0002949
c    -1.2433806    1.1703284    0.0050845  0.00   -0.0064769   -0.0033074    0.0000946
c    -0.0044861    0.6290407   -0.0615395  0.00   -0.0061191   -0.0123711   -0.0005643
c    -0.2429410    3.3142962   -0.1922638  0.00   -0.0012138    0.0059621    0.0003579
c     0.9974431    2.7435878   -0.2615468  0.00    0.0017529    0.0054033    0.0001778
c     1.0930830    1.3854698   -0.1900529  0.00    0.0031498    0.0042113    0.0003631
n     0.3363456   -0.7457146   -0.0086971  0.00    0.0067995    0.0059088    0.0003481
c     2.1837036    0.5878827   -0.2307433  0.00    0.0094010   -0.0034187   -0.0008507
c     1.7607010   -0.6937623   -0.1377514  0.00   -0.0051728   -0.0065438   -0.0002626
h    -0.2893714   -1.5767205    0.0931953  0.00    0.0007946    0.0008615    0.0003078
c     3.6177889    1.0667282   -0.4101997  0.00    0.0045353    0.0012927    0.0042040
c     4.7001864    0.0630829    0.0651557  0.00   -0.0076827    0.0132674    0.0110792
h     3.7354181    2.0050906    0.1746311  0.00    0.0223076   -0.0020177    0.0222200
h     3.7896314    1.3308972   -1.4795697  0.00    0.0005039    0.0002140   -0.0010109
c     6.0136631    0.7914248    0.3628314  0.00    0.0211889   -0.0036334   -0.0086971
n     4.9077771   -1.0101080   -0.9369501  0.00    0.0119783    0.0023078   -0.0027915
h     4.3866965   -0.3791889    1.0395999  0.00    0.0000358   -0.0005709   -0.0005799
h     4.8559204   -1.9531189   -0.4701934  0.00   -0.0029079   -0.0096988    0.0049066
h     4.1847796   -0.9971534   -1.7001339  0.00   -0.0054775    0.0020736   -0.0045672
h    -2.3424659    2.9929230   -0.0068199  0.00   -0.0007972    0.0004303    0.0000530
h    -2.1183991    0.5358061    0.1096158  0.00   -0.0012453   -0.0005737    0.0001040
h    -0.3440588    4.3970642   -0.2449032  0.00    0.0000881    0.0013530   -0.0000059
h     1.8795740    3.3689169   -0.3721329  0.00    0.0010107    0.0009542   -0.0000337
h     2.3911236   -1.5795991   -0.1515919  0.00   -0.0001667   -0.0030521   -0.0001933
o     7.1719017    0.4970903   -0.3297999  0.00   -0.0142989    0.0041855    0.0056339
o     6.0389579    1.7940269    1.3305567  0.00    0.0014391   -0.0016117   -0.0003749
h     5.1000494    1.9813075    1.6597374  0.00   -0.0294775   -0.0047865   -0.0302130
    27
 Energy =       0.2178861592
c    -1.3400149    2.5825863   -0.1014880  0.00   -0.0034175    0.0029206    0.0002361
c    -1.2409211    1.2238550    0.0061049  0.00   -0.0051767   -0.0033108    0.0001269
c    -0.0099081    0.6653772   -0.0474362  0.00   -0.0049116   -0.0095504   -0.0005119
c    -0.2150641    3.3476540   -0.2625115  0.00   -0.0007921    0.0053051    0.0002476
c     1.0173650    2.7593767   -0.3178420  0.00    0.0014853    0.0049712    0.0000949
c     1.0957981    1.4033016   -0.2035035  0.00    0.0025904    0.0033292    0.0002863
n     0.3126351   -0.7123123    0.0504154  0.00    0.0055910    0.0037237    0.0003622
c     2.1756058    0.5921890   -0.2201667  0.00    0.0075210   -0.0020658   -0.0006528
c     1.7377363   -0.6807444   -0.0819128  0.00   -0.0042578   -0.0058440   -0.0001906
h    -0.3233390   -1.5322626    0.1811142  0.00    0.0001448   -0.0000484    0.0003483
c     3.6160363    1.0469274   -0.4166678  0.00    0.0035657    0.0011868    0.0034793
c     4.6850599    0.0346403    0.0747639  0.00   -0.0062859    0.0100831    0.0090308
h     3.7466002    1.9985236    0.1421150  0.00    0.0175026   -0.0012204    0.0177177
h     3.7865638    1.2817968   -1.4932498  0.00    0.0005565    0.0002900   -0.0011916
c     6.0174521    0.7371128    0.3599001  0.00    0.0103922   -0.0011235   -0.0046253
n     4.8684374   -1.0549913   -0.9136092  0.00    0.0118512    0.0037257   -0.0017988
h     4.3653477   -0.3875349    1.0562181  0.00   -0.0001163   -0.0005347   -0.0002593
h     4.8694132   -1.9876202   -0.4232001  0.00   -0.0024225   -0.0098337    0.0053455
h     4.1074697   -1.0813197   -1.6400676  0.00   -0.0066397    0.0013494   -0.0061194
h    -2.3174533    3.0586918   -0.0596743  0.00   -0.0007639    0.0004843    0.0000433
h    -2.1230803    0.6034711    0.1340815  0.00   -0.0012323   -0.0008062    0.0001283
h    -0.3028611    4.4297714   -0.3488078  0.00    0.0000679    0.0017400   -0.0000532
h     1.9069446    3.3698528   -0.4505749  0.00    0.0010254    0.0011062   -0.0000744
h     2.3585386   -1.5736345   -0.0631246  0.00    0.0001595   -0.0030029   -0.0001554
o     7.1866351    0.3383372   -0.2740628  0.00   -0.0039165   -0.0000507    0.0001249
o     6.0726529    1.7829488    1.2831468  0.00    0.0015076    0.0005413    0.0014164
h     5.1470226    2.0041903    1.6257715  0.00   -0.0240285   -0.0033650   -0.0233560
    27
 Energy =       0.2168196523
c    -1.3744719    2.5028238   -0.1293558  0.00   -0.0029729    0.0027138    0.0001563
c    -1.2470042    1.1512280    0.0287046  0.00   -0.0038443   -0.0035510    0.0002150
c    -0.0063390    0.6154876   -0.0170987  0.00   -0.0037695   -0.0069005   -0.0004104
c    -0.2670734    3.2833008   -0.3323567  0.00   -0.0001007    0.0048005    0.0000522
c     0.9754817    2.7175522   -0.3794409  0.00    0.0012420    0.0047564   -0.0000643
c     1.0817815    1.3685993   -0.2137618  0.00    0.0020900    0.0023505    0.0001865
n     0.3440945   -0.7524717    0.1288652  0.00    0.0042130    0.0014424    0.0004270
c     2.1768706    0.5802016   -0.2113241  0.00    0.0054711   -0.0009444   -0.0006412
c     1.7676595   -0.6953808   -0.0195353  0.00   -0.0033965   -0.0052676   -0.0000541
h    -0.2738063   -1.5803775    0.2976617  0.00   -0.0007139   -0.0012773    0.0004783
c     3.6047774    1.0571405   -0.4456269  0.00    0.0016910    0.0010983    0.0018392
c     4.7042067    0.0980894    0.0901900  0.00   -0.0039670    0.0068052    0.0074548
h     3.7163970    2.0407712    0.0599873  0.00    0.0127381    0.0005572    0.0134594
h     3.7590970    1.2393753   -1.5358760  0.00    0.0001934    0.0007442   -0.0023840
c     6.0228784    0.8481970    0.3267434  0.00    0.0075988   -0.0013986   -0.0038403
n     4.9050813   -1.0361480   -0.8444694  0.00    0.0096897    0.0030819   -0.0026769
h     4.4029186   -0.2815657    1.0958179  0.00   -0.0000115   -0.0010132    0.0011191
h     4.9424007   -1.9431367   -0.3098034  0.00   -0.0016621   -0.0097371    0.0050947
h     4.1392363   -1.1210674   -1.5612233  0.00   -0.0065167    0.0004379   -0.0063991
h    -2.3606889    2.9610047   -0.0946257  0.00   -0.0007196    0.0005411    0.0000255
h    -2.1150912    0.5183552    0.1898539  0.00   -0.0013461   -0.0011880    0.0001988
h    -0.3771863    4.3599468   -0.4588216  0.00    0.0000916    0.0023380   -0.0001622
h     1.8507705    3.3407015   -0.5459927  0.00    0.0012114    0.0014478   -0.0001721
h     2.4081949   -1.5730839    0.0263144  0.00    0.0003106   -0.0028227   -0.0000817
o     7.1923713    0.4487431   -0.3076071  0.00   -0.0025728    0.0000950    0.0001257
o     6.0731740    1.9389545    1.2004054  0.00    0.0022057    0.0027781    0.0027157
h     5.1549417    2.1629434    1.5581073  0.00   -0.0171528   -0.0018878   -0.0166619
    27
 Energy =       0.2171794082
c    -1.3994872    2.4334990   -0.1204758  0.00   -0.0031059    0.0026575    0.0001670
c    -1.2490099    1.0854914    0.0477749  0.00   -0.0038713   -0.0035929    0.0002505
c    -0.0003765    0.5689992   -0.0056762  0.00   -0.0036814   -0.0066992   -0.0003715
c    -0.3066665    3.2295237   -0.3416379  0.00   -0.0000415    0.0048699    0.0000059
c     0.9441730    2.6831048   -0.3968790  0.00    0.0013611    0.0047435   -0.0001124
c     1.0738861    1.3373332   -0.2200312  0.00    0.0020938    0.0022358    0.0001397
n     0.3727176   -0.7924364    0.1466147  0.00    0.0038455    0.0012195    0.0004521
c     2.1813177    0.5657271   -0.2230432  0.00    0.0052601   -0.0011115   -0.0006074
c     1.7937559   -0.7144471   -0.0184778  0.00   -0.0031145   -0.0052166   -0.0001003
h    -0.2305645   -1.6284666    0.3288434  0.00   -0.0008996   -0.0015172    0.0005203
c     3.5991593    1.0596917   -0.4834738  0.00    0.0003678    0.0011181    0.0010545
c     4.7188976    0.1547958    0.1082658  0.00   -0.0032462    0.0067102    0.0085843
h     3.6905783    2.0720867   -0.0330184  0.00    0.0119713    0.0023677    0.0133172
h     3.7500158    1.1875866   -1.5830832  0.00   -0.0000074    0.0010676   -0.0037832
c     6.0191902    0.9481217    0.3144486  0.00    0.0073678   -0.0028026   -0.0046365
n     4.9531443   -1.0222636   -0.7674467  0.00    0.0106841    0.0013180   -0.0045963
h     4.4201230   -0.1811332    1.1311044  0.00    0.0000847   -0.0013680    0.0022039
h     4.9703060   -1.9061560   -0.1928464  0.00   -0.0013579   -0.0109555    0.0061134
h     4.2168364   -1.1371123   -1.5118190  0.00   -0.0076347    0.0002663   -0.0076704
h    -2.3925691    2.8763696   -0.0797675  0.00   -0.0008463    0.0005766    0.0000321
h    -2.1055072    0.4403275    0.2226226  0.00   -0.0014763   -0.0012894    0.0002293
h    -0.4350892    4.3032210   -0.4764887  0.00    0.0000897    0.0024508   -0.0001845
h     1.8067775    3.3194932   -0.5789892  0.00    0.0014204    0.0015603   -0.0002212
h     2.4479191   -1.5819303    0.0242082  0.00    0.0004013   -0.0028213   -0.0000355
o     7.2025736    0.5376627   -0.2875195  0.00   -0.0019572   -0.0005888   -0.0004961
o     6.0412503    2.0893985    1.1274123  0.00    0.0025575    0.0060520    0.0049615
h     5.1173210    2.3216965    1.4651102  0.00   -0.0162649   -0.0012510   -0.0152165
    27
 Energy =       0.2162448174
c    -1.3934341    2.4755695   -0.1379116  0.00   -0.0027540    0.0025079    0.0001227
c    -1.2525179    1.1301906    0.0564534  0.00   -0.0033451   -0.0032377    0.0002428
c    -0.0071327    0.6051285    0.0209160  0.00   -0.0031832   -0.0055518   -0.0003389
c    -0.2941332    3.2603732   -0.3659708  0.00   -0.0001538    0.0043681   -0.0000073
c     0.9533810    2.7049979   -0.4020412  0.00    0.0012152    0.0042037   -0.0001360
c     1.0724420    1.3625934   -0.2001070  0.00    0.0017065    0.0018900    0.0000266
n     0.3573446   -0.7550591    0.2042839  0.00    0.0033869    0.0006842    0.0004307
c     2.1752192    0.5867698   -0.1786768  0.00    0.0045786   -0.0008767   -0.0001160
c     1.7806106   -0.6867764    0.0522318  0.00   -0.0028394   -0.0047177   -0.0002216
h    -0.2517186   -1.5842664    0.3977261  0.00   -0.0008368   -0.0014404    0.0004688
c     3.5960242    1.0770570   -0.4287416  0.00   -0.0030337    0.0008300    0.0001339
c     4.7163401    0.1116814    0.0669490  0.00   -0.0018758    0.0063500    0.0107672
h     3.7065342    2.0556166    0.0988929  0.00    0.0093125    0.0054709    0.0128630
h     3.7274376    1.2805565   -1.5219015  0.00   -0.0001345    0.0015669   -0.0061854
c     6.0470805    0.8585987    0.2522890  0.00    0.0040356   -0.0048059   -0.0041995
n     4.8791028   -1.0278712   -0.8760944  0.00    0.0137450   -0.0018592   -0.0066305
h     4.4532675   -0.2650085    1.0864109  0.00    0.0001493   -0.0011585    0.0035720
h     4.9331463   -1.9346917   -0.3399248  0.00   -0.0006313   -0.0113348    0.0071245
h     4.0886029   -1.1070915   -1.5712245  0.00   -0.0103010   -0.0000063   -0.0104615
h    -2.3838942    2.9253569   -0.1119890  0.00   -0.0008310    0.0005920    0.0000247
h    -2.1139325    0.4938310    0.2380616  0.00   -0.0012941   -0.0011684    0.0002079
h    -0.4147332    4.3321465   -0.5208669  0.00    0.0000268    0.0023174   -0.0001808
h     1.8232897    3.3305738   -0.5877937  0.00    0.0013598    0.0013442   -0.0002402
h     2.4312187   -1.5553269    0.1248725  0.00    0.0003836   -0.0028259    0.0001473
o     7.1862515    0.4617313   -0.4462726  0.00    0.0033616   -0.0036704   -0.0047072
o     6.1413369    1.9461115    1.1362454  0.00    0.0055198    0.0096117    0.0071670
h     5.2435387    2.1673916    1.5499153  0.00   -0.0175673    0.0009169   -0.0098743
    27
 Energy =       0.2138964992
c    -1.3986625    2.4636144   -0.1135893  0.00   -0.0016413    0.0006882    0.0002160
c    -1.2437525    1.1275172    0.1177078  0.00   -0.0015515   -0.0020543    0.0002619
c     0.0026159    0.6104080    0.0661599  0.00   -0.0014602   -0.0024936   -0.0000546
c    -0.3109695    3.2472541   -0.3926654  0.00    0.0006410    0.0022217   -0.0001037
c     0.9385214    2.6997386   -0.4420402  0.00    0.0007195    0.0021810   -0.0000975
c     1.0705292    1.3668521   -0.2037148  0.00    0.0011099    0.0007670    0.0000066
n     0.3781130   -0.7420780    0.2771203  0.00    0.0007837   -0.0000779    0.0003915
c     2.1769009    0.6010634   -0.1863329  0.00    0.0019763    0.0004972   -0.0001703
c     1.7969390   -0.6668450    0.0895209  0.00   -0.0006785   -0.0022142   -0.0000052
h    -0.2207843   -1.5693909    0.5072768  0.00   -0.0009063   -0.0014942    0.0004832
c     3.5918601    1.0884527   -0.4735619  0.00   -0.0006999    0.0004631   -0.0001617
c     4.7094212    0.1200709    0.0079286  0.00   -0.0021899    0.0022855    0.0028195
h     3.7225396    2.0751495    0.0310628  0.00    0.0054213    0.0031312    0.0056818
h     3.7027739    1.2739305   -1.5687119  0.00    0.0001056    0.0006449   -0.0024775
c     6.0230556    0.8732289    0.2503811  0.00   -0.0015586   -0.0045932   -0.0034546
n     4.8968335   -0.9788699   -0.9698768  0.00    0.0131673    0.0089066   -0.0041145
h     4.4317210   -0.2955542    1.0069164  0.00   -0.0007093   -0.0004338    0.0023280
h     5.0835736   -1.8854361   -0.4566094  0.00    0.0015647   -0.0161575    0.0099524
h     4.0485598   -1.1250198   -1.5828969  0.00   -0.0131797    0.0008175   -0.0105002
h    -2.3911946    2.9068633   -0.0763458  0.00   -0.0004806    0.0000394    0.0001168
h    -2.0955988    0.4913080    0.3397525  0.00   -0.0010894   -0.0011313    0.0003313
h    -0.4428051    4.3121403   -0.5767660  0.00    0.0000736    0.0012887   -0.0001023
h     1.7999070    3.3238550   -0.6668600  0.00    0.0010161    0.0010205   -0.0002094
h     2.4572156   -1.5265057    0.1706470  0.00    0.0006883   -0.0010734    0.0001591
o     7.1610043    0.5770533   -0.5027015  0.00    0.0065077   -0.0049717   -0.0072269
o     6.1011079    1.8727449    1.2357199  0.00    0.0075374    0.0093495    0.0054933
h     5.2112476    2.0086385    1.7082105  0.00   -0.0151671    0.0023931    0.0004373
    27
 Energy =       0.2131854674
c    -1.3621964    2.5534613   -0.2383497  0.00   -0.0023300    0.0009859    0.0001995
c    -1.2452402    1.2169563    0.0142342  0.00   -0.0022276   -0.0019691    0.0003621
c    -0.0098253    0.6698302    0.0046374  0.00   -0.0013294   -0.0022311   -0.0000015
c    -0.2482775    3.3076904   -0.4963373  0.00    0.0001407    0.0028008   -0.0002371
c     0.9896656    2.7301593   -0.5027444  0.00    0.0014729    0.0021073   -0.0002317
c     1.0834069    1.3974838   -0.2438667  0.00    0.0012318    0.0006318   -0.0000378
n     0.3275061   -0.6888229    0.2428872  0.00   -0.0001059   -0.0005980    0.0005028
c     2.1711028    0.6061395   -0.1846058  0.00    0.0021108    0.0001943   -0.0001111
c     1.7534419   -0.6492066    0.0959772  0.00    0.0003986   -0.0023312   -0.0000166
h    -0.2974218   -1.4991699    0.4654699  0.00   -0.0012549   -0.0018913    0.0005834
c     3.6060574    1.0576366   -0.4337357  0.00   -0.0002448    0.0008887   -0.0004704
c     4.6865026    0.0603100    0.0740207  0.00   -0.0019372    0.0011561    0.0019211
h     3.7482489    2.0407636    0.0745149  0.00    0.0045579    0.0027917    0.0046601
h     3.7499868    1.2405691   -1.5256353  0.00    0.0001517    0.0007217   -0.0025859
c     6.0065665    0.7833637    0.3710664  0.00   -0.0007673   -0.0040367   -0.0030379
n     4.8830500   -1.0268024   -0.9134252  0.00    0.0113217    0.0080098   -0.0037198
h     4.3676180   -0.3644950    1.0571868  0.00   -0.0008261   -0.0008033    0.0028208
h     5.1020074   -1.9292479   -0.4083780  0.00    0.0014338   -0.0142199    0.0087189
h     4.0250345   -1.1924169   -1.5051915  0.00   -0.0115786    0.0006680   -0.0091732
h    -2.3452817    3.0205454   -0.2350989  0.00   -0.0012692    0.0004345    0.0001045
h    -2.1182001    0.6037324    0.2199624  0.00   -0.0014841   -0.0012511    0.0003960
h    -0.3498796    4.3731330   -0.6977845  0.00   -0.0000843    0.0017058   -0.0001952
h     1.8722868    3.3308071   -0.7105574  0.00    0.0014162    0.0012091   -0.0003168
h     2.3910467   -1.5234010    0.2068821  0.00    0.0011894   -0.0015522    0.0002095
o     7.1575206    0.4909395   -0.3619227  0.00    0.0058451   -0.0040635   -0.0060922
o     6.0765587    1.7534963    1.3845865  0.00    0.0070445    0.0086729    0.0051905
h     5.1793870    1.8867292    1.8419391  0.00   -0.0128758    0.0019692    0.0005580
    27
 Energy =       0.2122732276
c    -1.3245321    2.6323159   -0.3625486  0.00   -0.0024408    0.0012076    0.0001080
c    -1.2427813    1.2984979   -0.0831170  0.00   -0.0023614   -0.0016044    0.0003697
c    -0.0194063    0.7249368   -0.0501383  0.00   -0.0009984   -0.0016247    0.0000231
c    -0.1881249    3.3576515   -0.6042337  0.00   -0.0003728    0.0028396   -0.0003123
c     1.0371948    2.7537458   -0.5668492  0.00    0.0017826    0.0017343   -0.0002877
c     1.0954202    1.4243702   -0.2817954  0.00    0.0010566    0.0003825   -0.0000493
n     0.2822063   -0.6363315    0.2208320  0.00   -0.0006520   -0.0010042    0.0005165
c     2.1642755    0.6116253   -0.1784314  0.00    0.0019340   -0.0001104   -0.0000247
c     1.7126057   -0.6293134    0.1131492  0.00    0.0011685   -0.0021135    0.0000012
h    -0.3658098   -1.4292518    0.4400105  0.00   -0.0012747   -0.0018459    0.0005510
c     3.6151033    1.0307078   -0.3920413  0.00    0.0002643    0.0009275   -0.0006274
c     4.6626543    0.0084071    0.1333687  0.00   -0.0015256    0.0001841    0.0008382
h     3.7661205    2.0085950    0.1224529  0.00    0.0033134    0.0020882    0.0032550
h     3.7875930    1.2136581   -1.4794854  0.00    0.0001478    0.0006053   -0.0021820
c     5.9853893    0.7042444    0.4798575  0.00   -0.0000871   -0.0033466   -0.0026235