24
UFF-Energy = 1.29098
C     0.8129303    2.4927264   -0.3002182 
C    -0.3311446    2.2111064    0.3643678 
C    -0.5854345    0.9309724    0.7546038 
C     1.6945294    1.5016859   -0.5749356 
C     1.4471687    0.2211188   -0.2053570 
C     0.3030937   -0.0599560    0.4756787 
O    -1.2255178    3.2513489    0.6348116 
H    -2.0569327    2.9652797    1.1398513 
H     0.0920410   -1.0747715    0.8031276 
H     2.7161965    1.6410552   -1.1508481 
H     1.0152601    3.5135206   -0.6059196 
H    -1.4974074    0.6998433    1.2936608 
C     2.4823595   -0.8613951   -0.4940017 
C     3.1881275   -0.7088131   -1.8756077 
H     1.9856611   -1.8553428   -0.4493255 
H     3.2486866   -0.8572327    0.3131610 
C     4.1578217    0.5037370   -1.9131574 
O     3.6651147    1.7871486   -1.6888274 
O     5.5186238    0.3768901   -2.1667146 
H     5.8091373   -0.5866576   -2.1273359 
N     3.8475738   -1.9860037   -2.2168257 
H     2.4104404   -0.4827025   -2.6455402 
H     3.1469791   -2.7661002   -2.1975360 
H     4.1673771   -1.9465071   -3.2156600 
