24
UFF-Energy = 0.0902283
C     0.8461751    2.1921712    0.7255592 
C    -0.0193119    2.7374510   -0.1596894 
C    -0.3477238    2.0654903   -1.2867754 
C     1.3827251    0.9680492    0.4892045 
C     1.0563680    0.2839751   -0.6429632 
C     0.1845896    0.8406923   -1.5303378 
O    -0.5656629    3.9934284    0.0845764 
H    -1.4252180    3.9128379    0.6167353 
H    -0.0917438    0.3129064   -2.4396449 
H     2.0747349    0.5407600    1.2105245 
H     1.1069655    2.7461544    1.6207449 
H    -1.0370690    2.5178187   -1.9920477 
C     1.6616520   -1.0786344   -0.9083024 
C     3.1626025   -0.9965592   -1.2974756 
H     1.1033589   -1.6211087   -1.7053992 
H     1.5447078   -1.6954028    0.0122992 
C     3.8328912   -2.3736017   -1.2843959 
O     3.0697779   -3.5286700   -1.1394330 
O     5.2184066   -2.4994293   -1.3895035 
H     5.6554839   -1.6095862   -1.5790469 
N     3.3394722   -0.3522123   -2.6165200 
H     3.6918978   -0.4066124   -0.5136249 
H     2.4523120    0.0594212   -2.9877650 
H     4.0124235    0.4456150   -2.5296961 
