24
UFF-Energy = 0.0625821
C     1.7529376    2.5000388   -0.2457007 
C     0.4537007    2.7440934   -0.5320568 
C    -0.3713925    1.7222389   -0.8554053 
C     2.2358123    1.2323630   -0.2950112 
C     1.4131859    0.1977272   -0.6262923 
C     0.1030962    0.4513653   -0.9030595 
O    -0.0366979    4.0453327   -0.4860011 
H     0.0782978    4.5042408   -1.3827107 
H    -0.5743373   -0.3592529   -1.1586373 
H     3.2798915    1.0495635   -0.0527905 
H     2.3973251    3.3269675    0.0319427 
H    -1.4147270    1.9296788   -1.0693446 
C     1.9417527   -1.2225504   -0.6669058 
C     2.0155581   -1.8962298    0.7271626 
H     2.9539792   -1.2290702   -1.1321960 
H     1.3068584   -1.8466727   -1.3340735 
C     3.0920888   -1.2831342    1.6091853 
O     2.8186033   -0.1967364    2.4350151 
O     4.3991602   -1.7442826    1.5149086 
H     4.9718839   -1.2384827    2.1785931 
N     0.6943500   -1.9212416    1.3818886 
H     2.3480038   -2.9491137    0.5798655 
H     0.4128954   -0.9484402    1.6562905 
H    -0.0284554   -2.2858097    0.7191574 
