24
UFF-Energy = 0.0695435
C     0.9832801    2.4206720   -2.0326028 
C    -0.3367214    2.6558225   -1.8081209 
C    -0.9921392    1.9375111   -0.8686841 
C     1.6380601    1.4699307   -1.3193715 
C     0.9786408    0.7418290   -0.3751885 
C    -0.3411964    0.9884791   -0.1492338 
O    -1.0404455    3.6307680   -2.5245944 
H    -0.4835936    4.1147087   -3.2202563 
H    -0.8904135    0.4230422    0.6001408 
H     2.6938552    1.2991875   -1.5104907 
H     1.5181996    2.9930509   -2.7822902 
H    -2.0460079    2.1315837   -0.7027552 
C     1.7057875   -0.3230780    0.4242518 
C     1.4246082   -1.7712874   -0.0645010 
H     1.4150312   -0.2252981    1.4944798 
H     2.8041579   -0.1415281    0.4006106 
C    -0.0517283   -2.1621779    0.0871027 
O    -0.9175403   -2.0975065   -0.9982803 
O    -0.5778244   -2.5131761    1.3310725 
H     0.1164594   -2.4964970    2.0616312 
N     1.9798627   -2.0058363   -1.4198507 
H     1.9642931   -2.4638509    0.6198375 
H     1.2359819   -2.3065927   -2.0955043 
H     2.3926729   -1.1413325   -1.8369725 
