24
UFF-Energy = 0.0704128
C     1.5860877    2.5485538    0.6261067 
C     0.5360099    3.0277943   -0.0777943 
C    -0.0898089    2.2264194   -0.9800118 
C     2.0182971    1.2770479    0.4364658 
C     1.3944705    0.4676786   -0.4649114 
C     0.3348667    0.9517077   -1.1705954 
O     0.1214482    4.3445270    0.1462644 
H    -0.6545913    4.6394459   -0.4365767 
H    -0.1695207    0.3273445   -1.9052222 
H     2.8671981    0.9152847    1.0099011 
H     2.0791383    3.1972789    1.3415779 
H    -0.9274396    2.6046858   -1.5554719 
C     1.8808579   -0.9514081   -0.6876686 
C     2.8702672   -1.0916692   -1.8728493 
H     1.0046835   -1.6174278   -0.8608426 
H     2.3657028   -1.3324637    0.2379707 
C     2.1967979   -0.8535960   -3.2171188 
O     1.9696029    0.4331377   -3.6870806 
O     1.7250371   -1.9297253   -3.9562345 
H     2.5060654   -2.3858489   -4.4051895 
N     4.0623187   -0.2433240   -1.6843144 
H     3.2028918   -2.1538165   -1.9099734 
H     3.8043379    0.7658577   -1.8186138 
H     4.4368851   -0.3470504   -0.7126097 
