24
UFF-Energy = 0.0746266
C     2.6411990    2.8300136   -1.0805469 
C     1.8108362    3.2279118   -0.0896463 
C     1.1479005    2.2964379    0.6473503 
C     2.8148606    1.5102854   -1.3429645 
C     2.1502496    0.5723197   -0.6111992 
C     1.3169631    0.9745257    0.3891564 
O     1.6586310    4.5971888    0.1507395 
H     1.0185762    4.8194886    0.9058720 
H     0.7804669    0.2434381    0.9895721 
H     3.4892804    1.2110122   -2.1420820 
H     3.1657592    3.5820579   -1.6613283 
H     0.4819243    2.6083532    1.4447398 
C     2.3422918   -0.9008686   -0.9098724 
C     1.6658700   -1.3300966   -2.2443087 
H     1.9565917   -1.5365022   -0.0792296 
H     3.4409102   -1.0995698   -0.9528794 
C     2.2191248   -2.6979168   -2.6980137 
O     3.5895948   -2.7785232   -2.9035831 
O     1.4864078   -3.8721365   -2.8847326 
H     0.4998782   -3.7431801   -2.9730569 
N     0.1874795   -1.1679587   -2.1618765 
H     2.0238640   -0.6467121   -3.0496127 
H    -0.3699505   -2.0126936   -2.3835625 
H    -0.1385753   -0.8469577   -1.2165468 
