24
UFF-Energy = 0.0735483
C     0.6669770    2.4824041   -0.0679223 
C    -0.2852132    2.1704364    0.8412952 
C    -0.5170541    0.8767941    1.1620270 
C     1.3878473    1.4997239   -0.6649945 
C     1.1610576    0.1950670   -0.3461305 
C     0.1990035   -0.1115822    0.5682671 
O    -1.0237045    3.1801554    1.4509294 
H    -1.8628657    3.3795521    0.9168342 
H    -0.0043252   -1.1476084    0.8262797 
H     2.1382559    1.7650544   -1.4062565 
H     0.8426323    3.5235507   -0.3155892 
H    -1.2806005    0.6411087    1.8954386 
C     1.9368778   -0.9051930   -1.0367685 
C     1.1935136   -1.4408702   -2.2739411 
H     2.1098752   -1.7455744   -0.3271829 
H     2.9512754   -0.5479955   -1.3201690 
C     0.9622266   -0.3575501   -3.3327476 
O    -0.3375094    0.0053436   -3.6599996 
O     2.0207480    0.2793991   -3.9810334 
H     2.9116688   -0.0682022   -3.6615563 
N     1.9465982   -2.6063596   -2.7834641 
H     0.1741581   -1.7650382   -1.9508394 
H     1.3052468   -3.4321697   -2.8539966 
H     2.3080836   -2.4446311   -3.7547661 
