24
UFF-Energy = 0.0439565
C     1.8785789    2.7005879    0.1928002 
C     0.7083914    3.1183997   -0.3598688 
C    -0.1073519    2.2199180   -0.9567291 
C     2.2250657    1.3892405    0.1463947 
C     1.4013880    0.4829368   -0.4488897 
C     0.2337509    0.9073350   -1.0058903 
O     0.3222463    4.4621335   -0.3311552 
H     0.9840564    5.0723511    0.1362820 
H    -0.4305080    0.2012640   -1.4987793 
H     3.1661977    1.0706344    0.5883573 
H     2.5407094    3.4143125    0.6711898 
H    -1.0359611    2.5669444   -1.3968650 
C     1.7974499   -0.9756858   -0.5173719 
C     2.7668942   -1.2605549   -1.6836054 
H     0.8985808   -1.6238194   -0.6293501 
H     2.2671094   -1.2712088    0.4480768 
C     3.3646237   -2.6582860   -1.5817489 
O     2.8333366   -3.6125671   -0.7188260 
O     4.4573684   -2.9931026   -2.3707715 
H     4.7129516   -3.9545597   -2.1832536 
N     2.0563659   -1.0730512   -2.9618243 
H     3.6332559   -0.5609880   -1.6242777 
H     1.9494657   -0.0474734   -3.1411549 
H     2.6624741   -1.4285168   -3.7426532 
