24
UFF-Energy = 0.0528836
C     1.7023881    2.7013869    0.4404741 
C     0.4445691    2.9316175    0.8991149 
C    -0.5129608    1.9952309    0.7195712 
C     1.9969025    1.5363451   -0.1907969 
C     1.0386317    0.5821789   -0.3618901 
C    -0.2247585    0.8283428    0.0896703 
O     0.1076397    4.1215550    1.5518821 
H     0.8814582    4.7683428    1.6617809 
H    -1.0132060    0.0916691   -0.0443190 
H     3.0031883    1.3879942   -0.5662143 
H     2.4755067    3.4506368    0.5733989 
H    -1.5140214    2.1939516    1.0873319 
C     1.3523024   -0.7277819   -1.0719588 
C     2.0394971   -1.8219210   -0.1901855 
H     1.9852370   -0.5158371   -1.9638880 
H     0.4132655   -1.1597794   -1.4845498 
C     3.5376123   -1.5940259    0.0581723 
O     4.2246411   -0.6330487   -0.6761356 
O     4.2940977   -2.4472812    0.8638853 
H     3.7320494   -3.1760717    1.2792372 
N     1.2674238   -2.1227319    1.0360499 
H     2.0329075   -2.7514766   -0.7975729 
H     1.8896424   -2.1812240    1.8705412 
H     0.5673822   -1.3858783    1.2707586 
