24
UFF-Energy = 0.0652283
C     1.1886584    1.7453695    1.0435491 
C     0.2405188    2.5407093    0.4986349 
C    -0.2134775    2.2815397   -0.7557692 
C     1.6921820    0.6962910    0.3448193 
C     1.2494424    0.4374649   -0.9172879 
C     0.2884015    1.2348886   -1.4602520 
O    -0.2482058    3.6164434    1.2467557 
H    -0.9862247    4.1406211    0.7903684 
H    -0.0945704    1.0240208   -2.4548477 
H     2.4417004    0.0618505    0.8107205 
H     1.5339548    1.9544795    2.0505515 
H    -0.9831688    2.9073399   -1.1930970 
C     1.8016048   -0.7422970   -1.6975763 
C     0.7824132   -1.8912537   -1.8509237 
H     2.7177783   -1.1355020   -1.2039305 
H     2.1243489   -0.3950526   -2.7032406 
C     0.1633588   -2.2804318   -0.5010526 
O    -1.1182439   -1.8576731   -0.1683893 
O     0.8823569   -3.0294693    0.4311496 
H     1.7973825   -3.2807629    0.0906648 
N    -0.2207959   -1.5092862   -2.8632730 
H     1.3264489   -2.7934406   -2.2143601 
H     0.1778023   -1.6687551   -3.8184264 
H    -1.0547700   -2.1427640   -2.7881525 
