24
UFF-Energy = 2.81099
C     0.3777839    2.1993994    0.1374514 
C     0.2366138    2.5176265    0.6838953 
C     0.8744326    1.5432369   -0.4683996 
C     1.3479251    2.0221716    1.4944080 
C     1.8645362    1.2677406    0.4046768 
C     1.4634513    0.9816760   -1.1668818 
O    -1.4669392    3.8080386    0.4543412 
H    -2.4027057    4.5739913    0.4710057 
H     1.2820866    0.6747835   -2.5973797 
H     2.3534058    1.5355901    2.3613974 
H     0.2155170    2.6972857    1.1268341 
H    -0.3896014    1.5871966   -1.9747446 
C     2.7863409    0.4112961    0.8320327 
C     2.9113806   -0.6175079   -1.2338223 
H     2.6227692    0.4498667    0.5031042 
H     2.7291828    0.0555565   -0.1416498 
C     2.7651773   -0.9131176   -3.1833363 
O     1.4984128   -1.1165581   -4.1043344 
O     2.2352278   -0.8102628   -4.8538203 
H     2.6812623   -0.6838738   -6.0193524 
N     4.1541004   -1.9240397   -1.3101571 
H     2.6742847   -0.9006807   -2.5349465 
H     3.8786534   -1.4887338   -0.7665198 
H     4.2465384   -1.9464711   -2.3805492 
