24
UFF-Energy = 0.0544211
C     2.2307927    2.3248221    0.8921696 
C     1.0058597    2.7903874    1.2257030 
C    -0.1025490    2.1944880    0.7303660 
C     2.3519741    1.2533881    0.0674935 
C     1.2402537    0.6372099   -0.4255878 
C     0.0099293    1.1210379   -0.0930065 
O     0.8859575    3.8890766    2.0705371 
H     0.8471115    3.5911149    3.0391858 
H    -0.8916685    0.6577093   -0.4847467 
H     3.3442336    0.8886874   -0.1904926 
H     3.1101376    2.8194742    1.2902550 
H    -1.0787060    2.5867075    0.9957128 
C     1.3732900   -0.5654450   -1.3417537 
C     1.6802374   -1.8883510   -0.5916044 
H     2.1841918   -0.3701726   -2.0804119 
H     0.4486291   -0.7003140   -1.9455375 
C     3.0179173   -1.8313830    0.1397215 
O     4.1986728   -1.8705903   -0.5906294 
O     3.0872194   -1.6453535    1.5155339 
H     4.0603540   -1.6439099    1.7938890 
N     0.5398725   -2.3236449    0.2530207 
H     1.8347712   -2.6738450   -1.3660721 
H     0.8332220   -2.4267121    1.2556268 
H    -0.2341327   -1.6230382    0.2649479 
