24
UFF-Energy = 0.0648099
C     2.2803960    2.5216583   -0.2775604 
C     1.0183661    2.9173693   -0.5932284 
C     0.0974498    1.9933248   -0.9496689 
C     2.6138253    1.2067674   -0.3201242 
C     1.6876936    0.2757860   -0.6815590 
C     0.4250005    0.6770111   -0.9940094 
O     0.6418398    4.2635220   -0.5582177 
H     1.3870180    4.8959219   -0.2869132 
H    -0.3300289   -0.0510778   -1.2818885 
H     3.6261837    0.9063907   -0.0622083 
H     3.0250824    3.2560682    0.0101616 
H    -0.9058577    2.3226085   -1.1985103 
C     2.0466778   -1.1932104   -0.7161008 
C     1.5093991   -1.9583161    0.5161947 
H     3.1480533   -1.3366209   -0.7969263 
H     1.6212470   -1.6419337   -1.6443642 
C     1.6856808   -3.4519214    0.3199666 
O     0.6847010   -4.1856898   -0.2988410 
O     2.8787480   -4.0787157    0.6523938 
H     2.8753936   -4.2567944    1.6462918 
N     2.1671417   -1.4944162    1.7527786 
H     0.4075451   -1.8075623    0.6037960 
H     3.2087840   -1.5636561    1.6497139 
H     1.9268909   -0.4914253    1.9309736 
