24
UFF-Energy = 0.0726884
C     1.9925174    2.5317952   -0.3136724 
C     0.7012494    2.9191271   -0.1336707 
C    -0.2858682    1.9957336   -0.1784283 
C     2.2883844    1.2266090   -0.5395309 
C     1.2941541    0.2983236   -0.5962646 
C     0.0037640    0.6901698   -0.4072281 
O     0.3627051    4.2558579    0.1002086 
H     1.1568886    4.8861222    0.1265167 
H    -0.8031267   -0.0396968   -0.4254967 
H     3.3260859    0.9307619   -0.6735941 
H     2.7912504    3.2646944   -0.2744814 
H    -1.3107811    2.3148228   -0.0228488 
C     1.6260490   -1.1616887   -0.8194011 
C     1.9302800   -1.8919117    0.5100894 
H     2.5067649   -1.2375549   -1.4958992 
H     0.7856147   -1.6742398   -1.3420781 
C     0.7082763   -1.8762277    1.4390966 
O    -0.3832851   -2.6845006    1.1429466 
O     0.6238184   -1.0164469    2.5349018 
H     1.4407071   -0.4328206    2.6310497 
N     2.4336508   -3.2625482    0.2461917 
H     2.7450347   -1.3413107    1.0303616 
H     1.7945605   -3.9918382    0.6495210 
H     2.4954512   -3.4823417   -0.7758793 
