24
UFF-Energy = 0.0510686
C     1.8432242    2.6285151    0.2193511 
C     0.5726117    2.8416521    0.6310975 
C    -0.3622644    1.8779874    0.4686115 
C     2.1856062    1.4458683   -0.3529113 
C     1.2504416    0.4680256   -0.5188704 
C    -0.0272256    0.6925863   -0.1012228 
O     0.2259294    4.0549303    1.2164131 
H     0.3724883    4.0209184    2.2194547 
H    -0.7849718   -0.0783038   -0.2133852 
H     3.2135007    1.2843119   -0.6701996 
H     2.5806387    3.4126653    0.3534962 
H    -1.3785620    2.0620299    0.8004311 
C     1.6294166   -0.8632797   -1.1404311 
C     2.0049295   -1.9278052   -0.0863713 
H     2.4773994   -0.7284067   -1.8490333 
H     0.7816054   -1.2419212   -1.7518124 
C     3.2553896   -1.5437967    0.7037838 
O     4.3009912   -0.8686731    0.0804470 
O     3.4251479   -1.9674920    2.0167558 
H     4.3264259   -1.6484369    2.3480836 
N     0.8340021   -2.1855550    0.7740901 
H     2.2807654   -2.8641132   -0.6229557 
H     0.1506061   -2.7784174    0.2491131 
H     1.1306340   -2.7496155    1.6087446 
