24
UFF-Energy = 0.0745955
C     2.6324073    2.5728198   -0.0108150 
C     1.5969623    3.2728114   -0.5290696 
C     0.5138865    2.6217417   -1.0119126 
C     2.5845927    1.2169870    0.0346276 
C     1.4927566    0.5547761   -0.4401651 
C     0.4583040    1.2661554   -0.9699583 
O     1.6508018    4.6620719   -0.5768322 
H     1.2731663    5.0652327    0.2736557 
H    -0.4144806    0.7558993   -1.3709424 
H     3.4264390    0.6673263    0.4491870 
H     3.5002299    3.1078094    0.3597902 
H    -0.3033677    3.1944526   -1.4378613 
C     1.4479451   -0.9569555   -0.4086993 
C     2.2234395   -1.5863490   -1.5840213 
H     0.3964016   -1.3228015   -0.4339170 
H     1.8692048   -1.3136104    0.5587314 
C     2.4176169   -3.0755683   -1.3496963 
O     3.6303668   -3.6731543   -1.6591750 
O     1.3778714   -3.8613307   -0.8713271 
H     0.7785119   -4.0974249   -1.6490656 
N     1.4974499   -1.3330576   -2.8417153 
H     3.2480555   -1.1467334   -1.6357095 
H     1.5828446   -0.3175891   -3.0840432 
H     1.9832888   -1.8393348   -3.6219209 
