    13
 Energy =       0.1155558451
c    -3.7133889    1.6950595    0.3173519  0.00   -0.1087880    0.0593216    0.0058562
c    -2.4962693    2.6345192    0.2419999  0.00    0.3733467   -0.0421531    0.0879333
c    -4.9565486    2.3924193   -0.2155699  0.00    0.0450128    0.0208929    0.0074336
h    -4.7854386    2.7464192   -1.2386596  0.00    0.0044584   -0.0025037    0.0185565
h    -5.2149185    3.2645991    0.3947669  0.00    0.0020381   -0.0140945   -0.0122017
h    -5.8205083    1.7195795   -0.2420919  0.00    0.0118371    0.0112249   -0.0059869
n    -3.4097890    0.4519539   -0.4549189  0.00    0.0437695   -0.0411550   -0.0483720
h    -3.8575589    1.4177196    1.3669296  0.00   -0.0009680   -0.0030036   -0.0229303
h    -4.2340588    0.2238779   -1.0206697  0.00    0.0222304    0.0312380    0.0206936
h    -2.6878492    0.6694128   -1.1486897  0.00   -0.0287800    0.0096810    0.0336142
o    -1.4040496    2.4172293    0.7380088  0.00   -0.2648743    0.0527085   -0.1121978
o    -2.7835192    3.7545589   -0.4737969  0.00   -0.0715417   -0.0626611    0.0032851
h    -2.2118794    3.7013989   -1.2803496  0.00   -0.0277409   -0.0194958    0.0243162
    13
 Energy =       0.0817445176
c    -3.6774018    1.6946235    0.2854154  0.00   -0.0324535    0.0185142    0.0008382
c    -2.5210052    2.6828389    0.2168102  0.00    0.1226323   -0.0190816    0.0186544
c    -4.9804933    2.3604669   -0.1708320  0.00    0.0211474    0.0119122    0.0016191
h    -4.8749130    2.7429126   -1.2059664  0.00    0.0044538    0.0018289    0.0049481
h    -5.2206180    3.2250227    0.4796309  0.00    0.0005261   -0.0041884   -0.0031843
h    -5.8286140    1.6480551   -0.1256392  0.00    0.0015044    0.0018202   -0.0010003
n    -3.3983784    0.4740582   -0.5111381  0.00    0.0136265   -0.0146089   -0.0118089
h    -3.7613653    1.4036472    1.3540638  0.00   -0.0000590   -0.0014304   -0.0056275
h    -4.2264183    0.1994042   -1.0789762  0.00    0.0064564    0.0103262    0.0055193
h    -2.6286135    0.6498951   -1.1916003  0.00   -0.0067581    0.0044154    0.0099308
o    -1.3432520    2.4216155    0.7813879  0.00   -0.0875999    0.0155246   -0.0348749
o    -2.7440711    3.8723210   -0.4451805  0.00   -0.0571825    0.0009939    0.0619386
h    -2.3706325    3.7138863   -1.4036646  0.00    0.0137060   -0.0260262   -0.0469526
    13
 Energy =       0.0754377382
c    -3.6752886    1.6688289    0.2541001  0.00   -0.0158969    0.0102914    0.0013433
c    -2.5611173    2.7120470    0.2530487  0.00    0.0559908   -0.0075939    0.0060187
c    -5.0207735    2.2968532   -0.1473691  0.00    0.0100039    0.0078968    0.0014355
h    -4.9541475    2.7216608   -1.1729775  0.00    0.0029219    0.0020117    0.0009053
h    -5.2829368    3.1282393    0.5432687  0.00   -0.0005381   -0.0007456   -0.0006231
h    -5.8348904    1.5415228   -0.1087378  0.00   -0.0004200   -0.0001980    0.0000293
n    -3.3580584    0.5083380   -0.6185398  0.00    0.0063173   -0.0123658   -0.0041652
h    -3.7397531    1.3077365    1.3081545  0.00   -0.0008311   -0.0018991   -0.0000593
h    -4.1598675    0.2465998   -1.2377293  0.00    0.0018736    0.0027591   -0.0004400
h    -2.5562402    0.7275632   -1.2571671  0.00    0.0000852    0.0030235    0.0020363
o    -1.3674802    2.4627282    0.8617526  0.00   -0.0388759    0.0078253   -0.0141360
o    -2.7690476    3.9204873   -0.3899143  0.00   -0.0301642    0.0039315    0.0428678
h    -2.2961752    3.8461423   -1.3035786  0.00    0.0095335   -0.0149369   -0.0352127
    13
 Energy =       0.0740212398
c    -3.7043756    1.6827714    0.2607110  0.00   -0.0114251    0.0101805    0.0033793
c    -2.6043359    2.7415830    0.2935235  0.00    0.0402659   -0.0054656    0.0021344
c    -5.0365244    2.2711885   -0.2496298  0.00    0.0043455    0.0050955    0.0004773
h    -4.9166006    2.6447732   -1.2929780  0.00    0.0021202    0.0022535   -0.0021192
h    -5.3504012    3.1334950    0.3845156  0.00   -0.0016850    0.0018827    0.0014342
h    -5.8410999    1.5052015   -0.2205577  0.00   -0.0006409   -0.0001279   -0.0001079
n    -3.3181666    0.4936180   -0.5471290  0.00    0.0066059   -0.0125604    0.0000576
h    -3.8297277    1.3619558    1.3246475  0.00   -0.0006724   -0.0016707    0.0026811
h    -4.0701300    0.2060605   -1.2205231  0.00   -0.0018829    0.0005680   -0.0038431
h    -2.4625795    0.6861755   -1.1276507  0.00    0.0044851    0.0020957   -0.0023199
o    -1.4390085    2.5210357    0.9831165  0.00   -0.0254232    0.0053596   -0.0076158
o    -2.7901311    3.9415576   -0.3741479  0.00   -0.0294782    0.0049187    0.0433006
h    -2.2126955    3.8993317   -1.2295870  0.00    0.0133853   -0.0125295   -0.0374585
    13
 Energy =       0.0735690013
c    -3.7062081    1.6899731    0.2639320  0.00   -0.0095031    0.0092279    0.0055354
c    -2.5777813    2.7196117    0.2555732  0.00    0.0342132   -0.0101411    0.0035064
c    -5.0450370    2.3170467   -0.1836144  0.00    0.0022998    0.0041642    0.0000243
h    -4.9612857    2.6931083   -1.2302181  0.00    0.0018394    0.0020688   -0.0026469
h    -5.3074874    3.1845275    0.4680795  0.00   -0.0018825    0.0027748    0.0022107
h    -5.8683526    1.5719749   -0.1237730  0.00   -0.0014222   -0.0004602   -0.0001837
n    -3.3860154    0.4953614   -0.5661121  0.00    0.0075803   -0.0132477   -0.0001840
h    -3.7952347    1.3663202    1.3312696  0.00   -0.0005706   -0.0012733    0.0031935
h    -4.1642735    0.2468595   -1.2266523  0.00   -0.0031090   -0.0001747   -0.0047571
h    -2.5363862    0.6598611   -1.1639040  0.00    0.0048947    0.0019580   -0.0026125
o    -1.4623899    2.5352206    1.0442438  0.00   -0.0177998    0.0006893   -0.0009250
o    -2.6941065    3.8626190   -0.5329010  0.00   -0.0331053    0.0167101    0.0370256
h    -2.0712181    3.7462633   -1.3516123  0.00    0.0165650   -0.0122962   -0.0401868
    13
 Energy =       0.0739562696
c    -3.7076397    1.6844366    0.2563736  0.00   -0.0093050    0.0087119    0.0050929
c    -2.6018133    2.7386947    0.2865788  0.00    0.0290930   -0.0086133    0.0015322
c    -5.0520945    2.2894687   -0.2035539  0.00    0.0020914    0.0038684   -0.0000500
h    -4.9614383    2.6779943   -1.2448078  0.00    0.0017109    0.0018776   -0.0025035
h    -5.3407883    3.1445963    0.4534694  0.00   -0.0018144    0.0028163    0.0022425
h    -5.8608295    1.5268515   -0.1632445  0.00   -0.0016321   -0.0006780   -0.0001410
n    -3.3497111    0.5090503   -0.5854392  0.00    0.0067030   -0.0126781    0.0012702
h    -3.8091063    1.3424740    1.3169126  0.00   -0.0006651   -0.0011513    0.0031510
h    -4.1001632    0.2704225   -1.2821129  0.00   -0.0039180   -0.0007886   -0.0055339
h    -2.4759951    0.6871024   -1.1446553  0.00    0.0058983    0.0019855   -0.0033994
o    -1.5193914    2.5897966    1.1320490  0.00   -0.0131271    0.0005900    0.0012424
o    -2.7098127    3.8753645   -0.5114134  0.00   -0.0300020    0.0150902    0.0332751
h    -2.0869932    3.7524949   -1.3258456  0.00    0.0149669   -0.0110306   -0.0361785
    13
 Energy =       0.0744170471
c    -3.7089587    1.6789543    0.2487695  0.00   -0.0090279    0.0082080    0.0046001
c    -2.6231617    2.7526066    0.3173004  0.00    0.0250058   -0.0073519    0.0000818
c    -5.0570677    2.2676495   -0.2204606  0.00    0.0019600    0.0035686   -0.0000543
h    -4.9600708    2.6712796   -1.2552154  0.00    0.0016014    0.0017263   -0.0024040
h    -5.3682785    3.1089539    0.4440978  0.00   -0.0017368    0.0028056    0.0022424
h    -5.8530115    1.4905545   -0.2006343  0.00   -0.0017665   -0.0008549   -0.0001048
n    -3.3190276    0.5241263   -0.6067380  0.00    0.0058440   -0.0120855    0.0025664
h    -3.8215352    1.3168172    1.3015341  0.00   -0.0007427   -0.0010723    0.0031271
h    -4.0425634    0.3010689   -1.3372783  0.00   -0.0045655   -0.0012929   -0.0062472
h    -2.4232928    0.7131289   -1.1272556  0.00    0.0067349    0.0020625   -0.0039585
o    -1.5752983    2.6298841    1.2128534  0.00   -0.0095938    0.0005439    0.0028370
o    -2.7180968    3.8849917   -0.4877412  0.00   -0.0274213    0.0136670    0.0300032
h    -2.1054135    3.7487317   -1.3049210  0.00    0.0137084   -0.0099243   -0.0326892
    13
 Energy =       0.0747360615
c    -3.7087983    1.6749538    0.2427072  0.00   -0.0085271    0.0076324    0.0041199
c    -2.6393617    2.7627607    0.3407241  0.00    0.0219256   -0.0064036   -0.0006757
c    -5.0603640    2.2515113   -0.2304855  0.00    0.0018330    0.0032774   -0.0000349
h    -4.9608498    2.6684839   -1.2594956  0.00    0.0014843    0.0015878   -0.0022642
h    -5.3878839    3.0805250    0.4414208  0.00   -0.0016313    0.0026949    0.0021535
h    -5.8457506    1.4634067   -0.2262904  0.00   -0.0017619   -0.0009238   -0.0000775
n    -3.2957047    0.5382555   -0.6252771  0.00    0.0051435   -0.0113247    0.0030320
h    -3.8275625    1.2953340    1.2885709  0.00   -0.0007624   -0.0010058    0.0030004
h    -3.9992546    0.3290004   -1.3792526  0.00   -0.0046357   -0.0014918   -0.0063343
h    -2.3855580    0.7360744   -1.1167937  0.00    0.0068342    0.0020218   -0.0040259
o    -1.6204224    2.6585419    1.2733842  0.00   -0.0073769    0.0004877    0.0036043
o    -2.7211247    3.8909947   -0.4709970  0.00   -0.0252037    0.0124269    0.0271943
h    -2.1231413    3.7389048   -1.2939045  0.00    0.0126785   -0.0089791   -0.0296919
    13
 Energy =       0.0748805532
c    -3.7086204    1.6720976    0.2379563  0.00   -0.0078988    0.0070212    0.0036763
c    -2.6506915    2.7687442    0.3584820  0.00    0.0195088   -0.0056785   -0.0009576
c    -5.0625004    2.2413243   -0.2364150  0.00    0.0017001    0.0029803   -0.0000155
h    -4.9619300    2.6692551   -1.2605987  0.00    0.0013607    0.0014540   -0.0021029
h    -5.4007766    3.0603792    0.4419736  0.00   -0.0015045    0.0025181    0.0020114
h    -5.8404619    1.4459709   -0.2440687  0.00   -0.0016718   -0.0009147   -0.0000597
n    -3.2801405    0.5502801   -0.6408108  0.00    0.0045753   -0.0104504    0.0029850
h    -3.8311166    1.2780912    1.2779357  0.00   -0.0007394   -0.0009382    0.0028187
h    -3.9708532    0.3513417   -1.4090276  0.00   -0.0043768   -0.0014922   -0.0060083
h    -2.3619359    0.7554115   -1.1133925  0.00    0.0064789    0.0018936   -0.0038204
o    -1.6542049    2.6753697    1.3173117  0.00   -0.0060131    0.0004227    0.0038057
o    -2.7187236    3.8934793   -0.4588487  0.00   -0.0230894    0.0113175    0.0246139
h    -2.1338208    3.7270025   -1.2861864  0.00    0.0116699   -0.0081335   -0.0269465
    13
 Energy =       0.0749199940
c    -3.7087185    1.6699393    0.2340839  0.00   -0.0072439    0.0064196    0.0032791
c    -2.6587630    2.7719288    0.3725111  0.00    0.0174724   -0.0050880   -0.0010179
c    -5.0640394    2.2351360   -0.2400263  0.00    0.0015666    0.0026947   -0.0000016
h    -4.9629465    2.6722684   -1.2600550  0.00    0.0012392    0.0013269   -0.0019381
h    -5.4094826    3.0460178    0.4441260  0.00   -0.0013743    0.0023210    0.0018533
h    -5.8368750    1.4350684   -0.2571253  0.00   -0.0015505   -0.0008712   -0.0000478
n    -3.2698812    0.5604775   -0.6541354  0.00    0.0040928   -0.0095630    0.0027555
h    -3.8337202    1.2638655    1.2689568  0.00   -0.0006966   -0.0008701    0.0026178
h    -3.9527122    0.3689642   -1.4307877  0.00   -0.0040127   -0.0014114   -0.0055351
h    -2.3475081    0.7720828   -1.1147528  0.00    0.0059702    0.0017341   -0.0035267
o    -1.6799569    2.6845677    1.3505655  0.00   -0.0050759    0.0003599    0.0037460
o    -2.7129361    3.8936177   -0.4495925  0.00   -0.0210589    0.0103072    0.0222161
h    -2.1382367    3.7148130   -1.2794573  0.00    0.0106716   -0.0073597   -0.0244007
    13
 Energy =       0.0748144193
c    -3.7101418    1.6595620    0.2142551  0.00   -0.0059715    0.0050492    0.0002975
c    -2.6947840    2.7814055    0.4410746  0.00    0.0055670   -0.0023171   -0.0028678
c    -5.0717601    2.2121719   -0.2516158  0.00    0.0015710    0.0012456    0.0003665
h    -4.9703525    2.6980324   -1.2493083  0.00    0.0008178    0.0011103   -0.0019994
h    -5.4467472    2.9806709    0.4648685  0.00   -0.0010610    0.0022015    0.0018204
h    -5.8222641    1.3927358   -0.3158334  0.00   -0.0015625   -0.0014926    0.0000689
n    -3.2282608    0.6141901   -0.7257843  0.00    0.0012209   -0.0076385    0.0010483
h    -3.8445987    1.1903544    1.2218049  0.00   -0.0010269   -0.0012396    0.0031338
h    -3.8827181    0.4560530   -1.5324018  0.00   -0.0024219   -0.0017037   -0.0042931
h    -2.2944145    0.8615900   -1.1409150  0.00    0.0047867    0.0012145   -0.0029545
o    -1.8032152    2.7148018    1.5093186  0.00    0.0047908   -0.0004418    0.0094736
o    -2.6670236    3.8854369   -0.4073999  0.00   -0.0146966    0.0083194    0.0093347
h    -2.1394957    3.6417425   -1.2437524  0.00    0.0079861   -0.0043072   -0.0134291
    13
 Energy =       0.0743893762
c    -3.7042095    1.6602435    0.2053929  0.00    0.0010592   -0.0001361   -0.0000308
c    -2.6933420    2.7774104    0.4455506  0.00   -0.0018525   -0.0026955    0.0043631
c    -5.0812068    2.2162998   -0.2069726  0.00   -0.0009674   -0.0005675    0.0000095
h    -5.0107990    2.7351476   -1.1888366  0.00   -0.0001416    0.0001336   -0.0004018
h    -5.4443650    2.9536541    0.5432007  0.00   -0.0001514    0.0001353   -0.0000056
h    -5.8249355    1.3948366   -0.2802001  0.00    0.0004628    0.0003492    0.0000197
n    -3.2396404    0.6573293   -0.7796991  0.00   -0.0016488   -0.0004926    0.0050256
h    -3.8077230    1.1543478    1.1954895  0.00    0.0001950   -0.0000043    0.0002406
h    -3.9451660    0.4738811   -1.5349742  0.00   -0.0025901    0.0002540   -0.0021164
h    -2.3524335    0.9544099   -1.2586822  0.00    0.0049512    0.0007734   -0.0023025
o    -1.8307116    2.7102646    1.5280477  0.00   -0.0007209   -0.0001545   -0.0026066
o    -2.5851428    3.8460314   -0.4389901  0.00    0.0026382    0.0011508   -0.0037629
h    -2.0561014    3.5548911   -1.2450156  0.00   -0.0012336    0.0012541    0.0015680
    13
 Energy =       0.0743868352
c    -3.7030656    1.6554841    0.2007946  0.00    0.0009891    0.0000332    0.0002130
c    -2.6783407    2.7602219    0.4411227  0.00   -0.0017803   -0.0023771    0.0038438
c    -5.0799515    2.2295710   -0.1872658  0.00   -0.0010506   -0.0004917   -0.0001050
h    -5.0169898    2.7598792   -1.1635691  0.00   -0.0001653    0.0001668   -0.0004647
h    -5.4266156    2.9610732    0.5766172  0.00   -0.0002112    0.0002835    0.0001546
h    -5.8324129    1.4160104   -0.2612621  0.00    0.0003639    0.0002680   -0.0000105
n    -3.2608689    0.6597072   -0.8021581  0.00   -0.0011504   -0.0007513    0.0044474
h    -3.7987762    1.1388794    1.1862151  0.00    0.0002085   -0.0000307    0.0003191
h    -3.9759441    0.4943789   -1.5526666  0.00   -0.0025461    0.0001253   -0.0021922
h    -2.3751825    0.9523477   -1.2860095  0.00    0.0044959    0.0006868   -0.0021045
o    -1.8036426    2.6730503    1.5129529  0.00   -0.0003805   -0.0001615   -0.0020281
o    -2.5708769    3.8375507   -0.4326733  0.00    0.0022397    0.0011911   -0.0033390
h    -2.0531091    3.5505931   -1.2477871  0.00   -0.0010127    0.0010577    0.0012660
    13
 Energy =       0.0743436816
c    -3.7002152    1.6556534    0.1971463  0.00    0.0005423   -0.0000008    0.0002076
c    -2.6786442    2.7661414    0.4274742  0.00   -0.0023187   -0.0013541   -0.0002085
c    -5.0853630    2.2262821   -0.1636683  0.00   -0.0006310   -0.0002452    0.0000048
h    -5.0381656    2.7713073   -1.1328572  0.00   -0.0000587    0.0002082   -0.0003954
h    -5.4260951    2.9441410    0.6156650  0.00   -0.0001832    0.0002581    0.0002063
h    -5.8340341    1.4090177   -0.2393586  0.00    0.0001304    0.0001020    0.0000237
n    -3.2706633    0.6682712   -0.8199293  0.00   -0.0001120   -0.0003966    0.0018655
h    -3.7781374    1.1316206    1.1803071  0.00    0.0000370   -0.0000941    0.0003003
h    -3.9854996    0.5239669   -1.5737366  0.00   -0.0012472   -0.0000920   -0.0011735
h    -2.3828197    0.9564974   -1.2983201  0.00    0.0018287    0.0003585   -0.0008609
o    -1.8484068    2.7257072    1.5402143  0.00    0.0017665   -0.0006960    0.0022432
o    -2.5461330    3.8124837   -0.4798133  0.00   -0.0003284    0.0021702   -0.0013574
h    -2.0015994    3.4976574   -1.2688127  0.00    0.0005743   -0.0002183   -0.0008558
    13
 Energy =       0.0743299931
c    -3.6950601    1.6509772    0.1906307  0.00   -0.0000044    0.0001827    0.0001465
c    -2.6736016    2.7623324    0.4198900  0.00    0.0002811    0.0003237   -0.0001694
c    -5.0866021    2.2227217   -0.1401400  0.00   -0.0000881   -0.0000167    0.0000202
h    -5.0546399    2.7847492   -1.1000137  0.00    0.0000029    0.0001039   -0.0001812
h    -5.4182369    2.9253847    0.6565802  0.00   -0.0000872    0.0001365    0.0001527
h    -5.8338603    1.4042410   -0.2195820  0.00   -0.0000303   -0.0000367    0.0000063
n    -3.2797408    0.6782443   -0.8465059  0.00    0.0003687   -0.0001379   -0.0004538
h    -3.7564770    1.1132854    1.1674654  0.00   -0.0000180   -0.0000787    0.0001664
h    -3.9998879    0.5515633   -1.5969975  0.00    0.0001213   -0.0001040   -0.0000352
h    -2.3956390    0.9696297   -1.3265676  0.00   -0.0003471   -0.0000834    0.0001435
o    -1.8588092    2.7358216    1.5421879  0.00   -0.0001300    0.0000776   -0.0002197
o    -2.5374665    3.8031620   -0.4901433  0.00    0.0000153   -0.0003818    0.0003247
h    -1.9857553    3.4866346   -1.2724933  0.00   -0.0000844    0.0000150    0.0000989
    13
 Energy =       0.0743296073
c    -3.6948025    1.6509945    0.1902559  0.00   -0.0000008    0.0000007   -0.0000007
c    -2.6740366    2.7628276    0.4199197  0.00   -0.0000105   -0.0000029   -0.0000090
c    -5.0867114    2.2221201   -0.1391740  0.00   -0.0000003   -0.0000001    0.0000003
h    -5.0555759    2.7849617   -1.0983846  0.00    0.0000002    0.0000004   -0.0000005
h    -5.4181744    2.9237563    0.6582391  0.00   -0.0000003    0.0000004    0.0000006
h    -5.8335955    1.4033825   -0.2189202  0.00   -0.0000000   -0.0000002    0.0000001
n    -3.2796206    0.6795268   -0.8477869  0.00   -0.0000004   -0.0000030    0.0000055
h    -3.7553406    1.1124393    1.1664815  0.00   -0.0000003   -0.0000007    0.0000006
h    -4.0012194    0.5518181   -1.5967597  0.00   -0.0000038    0.0000000   -0.0000027
h    -2.3968759    0.9727361   -1.3296945  0.00    0.0000055    0.0000030   -0.0000042
o    -1.8633826    2.7394097    1.5454872  0.00    0.0000118   -0.0000028    0.0000204
o    -2.5349441    3.8016519   -0.4924778  0.00   -0.0000057    0.0000086   -0.0000037
h    -1.9814969    3.4831228   -1.2728747  0.00    0.0000047   -0.0000034   -0.0000068
    13
 Energy =       0.0743296065
c    -3.6948097    1.6509938    0.1902766  0.00    0.0000000    0.0000000   -0.0000000
c    -2.6740041    2.7627896    0.4199438  0.00   -0.0000000   -0.0000000   -0.0000000
c    -5.0866822    2.2221525   -0.1392518  0.00   -0.0000000   -0.0000000    0.0000000
h    -5.0554874    2.7849239   -1.0985001  0.00    0.0000000    0.0000000   -0.0000000
h    -5.4181476    2.9238606    0.6580960  0.00   -0.0000000    0.0000000    0.0000000
h    -5.8335969    1.4034403   -0.2189699  0.00   -0.0000000   -0.0000000    0.0000000
n    -3.2796101    0.6794648   -0.8476992  0.00    0.0000000   -0.0000000   -0.0000000
h    -3.7554153    1.1124879    1.1665241  0.00   -0.0000000   -0.0000000    0.0000000
h    -4.0011951    0.5516947   -1.5966709  0.00   -0.0000000   -0.0000000   -0.0000000
h    -2.3968586    0.9726451   -1.3296048  0.00    0.0000000    0.0000000   -0.0000000
o    -1.8630799    2.7391300    1.5452945  0.00    0.0000001   -0.0000000    0.0000001
o    -2.5350889    3.8017778   -0.4922838  0.00   -0.0000000    0.0000001   -0.0000000
h    -1.9818005    3.4833862   -1.2728436  0.00    0.0000000   -0.0000000   -0.0000000
