    27
 Energy =       0.5627719425
c    -1.4235396    2.6054793   -0.0667700  0.00   -0.0461071    0.0384370    0.0033103
c    -1.3072796    1.2134697   -0.1072300  0.00   -0.0853156   -0.0326451    0.0023862
c    -0.0178900    0.6711998   -0.1697000  0.00   -0.0898182   -0.1888542   -0.0022506
c    -0.2940599    3.4190890   -0.0891300  0.00   -0.0180591    0.0684191    0.0035706
c     0.9872197    2.8590292   -0.1560400  0.00    0.3336627    0.4640310    0.2286972
c     1.1340797    1.4562096   -0.1970299  0.00    0.1325876    0.1482202   -0.0071360
n     0.3879399   -0.6395298   -0.2140799  0.00    0.1441809    0.1106744   -0.0006319
c     2.2666594    0.5727398   -0.2659299  0.00    0.1528344   -0.0826726   -0.0291603
c     1.7555995   -0.7123598   -0.2706899  0.00   -0.1008982   -0.0975481    0.0041512
h    -0.2400399   -1.4313496   -0.2047299  0.00    0.0368101    0.0480589   -0.0013761
c     3.7030089    1.0223397   -0.3320099  0.00   -0.0026831    0.0225233    0.0384254
c     4.0547688    2.2615794    0.5049969  0.00    0.0241610    0.0026096   -0.0827690
h     3.9407589    1.2278196   -1.3843196  0.00   -0.0007418   -0.0056144    0.0121663
h     4.3455988    0.1801669   -0.0411573  0.00   -0.0110406    0.0107693   -0.0049843
c     4.1070688    1.8611695    1.9910894  0.00    0.2028834   -0.2593107    0.2155002
n     3.0543991    3.3796390    0.3726399  0.00   -0.3765126   -0.1857952   -0.2587485
h     5.0442386    2.6531392    0.2410219  0.00   -0.0244336    0.0119463    0.0052157
h     3.5723190    4.2128988    0.0750977  0.00   -0.0847455   -0.0668657   -0.0069663
h     2.4528293    3.1644491   -0.4302769  0.00    0.1704292    0.5798524    0.5991115
h    -2.4108593    3.0588691   -0.0157800  0.00   -0.0008458    0.0002305   -0.0002969
h    -2.1896094    0.5822398   -0.0890100  0.00   -0.0035603    0.0038060   -0.0002287
h    -0.4052699    4.5000487   -0.0535400  0.00   -0.0000882    0.0006662   -0.0005535
h     1.8590495    3.5066790   -0.1715100  0.00   -0.1288800   -0.7997945   -0.4752814
h     2.2327294   -1.6813195   -0.3062999  0.00   -0.0408950   -0.0115226    0.0015822
o     4.8014086    0.9767787    2.4640193  0.00   -0.1775144    0.2068639   -0.1174532
o     3.2681291    2.6294493    2.7370692  0.00   -0.0037357    0.0217842   -0.0922380
h     3.8573289    3.1006291    3.3816090  0.00   -0.0016743   -0.0082691   -0.0340420
    27
 Energy =       0.5384596616
c    -1.4087510    2.6467039   -0.2202822  0.00   -0.0457386    0.0381028    0.0030933
c    -1.3194721    1.2499942   -0.2372284  0.00   -0.0840242   -0.0329657    0.0021268
c    -0.0423516    0.6832236   -0.2903456  0.00   -0.0894120   -0.1706795   -0.0032551
c    -0.2631425    3.4432928   -0.2219498  0.00   -0.0186032    0.0667275    0.0032419
c     1.0118294    2.8625850   -0.2575501  0.00    0.3066514    0.4438758    0.2085299
c     1.1143204    1.4473174   -0.3097836  0.00    0.1272223    0.1453811   -0.0017233
n     0.3564886   -0.6359080   -0.1866758  0.00    0.1449678    0.0963106    0.0005086
c     2.2446636    0.5652749   -0.3006234  0.00    0.1499550   -0.0791969   -0.0282246
c     1.7279634   -0.7183421   -0.2522151  0.00   -0.0998254   -0.0920060    0.0031037
h    -0.2781520   -1.4225902   -0.1130118  0.00    0.0342128    0.0442084   -0.0010763
c     3.6875020    1.0295902   -0.2836345  0.00   -0.0017399    0.0225864    0.0385892
c     4.0172545    2.2681409    0.5931268  0.00    0.0228412    0.0026060   -0.0829745
h     3.9760764    1.2525660   -1.3213948  0.00   -0.0002819   -0.0051783    0.0105607
h     4.3180816    0.1803841    0.0150863  0.00   -0.0106722    0.0105422   -0.0046284
c     4.0897779    1.8262596    2.0608998  0.00    0.1988577   -0.2533675    0.2084294
n     3.0327033    3.4162819    0.4765640  0.00   -0.3657313   -0.1735292   -0.2154325
h     5.0166680    2.6506781    0.3480697  0.00   -0.0236243    0.0116264    0.0050208
h     3.5934421    4.1904554    0.0481891  0.00   -0.0747207   -0.0557775   -0.0170573
h     2.4409855    3.0905980   -0.3019341  0.00    0.1604975    0.5394394    0.5388536
h    -2.3880842    3.1181054   -0.1745331  0.00   -0.0010320    0.0003251   -0.0002756
h    -2.2130561    0.6351537   -0.1905904  0.00   -0.0039377    0.0032552   -0.0001746
h    -0.3560235    4.5252424   -0.1593632  0.00    0.0001518    0.0012522   -0.0004787
h     1.9121158    3.4764208   -0.1312148  0.00   -0.1080621   -0.7625180   -0.4319676
h     2.2048292   -1.6913527   -0.1914163  0.00   -0.0384132   -0.0158768    0.0017954
o     4.8182657    0.9257164    2.4630439  0.00   -0.1717533    0.1996806   -0.1141396
o     3.3035215    2.5913282    2.8617330  0.00   -0.0078779    0.0219794   -0.0907243
h     3.9391303    3.0434329    3.4793444  0.00    0.0000924   -0.0068038   -0.0317207
    27
 Energy =       0.5105174558
c    -1.4319276    2.6065609   -0.0935064  0.00   -0.0437922    0.0362478    0.0027889
c    -1.3143071    1.2155099   -0.1165857  0.00   -0.0815799   -0.0339288    0.0015803
c    -0.0253258    0.6769237   -0.1419249  0.00   -0.0826041   -0.1357168   -0.0005195
c    -0.3029269    3.4203199   -0.1203408  0.00   -0.0180993    0.0623812    0.0029417
c     0.9789429    2.8622749   -0.1665656  0.00    0.2757500    0.4172136    0.1922193
c     1.1217593    1.4613652   -0.1512934  0.00    0.1144054    0.1340282    0.0076243
n     0.3784299   -0.6570650   -0.2361721  0.00    0.1403391    0.0693125   -0.0024567
c     2.2529910    0.5832805   -0.2164413  0.00    0.1419062   -0.0728243   -0.0257978
c     1.7542019   -0.7067520   -0.2361994  0.00   -0.0929241   -0.0801590    0.0032389
h    -0.2476235   -1.4623762   -0.2717649  0.00    0.0270615    0.0340375   -0.0017222
c     3.6898448    1.0342626   -0.3113119  0.00    0.0013084    0.0212350    0.0386577
c     4.0465155    2.2657749    0.5329542  0.00    0.0198471    0.0024845   -0.0792686
h     3.9059185    1.2533516   -1.3704546  0.00    0.0002859   -0.0043958    0.0074795
h     4.3437038    0.1916979   -0.0403381  0.00   -0.0095197    0.0098356   -0.0040959
c     4.1109511    1.8510616    2.0106321  0.00    0.1904480   -0.2425234    0.1980336
n     3.0564298    3.3920451    0.4020495  0.00   -0.3433993   -0.1600127   -0.1786098
h     5.0430582    2.6438824    0.2680810  0.00   -0.0223540    0.0111471    0.0047879
h     3.6034465    4.2007719    0.0476125  0.00   -0.0696809   -0.0512414   -0.0188763
h     2.4680392    3.1647354   -0.4534738  0.00    0.1567151    0.5141592    0.4636158
h    -2.4206112    3.0603699   -0.0677186  0.00   -0.0013525    0.0005396   -0.0002437
h    -2.1969903    0.5811538   -0.1218851  0.00   -0.0051707    0.0021995   -0.0002026
h    -0.4142170    4.5038720   -0.1134345  0.00    0.0003648    0.0030490   -0.0005228
h     1.8705179    3.5355362   -0.2008263  0.00   -0.0899610   -0.7214451   -0.3871082
h     2.2494833   -1.6763155   -0.2778704  0.00   -0.0356780   -0.0209739    0.0015162
o     4.8277891    0.9484700    2.4492131  0.00   -0.1639978    0.1902915   -0.1085761
o     3.2888926    2.6068094    2.7906268  0.00   -0.0092682    0.0208364   -0.0870962
h     3.8996003    3.0930317    3.4092490  0.00    0.0009500   -0.0057769   -0.0293877
    27
 Energy =       0.4062210021
c    -1.4159852    2.5724324   -0.2392623  0.00   -0.0313547    0.0267499    0.0022741
c    -1.2973245    1.1893319   -0.2245406  0.00   -0.0587496   -0.0248554    0.0011749
c    -0.0231485    0.6528286   -0.2271823  0.00   -0.0605740   -0.0887269   -0.0021920
c    -0.2927695    3.3848062   -0.2630919  0.00   -0.0136916    0.0448676    0.0024413
c     0.9848380    2.8357964   -0.2772859  0.00    0.2096078    0.2929005    0.1277455
c     1.1026903    1.4330674   -0.2379781  0.00    0.0804864    0.0992376    0.0068482
n     0.3756628   -0.6989822   -0.2000149  0.00    0.1025024    0.0414202    0.0006490
c     2.2328657    0.5934221   -0.2303937  0.00    0.1037259   -0.0518465   -0.0198312
c     1.7701406   -0.6988567   -0.2119435  0.00   -0.0677365   -0.0547943    0.0003666
h    -0.2399023   -1.5236160   -0.1829039  0.00    0.0183039    0.0222330   -0.0005050
c     3.6750216    1.0660945   -0.2705927  0.00    0.0010141    0.0152729    0.0280421
c     4.0046640    2.2902996    0.6226789  0.00    0.0144795    0.0013720   -0.0561955
h     3.9198574    1.3173948   -1.3195992  0.00    0.0005252   -0.0028915    0.0045519
h     4.3342874    0.2223843   -0.0009508  0.00   -0.0068998    0.0070330   -0.0029347
c     4.0465435    1.8604215    2.0875194  0.00    0.1382095   -0.1742425    0.1426658
n     3.0427724    3.4345572    0.4623268  0.00   -0.2548349   -0.1021611   -0.1173555
h     5.0209509    2.6491936    0.3875845  0.00   -0.0153960    0.0081497    0.0034581
h     3.6201526    4.2586733    0.1687711  0.00   -0.0469764   -0.0334183   -0.0134073
h     2.4322121    3.1253419   -0.4141390  0.00    0.0823143    0.3277909    0.3136575
h    -2.4053184    3.0250062   -0.2264717  0.00   -0.0010420    0.0004603   -0.0001453
h    -2.1772793    0.5520298   -0.2042993  0.00   -0.0038853    0.0012184   -0.0000885
h    -0.4079869    4.4673074   -0.2547683  0.00    0.0003022    0.0022251   -0.0001673
h     1.9039519    3.5659254   -0.2167863  0.00   -0.0412968   -0.4883075   -0.2575585
h     2.3245422   -1.6376460   -0.1949774  0.00   -0.0240202   -0.0180567    0.0008762
o     4.8026140    0.9167352    2.5000669  0.00   -0.1166285    0.1362530   -0.0794821
o     3.2732771    2.6135698    2.9272497  0.00   -0.0215687    0.0077920   -0.0711644
h     3.9292562    3.1830340    3.4432948  0.00    0.0131836    0.0043245   -0.0137238
    27
 Energy =       0.3678263485
c    -1.4118971    2.5883507   -0.2436515  0.00   -0.0250710    0.0215315    0.0019157
c    -1.2980807    1.2116977   -0.1865077  0.00   -0.0465087   -0.0204288    0.0008104
c    -0.0340802    0.6709552   -0.1824886  0.00   -0.0476708   -0.0688400   -0.0027871
c    -0.2880365    3.3910386   -0.3017815  0.00   -0.0104950    0.0358822    0.0021806
c     0.9824628    2.8382057   -0.3120096  0.00    0.1678800    0.2347941    0.1035635
c     1.0897753    1.4418126   -0.2295118  0.00    0.0640123    0.0797042    0.0062277
n     0.3419306   -0.6878423   -0.0934178  0.00    0.0806814    0.0309558    0.0017240
c     2.2051835    0.6002370   -0.2114678  0.00    0.0822096   -0.0408605   -0.0156338
c     1.7431991   -0.6852527   -0.1535364  0.00   -0.0528788   -0.0432471   -0.0006889
h    -0.2823243   -1.5092554   -0.0241508  0.00    0.0131627    0.0158348    0.0000229
c     3.6544529    1.0434113   -0.2893556  0.00    0.0013947    0.0121676    0.0222133
c     4.0136687    2.2583125    0.6032924  0.00    0.0111464    0.0010897   -0.0443382
h     3.8786841    1.2954352   -1.3441365  0.00    0.0003861   -0.0022590    0.0033840
h     4.3093283    0.1891648   -0.0331585  0.00   -0.0053286    0.0054735   -0.0023348
c     4.0567481    1.8341572    2.0679078  0.00    0.1102339   -0.1378568    0.1135060
n     3.0731647    3.4103861    0.4302460  0.00   -0.2050518   -0.0851426   -0.0916932
h     5.0383802    2.5917689    0.3562662  0.00   -0.0118506    0.0065306    0.0026395
h     3.6629062    4.2438127    0.1934030  0.00   -0.0359348   -0.0250890   -0.0107405
h     2.4702621    3.1233442   -0.4876068  0.00    0.0676997    0.2642424    0.2513243
h    -2.3990168    3.0455263   -0.2346457  0.00   -0.0008466    0.0003961   -0.0001105
h    -2.1792050    0.5776717   -0.1333387  0.00   -0.0034281    0.0004668   -0.0000369
h    -0.3987239    4.4739175   -0.3249007  0.00    0.0002863    0.0023008   -0.0001543
h     1.9108060    3.6053871   -0.2796851  0.00   -0.0352995   -0.3908305   -0.2103808
h     2.3126539   -1.6139099   -0.1329077  0.00   -0.0190262   -0.0143905    0.0005398
o     4.8346223    0.8745687    2.4752103  0.00   -0.0920515    0.1082246   -0.0631737
o     3.2999283    2.5797982    2.9348291  0.00   -0.0324518   -0.0063886   -0.0646902
h     3.9497934    3.2578531    3.3394144  0.00    0.0248006    0.0157388   -0.0032886
    27
 Energy =       0.3586745672
c    -1.4136006    2.5822769   -0.1917106  0.00   -0.0233190    0.0198637    0.0017533
c    -1.2879357    1.2081744   -0.1335503  0.00   -0.0431446   -0.0188591    0.0006994
c    -0.0217321    0.6774592   -0.1482812  0.00   -0.0442745   -0.0636165   -0.0026681
c    -0.2978078    3.3927913   -0.2681637  0.00   -0.0097466    0.0332412    0.0019976
c     0.9753442    2.8508162   -0.2980109  0.00    0.1554692    0.2161418    0.0962244
c     1.0927005    1.4560403   -0.2194722  0.00    0.0590406    0.0738478    0.0058069
n     0.3648891   -0.6799514   -0.0629826  0.00    0.0734759    0.0287977    0.0018737
c     2.2130510    0.6268289   -0.2327830  0.00    0.0759851   -0.0377547   -0.0138740
c     1.7668337   -0.6616907   -0.1678538  0.00   -0.0479961   -0.0397732   -0.0008269
h    -0.2501916   -1.5077502    0.0267363  0.00    0.0118596    0.0142866    0.0000771
c     3.6553859    1.0883085   -0.3521272  0.00    0.0008271    0.0116412    0.0208710
c     4.0181423    2.2782781    0.5771281  0.00    0.0105746    0.0013246   -0.0421597
h     3.8388019    1.3829167   -1.4056745  0.00    0.0005637   -0.0015656    0.0015808
h     4.3324982    0.2340032   -0.1503189  0.00   -0.0038197    0.0037864   -0.0020400
c     4.0656984    1.7885040    2.0221696  0.00    0.1045453   -0.1296593    0.0974478
n     3.0725063    3.4337516    0.4379373  0.00   -0.1901510   -0.0777602   -0.0843994
h     5.0423451    2.6199288    0.3365068  0.00   -0.0109005    0.0061263    0.0023676
h     3.6557752    4.2768178    0.2203970  0.00   -0.0330192   -0.0228031   -0.0098697
h     2.4748783    3.1414149   -0.4923617  0.00    0.0627605    0.2425527    0.2322688
h    -2.4041417    3.0316392   -0.1685634  0.00   -0.0009242    0.0004008   -0.0001000
h    -2.1628739    0.5671652   -0.0649226  0.00   -0.0033225    0.0003573   -0.0000299
h    -0.4175481    4.4745126   -0.2937098  0.00    0.0002745    0.0021769   -0.0001547
h     1.9038428    3.6413337   -0.2977495  0.00   -0.0323190   -0.3592583   -0.1955392
h     2.3509336   -1.5813006   -0.1714629  0.00   -0.0172223   -0.0135878    0.0004614
o     4.8530836    0.7999822    2.3671197  0.00   -0.0833654    0.0977446   -0.0567695
o     3.2523873    2.4292021    2.9290759  0.00   -0.0375789   -0.0059712   -0.0547659
h     3.8633203    3.0991000    3.4049384  0.00    0.0257271    0.0183194   -0.0002329
    27
 Energy =       0.3622730796
c    -1.4236172    2.5593621   -0.1184609  0.00   -0.0230939    0.0194171    0.0017231
c    -1.2833141    1.1867515   -0.0618161  0.00   -0.0425242   -0.0184652    0.0006838
c    -0.0125396    0.6683788   -0.0998840  0.00   -0.0435612   -0.0623042   -0.0026241
c    -0.3175218    3.3806976   -0.2155136  0.00   -0.0096663    0.0327280    0.0019464
c     0.9596858    2.8514136   -0.2700557  0.00    0.1525087    0.2109604    0.0942775
c     1.0916297    1.4577170   -0.1970714  0.00    0.0576379    0.0724952    0.0057173
n     0.3906086   -0.6854824   -0.0196443  0.00    0.0706671    0.0284059    0.0020517
c     2.2196225    0.6413759   -0.2459083  0.00    0.0744994   -0.0371078   -0.0132741
c     1.7895364   -0.6516066   -0.1748560  0.00   -0.0458163   -0.0387923   -0.0009742
h    -0.2120537   -1.5203776    0.0925160  0.00    0.0112240    0.0135513    0.0001359
c     3.6525424    1.1251129   -0.4076451  0.00    0.0008649    0.0117846    0.0207574
c     4.0227990    2.2986266    0.5446722  0.00    0.0111021    0.0008422   -0.0425558
h     3.7949987    1.4501054   -1.4598821  0.00    0.0007116   -0.0011337    0.0003897
h     4.3500380    0.2753397   -0.2535546  0.00   -0.0028203    0.0027690   -0.0019037
c     4.1056361    1.7490938    1.9690928  0.00    0.1058454   -0.1242218    0.0917281
n     3.0558304    3.4467561    0.4558474  0.00   -0.1878060   -0.0751898   -0.0819961
h     5.0374181    2.6601157    0.2900752  0.00   -0.0103202    0.0059852    0.0021026
h     3.6213610    4.3072151    0.2589984  0.00   -0.0318783   -0.0214626   -0.0096576
h     2.4644542    3.1501068   -0.4832432  0.00    0.0613681    0.2364265    0.2269904
h    -2.4181962    2.9988706   -0.0774461  0.00   -0.0011276    0.0004503   -0.0000880
h    -2.1505228    0.5371613    0.0241817  0.00   -0.0034621    0.0002497   -0.0000150
h    -0.4485741    4.4610803   -0.2415648  0.00    0.0002706    0.0022039   -0.0001584
h     1.8847783    3.6576412   -0.3032489  0.00   -0.0312164   -0.3501953   -0.1917349
h     2.3843429   -1.5639734   -0.2054447  0.00   -0.0164673   -0.0136056    0.0004198
o     4.9414128    0.7712731    2.2424190  0.00   -0.0783472    0.0926847   -0.0544366
o     3.2582592    2.2914412    2.9135621  0.00   -0.0738273   -0.0463780   -0.0615778
h     3.7779716    3.1463564    3.2461852  0.00    0.0552347    0.0579021    0.0120729
    27
 Energy =       0.3549173205
c    -1.4319199    2.5792287   -0.1490346  0.00   -0.0213818    0.0180392    0.0016148
c    -1.3022548    1.2083438   -0.0667212  0.00   -0.0392028   -0.0172232    0.0006422
c    -0.0377332    0.6796530   -0.0907143  0.00   -0.0401294   -0.0572204   -0.0024904
c    -0.3199209    3.3891063   -0.2599067  0.00   -0.0089082    0.0303458    0.0018293
c     0.9520374    2.8492917   -0.3018136  0.00    0.1401970    0.1944853    0.0869781
c     1.0714810    1.4570925   -0.1975301  0.00    0.0527834    0.0666018    0.0054013
n     0.3492165   -0.6773318    0.0179617  0.00    0.0651408    0.0258074    0.0019205
c     2.1911000    0.6315317   -0.2206932  0.00    0.0686356   -0.0342756   -0.0121048
c     1.7514396   -0.6554174   -0.1267669  0.00   -0.0420797   -0.0360648   -0.0009253
h    -0.2629439   -1.5049394    0.1410487  0.00    0.0102146    0.0122894    0.0001559
c     3.6317331    1.0898448   -0.3897020  0.00    0.0006525    0.0105250    0.0189094
c     4.0246232    2.2815402    0.5342257  0.00    0.0101761    0.0007266   -0.0400757
h     3.7784243    1.3886453   -1.4495953  0.00    0.0007822   -0.0009321    0.0000151
h     4.3167604    0.2323437   -0.2195840  0.00   -0.0024792    0.0022863   -0.0018153
c     4.1576668    1.7633477    1.9671124  0.00    0.0991084   -0.1153791    0.0826035
n     3.0527555    3.4228194    0.4470855  0.00   -0.1737175   -0.0705039   -0.0750201
h     5.0304356    2.6405153    0.2388030  0.00   -0.0087271    0.0057729    0.0016697
h     3.6138126    4.2962846    0.2945428  0.00   -0.0280581   -0.0182028   -0.0088333
h     2.4773117    3.1271582   -0.5117292  0.00    0.0567314    0.2176693    0.2092986
h    -2.4231218    3.0272202   -0.1186096  0.00   -0.0011179    0.0004956   -0.0000791
h    -2.1744044    0.5668905    0.0292057  0.00   -0.0032404    0.0001294   -0.0000042
h    -0.4424982    4.4698488   -0.3074703  0.00    0.0002190    0.0023076   -0.0001576
h     1.8910820    3.6580450   -0.3492095  0.00   -0.0293059   -0.3220313   -0.1778602
h     2.3437356   -1.5699974   -0.1381174  0.00   -0.0150470   -0.0126984    0.0003855
o     4.9810417    0.7612121    2.2218627  0.00   -0.0716598    0.0846344   -0.0505143
o     3.3800017    2.3512665    2.9471390  0.00   -0.0711518   -0.0423633   -0.0533713
h     3.9367247    3.1870085    3.2605210  0.00    0.0515653    0.0547788    0.0118280
    27
 Energy =       0.3533326213
c    -1.4429559    2.5908145   -0.1623496  0.00   -0.0205165    0.0173375    0.0015527
c    -1.3195651    1.2214778   -0.0590493  0.00   -0.0374910   -0.0166249    0.0006207
c    -0.0587331    0.6865986   -0.0752805  0.00   -0.0383872   -0.0546120   -0.0024323
c    -0.3276383    3.3932034   -0.2877244  0.00   -0.0084698    0.0291402    0.0017573
c     0.9409775    2.8468779   -0.3232430  0.00    0.1339257    0.1859057    0.0832323
c     1.0532920    1.4563413   -0.1944735  0.00    0.0503615    0.0635810    0.0052366
n     0.3193263   -0.6709954    0.0575690  0.00    0.0623742    0.0244231    0.0018766
c     2.1680721    0.6253314   -0.2025151  0.00    0.0656230   -0.0327605   -0.0115009
c     1.7225206   -0.6573152   -0.0885705  0.00   -0.0402605   -0.0346712   -0.0009013
h    -0.2977656   -1.4933686    0.1949407  0.00    0.0096522    0.0115721    0.0001832
c     3.6125313    1.0679870   -0.3838034  0.00    0.0004458    0.0099365    0.0178992
c     4.0245418    2.2738370    0.5175527  0.00    0.0097009    0.0004123   -0.0392063
h     3.7551550    1.3483876   -1.4495201  0.00    0.0007997   -0.0008467   -0.0001664
h     4.2909867    0.2062730   -0.2078359  0.00   -0.0023199    0.0021110   -0.0017526
c     4.2141009    1.7738862    1.9518340  0.00    0.0958239   -0.1108642    0.0777450
n     3.0403487    3.4047257    0.4451271  0.00   -0.1670465   -0.0683996   -0.0714240
h     5.0168757    2.6382884    0.1821248  0.00   -0.0075195    0.0057182    0.0013038
h     3.5900041    4.2922964    0.3327231  0.00   -0.0257329   -0.0159001   -0.0083474
h     2.4815168    3.1087783   -0.5299977  0.00    0.0543010    0.2077043    0.2000907
h    -2.4319807    3.0439333   -0.1376988  0.00   -0.0010936    0.0005077   -0.0000762
h    -2.1944547    0.5855635    0.0481848  0.00   -0.0031471    0.0000413    0.0000053
h    -0.4451160    4.4736588   -0.3527166  0.00    0.0002072    0.0023795   -0.0001625
h     1.8902314    3.6561012   -0.3868563  0.00   -0.0284020   -0.3072501   -0.1708259
h     2.3124606   -1.5735395   -0.0886759  0.00   -0.0143594   -0.0122116    0.0003683
o     5.0218624    0.7464517    2.1762003  0.00   -0.0678192    0.0798421   -0.0487484
o     3.5045136    2.3937089    2.9655148  0.00   -0.0706677   -0.0400574   -0.0482120
h     4.0954778    3.2112496    3.2608497  0.00    0.0500174    0.0535858    0.0118843
    27
 Energy =       0.3559906016
c    -1.4588044    2.5880876   -0.1532533  0.00   -0.0203728    0.0171829    0.0015415
c    -1.3343226    1.2200600   -0.0359627  0.00   -0.0371377   -0.0165518    0.0006202
c    -0.0735683    0.6854836   -0.0526471  0.00   -0.0380334   -0.0540501   -0.0024282
c    -0.3445591    3.3894034   -0.2936313  0.00   -0.0083232    0.0289191    0.0017354
c     0.9236890    2.8430074   -0.3310765  0.00    0.1327386    0.1839911    0.0824746
c     1.0373049    1.4541073   -0.1866458  0.00    0.0498977    0.0629583    0.0052116
n     0.3055700   -0.6702843    0.0968083  0.00    0.0617338    0.0240899    0.0018876
c     2.1523454    0.6232836   -0.1925995  0.00    0.0649488   -0.0324005   -0.0113601
c     1.7076105   -0.6580653   -0.0632868  0.00   -0.0398516   -0.0343812   -0.0009063
h    -0.3101975   -1.4910563    0.2504950  0.00    0.0094318    0.0112854    0.0002165
c     3.5957437    1.0628437   -0.3930655  0.00    0.0002887    0.0098898    0.0176470
c     4.0218434    2.2788821    0.4928990  0.00    0.0096841   -0.0002585   -0.0398396
h     3.7244628    1.3346707   -1.4629386  0.00    0.0008026   -0.0008146   -0.0003011
h     4.2753785    0.2008401   -0.2236133  0.00   -0.0022161    0.0020850   -0.0016761
c     4.2736745    1.7843375    1.9216136  0.00    0.0955801   -0.1100019    0.0760356
n     3.0176894    3.3948511    0.4485037  0.00   -0.1669101   -0.0683287   -0.0706677
h     4.9958101    2.6580077    0.1189889  0.00   -0.0065255    0.0058470    0.0009214
h     3.5490071    4.2977292    0.3706198  0.00   -0.0246390   -0.0143294   -0.0081741
h     2.4736320    3.0986128   -0.5387600  0.00    0.0537230    0.2052180    0.1979564
h    -2.4478463    3.0411192   -0.1279648  0.00   -0.0010859    0.0005020   -0.0000754
h    -2.2083333    0.5850356    0.0835340  0.00   -0.0031703   -0.0000212    0.0000144
h    -0.4626725    4.4690581   -0.3701939  0.00    0.0002204    0.0024298   -0.0001686
h     1.8767652    3.6537243   -0.4122698  0.00   -0.0282725   -0.3037263   -0.1695034
h     2.2977814   -1.5741267   -0.0624328  0.00   -0.0142249   -0.0120990    0.0003651
o     5.0618932    0.7305261    2.1042151  0.00   -0.0661783    0.0775092   -0.0487306
o     3.6324582    2.4242877    2.9693443  0.00   -0.0723563   -0.0389883   -0.0450118
h     4.2542309    3.2261262    3.2456302  0.00    0.0502478    0.0540440    0.0122158
    27
 Energy =       0.3498508057
c    -1.4362282    2.6108740   -0.1911924  0.00   -0.0200359    0.0167739    0.0015156
c    -1.3232336    1.2418282   -0.0792560  0.00   -0.0363931   -0.0162317    0.0006227
c    -0.0670308    0.6980079   -0.0851146  0.00   -0.0371970   -0.0528107   -0.0023599
c    -0.3145995    3.4043713   -0.3155839  0.00   -0.0081203    0.0283603    0.0016848
c     0.9500848    2.8491238   -0.3404899  0.00    0.1300192    0.1797433    0.0805724
c     1.0508543    1.4587210   -0.2010719  0.00    0.0487620    0.0615764    0.0050889
n     0.2980192   -0.6621740    0.0575507  0.00    0.0599261    0.0235693    0.0018622
c     2.1591416    0.6200360   -0.1926647  0.00    0.0633746   -0.0316863   -0.0110792
c     1.7038311   -0.6583186   -0.0729275  0.00   -0.0385797   -0.0335684   -0.0009036
h    -0.3275255   -1.4793269    0.1925537  0.00    0.0089764    0.0107496    0.0002538
c     3.6102443    1.0466840   -0.3634736  0.00    0.0002955    0.0098925    0.0173893
c     4.0279636    2.2573066    0.5283870  0.00    0.0098354   -0.0015164   -0.0401972
h     3.7661764    1.3141720   -1.4311545  0.00    0.0008363   -0.0007026   -0.0006470
h     4.2788080    0.1802285   -0.1705238  0.00   -0.0018522    0.0018424   -0.0014474
c     4.2106166    1.7719479    1.9708047  0.00    0.0937416   -0.1073252    0.0734860
n     3.0518867    3.3942428    0.4401930  0.00   -0.1654288   -0.0666703   -0.0691595
h     5.0260304    2.6107862    0.1911019  0.00   -0.0051826    0.0058736    0.0004398
h     3.6090655    4.2800107    0.3331779  0.00   -0.0233247   -0.0125499   -0.0080210
h     2.4968567    3.0968832   -0.5393029  0.00    0.0523413    0.2001586    0.1930687
h    -2.4221678    3.0711234   -0.1746997  0.00   -0.0011376    0.0005035   -0.0000705
h    -2.2032760    0.6125978    0.0266536  0.00   -0.0032090   -0.0000959    0.0000271
h    -0.4239893    4.4852567   -0.3878123  0.00    0.0002259    0.0024289   -0.0001695
h     1.9084644    3.6541803   -0.4025514  0.00   -0.0274570   -0.2963423   -0.1655789
h     2.2892160   -1.5775034   -0.0595172  0.00   -0.0138061   -0.0118877    0.0003607
o     5.0224597    0.7453138    2.2094066  0.00   -0.0630300    0.0734830   -0.0478237
o     3.4994396    2.4055009    2.9813982  0.00   -0.0732770   -0.0371119   -0.0411803
h     4.0954778    3.2186785    3.2784194  0.00    0.0496969    0.0535441    0.0122655
    27
 Energy =       0.3448511358
c    -1.4136499    2.6300404   -0.2243981  0.00   -0.0198524    0.0165081    0.0014996
c    -1.3104985    1.2598899   -0.1199846  0.00   -0.0359360   -0.0160538    0.0006254
c    -0.0582060    0.7081909   -0.1168745  0.00   -0.0366818   -0.0520299   -0.0023177
c    -0.2857791    3.4170998   -0.3323185  0.00   -0.0079665    0.0280289    0.0016501
c     0.9758022    2.8543305   -0.3465020  0.00    0.1283689    0.1770147    0.0793738
c     1.0655975    1.4623912   -0.2146846  0.00    0.0480561    0.0607052    0.0050155
n     0.2950552   -0.6558328    0.0170419  0.00    0.0587139    0.0232373    0.0018496
c     2.1679506    0.6169042   -0.1947217  0.00    0.0623283   -0.0312237   -0.0108982
c     1.7035610   -0.6591237   -0.0863350  0.00   -0.0377344   -0.0330536   -0.0009029
h    -0.3385641   -1.4700203    0.1333664  0.00    0.0086217    0.0103327    0.0002850
c     3.6251570    1.0333955   -0.3359566  0.00    0.0002834    0.0099533    0.0172143
c     4.0321521    2.2379991    0.5640440  0.00    0.0100552   -0.0026802   -0.0408488
h     3.8068838    1.2988968   -1.4003430  0.00    0.0008721   -0.0006153   -0.0009529
h     4.2835608    0.1634005   -0.1226928  0.00   -0.0015670    0.0016751   -0.0012588
c     4.1445279    1.7613306    2.0169454  0.00    0.0925506   -0.1054271    0.0716638
n     3.0847115    3.3942039    0.4338922  0.00   -0.1652384   -0.0656772   -0.0682443
h     5.0519950    2.5676579    0.2661229  0.00   -0.0038693    0.0059068    0.0000336
h     3.6666747    4.2611320    0.2961140  0.00   -0.0221313   -0.0108466   -0.0079982
h     2.5186620    3.0964585   -0.5370956  0.00    0.0514581    0.1968199    0.1898913
h    -2.3968370    3.0964162   -0.2152393  0.00   -0.0011774    0.0005022   -0.0000675
h    -2.1956139    0.6354666   -0.0278475  0.00   -0.0032635   -0.0001678    0.0000373
h    -0.3877257    4.4991314   -0.3984445  0.00    0.0002379    0.0024462   -0.0001718
h     1.9376611    3.6538698   -0.3891984  0.00   -0.0269724   -0.2915020   -0.1631391
h     2.2843400   -1.5811472   -0.0626368  0.00   -0.0135325   -0.0117566    0.0003591
o     4.9754217    0.7637609    2.3144329  0.00   -0.0602879    0.0700582   -0.0471532
o     3.3670216    2.3897017    2.9858456  0.00   -0.0747940   -0.0356067   -0.0379760
h     3.9367247    3.2150086    3.2997786  0.00    0.0494588    0.0534520    0.0124308
    27
 Energy =       0.3410297080
c    -1.3916260    2.6439439   -0.2521875  0.00   -0.0198523    0.0164122    0.0014964
c    -1.2959562    1.2725921   -0.1578330  0.00   -0.0358180   -0.0160471    0.0006295
c    -0.0465487    0.7149766   -0.1479218  0.00   -0.0365395   -0.0517800   -0.0023069
c    -0.2590152    3.4265399   -0.3431063  0.00   -0.0078726    0.0279684    0.0016348
c     1.0002921    2.8581858   -0.3486757  0.00    0.1279798    0.1760576    0.0789976
c     1.0817632    1.4646595   -0.2274028  0.00    0.0478468    0.0604327    0.0050024
n     0.2980367   -0.6521929   -0.0252269  0.00    0.0581681    0.0231235    0.0018573
c     2.1796075    0.6139937   -0.1989703  0.00    0.0618939   -0.0310597   -0.0108311
c     1.7083245   -0.6606622   -0.1039037  0.00   -0.0373560   -0.0328843   -0.0009113
h    -0.3415669   -1.4644610    0.0721399  0.00    0.0083717    0.0100374    0.0003132
c     3.6411750    1.0240299   -0.3106166  0.00    0.0002524    0.0100900    0.0171386
c     4.0342110    2.2222594    0.5997083  0.00    0.0103566   -0.0037504   -0.0418922
h     3.8472570    1.2900917   -1.3706806  0.00    0.0009131   -0.0005500   -0.0012337
h     4.2909852    0.1516653   -0.0800720  0.00   -0.0013533    0.0015749   -0.0011180
c     4.0749999    1.7536194    2.0598120  0.00    0.0921732   -0.1044957    0.0706253