    13
 Energy =       0.1268656570
c    -3.7133889    1.6950595    0.3173519  0.00   -0.0519584   -0.0212098    0.0106510
c    -2.4962693    2.6345192    0.2419999  0.00    0.0713705    0.3518175    0.0694275
c    -4.9565486    2.3924193   -0.2155699  0.00    0.0208960    0.0080740    0.0102135
h    -5.8072983    1.7014095   -0.2223689  0.00    0.0135177    0.0092727   -0.0036131
h    -4.8071186    2.7393792   -1.2437896  0.00   -0.0055351   -0.0061006    0.0159910
h    -5.2375685    3.2516891    0.4029209  0.00   -0.0010323   -0.0153616   -0.0125330
n    -3.4097890    0.4519539   -0.4549189  0.00    0.0749335   -0.0204715   -0.0492238
h    -3.8575589    1.4177196    1.3669296  0.00   -0.0022299   -0.0029746   -0.0227809
h    -4.2340588    0.2238779   -1.0206697  0.00    0.0201873    0.0307160    0.0205977
h    -2.6878492    0.6694128   -1.1486897  0.00    0.0390654    0.0869947    0.0768312
o    -2.4571893    3.7760389    0.6681628  0.00   -0.0090916   -0.2785449   -0.0961279
o    -1.4389296    2.0221094   -0.3549299  0.00   -0.1355993   -0.1187255   -0.0362743
h    -1.1721897    2.6250993   -1.0934297  0.00   -0.0345237   -0.0234862    0.0168412
    13
 Energy =       0.1027719997
c    -3.7160975    1.6782104    0.3293699  0.00   -0.0307334   -0.0150120    0.0094419
c    -2.4622969    2.5607901    0.3243386  0.00    0.0460591    0.2169850    0.0408909
c    -4.9123628    2.4504065   -0.2416065  0.00    0.0130863    0.0062457    0.0089092
h    -5.7993820    1.7953276   -0.3434001  0.00    0.0036052    0.0024983   -0.0034139
h    -4.6765975    2.8680780   -1.2401554  0.00   -0.0020366   -0.0007373    0.0042605
h    -5.1892276    3.2856344    0.4247820  0.00   -0.0003437   -0.0084816   -0.0062624
n    -3.4565803    0.4472239   -0.4621776  0.00    0.0458040   -0.0123285   -0.0295693
h    -3.9123990    1.3883931    1.3769264  0.00   -0.0016502   -0.0029083   -0.0125888
h    -4.2906028    0.2119136   -1.0261071  0.00    0.0120983    0.0186298    0.0123414
h    -2.7024759    0.6409985   -1.1450354  0.00    0.0314419    0.0618136    0.0495372
o    -2.4447502    3.7639218    0.7750663  0.00   -0.0071381   -0.1685090   -0.0602940
o    -1.3820415    2.0027059   -0.3080018  0.00   -0.0870265   -0.1204400    0.0394503
h    -1.3309428    2.5070839   -1.2210005  0.00   -0.0231661    0.0222443   -0.0527030
    13
 Energy =       0.0843459347
c    -3.7276853    1.6724454    0.3076479  0.00   -0.0176817   -0.0080194    0.0054399
c    -2.4677531    2.5344615    0.3154968  0.00    0.0239892    0.1241004    0.0228896
c    -4.9240203    2.4567096   -0.2511898  0.00    0.0164394   -0.0028594    0.0087594
h    -5.8593114    1.8387031   -0.1846470  0.00   -0.0095692   -0.0080077   -0.0001493
h    -4.7437954    2.7275372   -1.3258357  0.00    0.0029045    0.0014231   -0.0112574
h    -5.0812950    3.4024283    0.3333633  0.00   -0.0004456    0.0081976    0.0050375
n    -3.5037395    0.4426713   -0.4890533  0.00    0.0257390   -0.0067918   -0.0165001
h    -3.9185625    1.3882127    1.3623456  0.00   -0.0009900   -0.0016568   -0.0071639
h    -4.3411784    0.2148049   -1.0621357  0.00    0.0063448    0.0113809    0.0068665
h    -2.7193438    0.6056720   -1.1593127  0.00    0.0245675    0.0417823    0.0299882
o    -2.4603489    3.7735790    0.7969552  0.00   -0.0046461   -0.0966547   -0.0335831
o    -1.3455823    1.9913578   -0.2722371  0.00   -0.0529655   -0.0802502    0.0331599
h    -1.1831407    2.5521049   -1.1283987  0.00   -0.0136863    0.0173556   -0.0434874
    13
 Energy =       0.0830416156
c    -3.7630128    1.6946494    0.3120214  0.00   -0.0152686   -0.0073105    0.0059684
c    -2.4796073    2.5205159    0.3661805  0.00    0.0232315    0.1174056    0.0214234
c    -4.8983285    2.4904758   -0.3616316  0.00    0.0117518   -0.0001550    0.0086535
h    -5.8553998    1.9030553   -0.3282097  0.00   -0.0104340   -0.0077462    0.0002655
h    -4.6429655    2.7120283   -1.4355596  0.00    0.0035897    0.0022596   -0.0143815
h    -5.0665424    3.4636966    0.1746101  0.00   -0.0014417    0.0091087    0.0054073
n    -3.5238498    0.4253021   -0.4175625  0.00    0.0255711   -0.0090923   -0.0150750
h    -4.0341339    1.4627823    1.3667240  0.00   -0.0021085   -0.0025135   -0.0025885
h    -4.3463702    0.1712875   -1.0024210  0.00    0.0056893    0.0097441    0.0056263
h    -2.7131272    0.5457980   -1.0678000  0.00    0.0249167    0.0393889    0.0266303
o    -2.4569503    3.7632032    0.8467571  0.00   -0.0041647   -0.0912203   -0.0315965
o    -1.3468253    1.9495420   -0.1775943  0.00   -0.0485724   -0.0768687    0.0317563
h    -1.1486435    2.4983514   -1.0325157  0.00   -0.0127602    0.0169997   -0.0420896
    13
 Energy =       0.0756793398
c    -3.7776636    1.6775324    0.2808127  0.00   -0.0092186   -0.0035142    0.0049110
c    -2.4774117    2.4766754    0.3502821  0.00    0.0138464    0.0781185    0.0128354
c    -4.9133664    2.5197284   -0.3382931  0.00    0.0068037    0.0008352    0.0053599
h    -5.8776069    1.9516603   -0.3026486  0.00   -0.0072702   -0.0052614    0.0001114
h    -4.6779247    2.7704072   -1.4061118  0.00    0.0024911    0.0014721   -0.0103591
h    -5.0505970    3.4764175    0.2306383  0.00   -0.0012295    0.0071129    0.0041158
n    -3.5967969    0.4180142   -0.4856924  0.00    0.0185919   -0.0093039    0.0033991
h    -4.0320603    1.4232614    1.3353715  0.00   -0.0013893   -0.0017212   -0.0013075
h    -4.3873809    0.2595018   -1.1611741  0.00   -0.0078203    0.0041917   -0.0052568
h    -2.7151219    0.4729267   -1.0616469  0.00    0.0284824    0.0303797    0.0129337
o    -2.4374064    3.7201112    0.8792449  0.00   -0.0017987   -0.0604822   -0.0198023
o    -1.3270792    1.9016272   -0.1583575  0.00   -0.0386012   -0.0667663    0.0405643
h    -1.0053409    2.5328239   -0.9194263  0.00   -0.0028877    0.0249392   -0.0475048
    13
 Energy =       0.0725368057
c    -3.7753266    1.6812461    0.2912426  0.00   -0.0065542   -0.0018128    0.0041518
c    -2.4837743    2.4916047    0.3662618  0.00    0.0112669    0.0674487    0.0112667
c    -4.8967323    2.4950368   -0.3915768  0.00    0.0046087    0.0016265    0.0044337
h    -5.8613993    1.9301668   -0.3564686  0.00   -0.0063849   -0.0044145    0.0001879
h    -4.6361113    2.7036345   -1.4622908  0.00    0.0023155    0.0014650   -0.0100776
h    -5.0491852    3.4728551    0.1361473  0.00   -0.0013601    0.0070931    0.0040990
n    -3.5627164    0.4022904   -0.4307108  0.00    0.0209504   -0.0094783    0.0229403
h    -4.0571547    1.4608456    1.3474720  0.00   -0.0013587   -0.0015452   -0.0001880
h    -4.4183729    0.1330550   -1.0024210  0.00   -0.0245216   -0.0025056   -0.0155082
h    -2.7529467    0.5228816   -1.1102936  0.00    0.0376276    0.0308107    0.0019155
o    -2.4600927    3.7329636    0.9149249  0.00   -0.0016499   -0.0516290   -0.0167395
o    -1.3312753    1.9486482   -0.1753536  0.00   -0.0335170   -0.0610078    0.0374141
h    -0.9906692    2.6254593   -0.8839347  0.00   -0.0014228    0.0239492   -0.0438959
    13
 Energy =       0.0664426759
c    -3.7861269    1.6630915    0.2668586  0.00   -0.0042960   -0.0016893    0.0026453
c    -2.4913718    2.4619086    0.3916816  0.00    0.0065313    0.0398260    0.0035434
c    -4.8880686    2.4994633   -0.4176506  0.00    0.0028860    0.0011630    0.0024978
h    -5.8585433    1.9488994   -0.4012858  0.00   -0.0041843   -0.0029121    0.0001551
h    -4.6131228    2.7182940   -1.4790127  0.00    0.0014024    0.0009173   -0.0064598
h    -5.0337966    3.4700740    0.1191072  0.00   -0.0008653    0.0045052    0.0025429
n    -3.5760316    0.4028757   -0.4819904  0.00    0.0123558   -0.0064621    0.0164361
h    -4.0893706    1.4204572    1.3127455  0.00   -0.0009386   -0.0011547    0.0003823
h    -4.4449702    0.1173694   -1.0141431  0.00   -0.0164979   -0.0015715   -0.0106501
h    -2.8037579    0.5498714   -1.1943137  0.00    0.0264892    0.0207641   -0.0000427
o    -2.4716270    3.6781012    1.0277827  0.00   -0.0006632   -0.0279091   -0.0069588
o    -1.3264319    1.9537957   -0.1615988  0.00   -0.0315993   -0.0608922    0.0409554
h    -0.8925376    2.7164861   -0.7251816  0.00    0.0093799    0.0354154   -0.0450471
    13
 Energy =       0.0654051058
c    -3.7954975    1.6520906    0.2568919  0.00   -0.0036823   -0.0024129    0.0018907
c    -2.5057377    2.4485882    0.4383276  0.00    0.0049452    0.0304820   -0.0003429
c    -4.8709577    2.4977370   -0.4574046  0.00    0.0022970    0.0011573    0.0020843
h    -5.8449424    1.9535938   -0.4715842  0.00   -0.0041441   -0.0027349    0.0001405
h    -4.5640635    2.7184226   -1.5093410  0.00    0.0013400    0.0009023   -0.0062196
h    -5.0263677    3.4665336    0.0789096  0.00   -0.0007797    0.0040189    0.0023156
n    -3.5621136    0.4009925   -0.4986263  0.00    0.0108113   -0.0060477    0.0144294
h    -4.1363122    1.3985271    1.2894805  0.00   -0.0010634   -0.0011335    0.0011126
h    -4.4289463    0.0995105   -1.0228982  0.00   -0.0148267   -0.0014190   -0.0094758
h    -2.7992892    0.5676502   -1.2155259  0.00    0.0237711    0.0184607   -0.0003132
o    -2.4920828    3.6084721    1.1865358  0.00   -0.0009141   -0.0164983   -0.0003454
o    -1.3380866    1.9955036   -0.1590434  0.00   -0.0271050   -0.0582623    0.0362815
h    -0.9113595    2.7930660   -0.6727229  0.00    0.0093507    0.0334876   -0.0415578
    13
 Energy =       0.0633105035
c    -3.7994836    1.6410586    0.2374996  0.00   -0.0038638   -0.0009874    0.0019467
c    -2.5243616    2.4524658    0.4556588  0.00    0.0017823    0.0229179   -0.0004243
c    -4.8823930    2.4868440   -0.4651996  0.00    0.0021269    0.0009840    0.0018967
h    -5.8481389    1.9300556   -0.4980888  0.00   -0.0037161   -0.0024678    0.0001676
h    -4.5714184    2.7352491   -1.5090743  0.00    0.0012661    0.0008262   -0.0056100
h    -5.0551369    3.4417168    0.0898397  0.00   -0.0006448    0.0037499    0.0021553
n    -3.5385282    0.4166663   -0.5518693  0.00    0.0083801   -0.0067677    0.0122229
h    -4.1463397    1.3532243    1.2592845  0.00   -0.0011391   -0.0010774    0.0015040
h    -4.4013229    0.1022159   -1.0721079  0.00   -0.0126669   -0.0011909   -0.0080051
h    -2.7877070    0.6218274   -1.2711333  0.00    0.0209548    0.0157587   -0.0014694
o    -2.5647388    3.6594493    1.1345587  0.00   -0.0026894   -0.0085954    0.0027616
o    -1.3177941    1.9819709   -0.0523995  0.00   -0.0200106   -0.0542218    0.0302845
h    -0.8383937    2.7779436   -0.5139698  0.00    0.0102205    0.0310717   -0.0374306
    13
 Energy =       0.0620846841
c    -3.8002700    1.6476944    0.2374501  0.00   -0.0051355    0.0005871    0.0052773
c    -2.4705718    2.3838413    0.4180296  0.00    0.0013086    0.0203245    0.0002889
c    -4.8661368    2.5643024   -0.4056681  0.00    0.0007279    0.0014604   -0.0000055
h    -5.8598020    2.0557606   -0.4198242  0.00   -0.0049848   -0.0026973   -0.0001515
h    -4.5787098    2.8236497   -1.4533717  0.00    0.0010992    0.0006833   -0.0054810
h    -4.9730872    3.5134354    0.1787641  0.00   -0.0010217    0.0055094    0.0032370
n    -3.6387099    0.4260206   -0.5864986  0.00    0.0104013   -0.0101805    0.0113994
h    -4.1204729    1.3589237    1.2677574  0.00   -0.0010819   -0.0006325    0.0018869
h    -4.5439705    0.1527474   -1.0595106  0.00   -0.0151794   -0.0027383   -0.0094877
h    -2.9256909    0.6157567   -1.3475611  0.00    0.0201540    0.0135773   -0.0040333
o    -2.4205719    3.5963074    1.0934244  0.00   -0.0020436   -0.0031798    0.0050222
o    -1.3040043    1.8430577   -0.1221047  0.00   -0.0144326   -0.0532023    0.0267003
h    -0.7737587    2.6191905   -0.5578877  0.00    0.0101884    0.0304886   -0.0346530
    13
 Energy =       0.0621640896
c    -3.8227937    1.6306535    0.2019674  0.00   -0.0053829    0.0024734    0.0081575
c    -2.4682884    2.2963616    0.4767314  0.00    0.0001531    0.0215891    0.0031899
c    -4.8384131    2.6363451   -0.3963735  0.00   -0.0001706    0.0026129   -0.0020625
h    -5.8519397    2.1692271   -0.4617950  0.00   -0.0064228   -0.0037573   -0.0006052
h    -4.5231221    2.9545913   -1.4212026  0.00    0.0009184    0.0017430   -0.0071961
h    -4.9169406    3.5503345    0.2491821  0.00   -0.0006925    0.0074046    0.0044026
n    -3.6846274    0.4740058   -0.7192896  0.00    0.0068340   -0.0161329    0.0084381
h    -4.1794012    1.2691417    1.2003502  0.00   -0.0011762   -0.0024144    0.0051094
h    -4.6009606    0.2391948   -1.1912510  0.00   -0.0145870   -0.0032127   -0.0097244
h    -2.9853737    0.7213188   -1.4782176  0.00    0.0191724    0.0120233   -0.0073885
o    -2.3956376    3.4923689    1.1804629  0.00   -0.0005983   -0.0019911    0.0050282
o    -1.2953613    1.7056421    0.0015689  0.00   -0.0093465   -0.0503269    0.0255670
h    -0.7128974    2.4615026   -0.3991346  0.00    0.0112989    0.0299890   -0.0329160
    13
 Energy =       0.0581463758
c    -3.7989544    1.6449391    0.2282682  0.00   -0.0045319    0.0029312    0.0079083
c    -2.4549860    2.3775340    0.3893762  0.00    0.0006384    0.0175016    0.0034687
c    -4.8687252    2.5757615   -0.3982183  0.00   -0.0007905    0.0030690   -0.0034612
h    -5.8656665    2.0702877   -0.4148596  0.00   -0.0063984   -0.0038532   -0.0007760
h    -4.5882587    2.8530173   -1.4446949  0.00    0.0006776    0.0021266   -0.0068331
h    -4.9648585    3.5183479    0.2009568  0.00   -0.0002988    0.0068192    0.0040908
n    -3.6742973    0.4188928   -0.6049614  0.00    0.0019378   -0.0182659    0.0069502
h    -4.1010938    1.3526519    1.2695287  0.00   -0.0013839   -0.0036075    0.0080462
h    -4.5983882    0.1382154   -1.0324979  0.00   -0.0130207   -0.0038756   -0.0093887
h    -3.0037386    0.6100956   -1.4037248  0.00    0.0161939    0.0091274   -0.0094137
o    -2.3947025    3.6129895    1.0278097  0.00    0.0020771    0.0021083    0.0045553
o    -1.2846197    1.8250469   -0.1345586  0.00   -0.0073846   -0.0427158    0.0209521
h    -0.6774674    2.6029081   -0.4394253  0.00    0.0122840    0.0286346   -0.0260987
    13
 Energy =       0.0540161862
c    -3.7850137    1.6618196    0.2353247  0.00   -0.0015553    0.0034987    0.0056660
c    -2.4537613    2.4202956    0.3320061  0.00   -0.0005470    0.0121272    0.0027992
c    -4.8746229    2.5407293   -0.4216788  0.00   -0.0006967    0.0020395   -0.0022665
h    -5.8609041    2.0214274   -0.4073269  0.00   -0.0035657   -0.0021446   -0.0005368
h    -4.6060634    2.7761566   -1.4788562  0.00    0.0003604    0.0014916   -0.0041438
h    -4.9820606    3.5045410    0.1350006  0.00   -0.0000476    0.0041513    0.0026431
n    -3.6641243    0.3903709   -0.5201204  0.00    0.0015437   -0.0120318    0.0074404
h    -4.0668587    1.4310968    1.2951685  0.00   -0.0009017   -0.0025436    0.0058242
h    -4.5996159    0.0542200   -0.8737448  0.00   -0.0116102   -0.0045580   -0.0079089
h    -3.0480970    0.5444408   -1.3656312  0.00    0.0109071    0.0055991   -0.0081072
o    -2.3998378    3.6533573    0.9740736  0.00    0.0009766    0.0011408    0.0018208
o    -1.2949402    1.9097634   -0.2536683  0.00   -0.0107768   -0.0383503    0.0129748
h    -0.6398569    2.6924689   -0.4075480  0.00    0.0159131    0.0295801   -0.0162052
    13
 Energy =       0.0516658346
c    -3.7812958    1.6795467    0.2475120  0.00    0.0005483    0.0043148    0.0045250
c    -2.4570840    2.4451331    0.3187468  0.00   -0.0051040    0.0091044    0.0035736
c    -4.8629479    2.5171838   -0.4701570  0.00   -0.0013429    0.0014403   -0.0014229
h    -5.8469848    1.9979813   -0.4394926  0.00   -0.0020549   -0.0012056   -0.0002844
h    -4.5811911    2.6946394   -1.5350039  0.00    0.0003785    0.0012323   -0.0038816
h    -4.9793863    3.5091191    0.0318314  0.00   -0.0001946    0.0038296    0.0023271
n    -3.6491979    0.3678007   -0.4290535  0.00    0.0023594   -0.0097233    0.0069794
h    -4.0761095    1.5114886    1.3148735  0.00   -0.0006691   -0.0017360    0.0050265
h    -4.5884812   -0.0161506   -0.7149917  0.00   -0.0105229   -0.0051783   -0.0065383
h    -3.0806188    0.4871053   -1.3107574  0.00    0.0078948    0.0039681   -0.0072833
o    -2.3895097    3.6385488    1.0346623  0.00   -0.0012905    0.0043121    0.0037830
o    -1.3272797    1.9971150   -0.3736406  0.00   -0.0015933   -0.0330246    0.0026653
h    -0.6556700    2.7711763   -0.4315306  0.00    0.0115911    0.0226664   -0.0094695
    13
 Energy =       0.0496860740
c    -3.7870517    1.7019178    0.2556991  0.00    0.0025851    0.0045463    0.0034599
c    -2.4695176    2.4714573    0.3249251  0.00   -0.0052815    0.0052498    0.0034246
c    -4.8458138    2.4903140   -0.5465280  0.00   -0.0027568    0.0011691   -0.0010878
h    -5.8283177    1.9708086   -0.5171339  0.00   -0.0010657   -0.0003327   -0.0001399
h    -4.5289284    2.6040741   -1.6106031  0.00    0.0005314    0.0009014   -0.0041936
h    -4.9812396    3.5098714   -0.1089404  0.00   -0.0005529    0.0039235    0.0021440
n    -3.6286009    0.3528547   -0.3321299  0.00    0.0033059   -0.0084188    0.0049447
h    -4.1169243    1.6003338    1.3212405  0.00   -0.0006519   -0.0009175    0.0048770
h    -4.5634559   -0.0758565   -0.5562386  0.00   -0.0081780   -0.0050062   -0.0046771
h    -3.0966879    0.4303164   -1.2389198  0.00    0.0049215    0.0025129   -0.0056467
o    -2.3871529    3.6199006    1.1108997  0.00   -0.0019677    0.0055109    0.0043434
o    -1.3699619    2.0890189   -0.4499458  0.00   -0.0001610   -0.0267602   -0.0035883
h    -0.6721041    2.8356767   -0.4093261  0.00    0.0092716    0.0176216   -0.0038601
    13
 Energy =       0.0481726176
c    -3.7962146    1.7261991    0.2630777  0.00    0.0032796    0.0042551    0.0023836
c    -2.4851836    2.5002742    0.3358389  0.00   -0.0051747    0.0013048    0.0035281
c    -4.8252288    2.4560679   -0.6271951  0.00   -0.0033117    0.0009482   -0.0010327
h    -5.8042837    1.9309601   -0.6083268  0.00   -0.0006047    0.0001714   -0.0001433
h    -4.4641594    2.5090396   -1.6818060  0.00    0.0006138    0.0004494   -0.0039131
h    -4.9851291    3.4978826   -0.2571863  0.00   -0.0007461    0.0035514    0.0017557
n    -3.6077341    0.3460311   -0.2309387  0.00    0.0031531   -0.0069520    0.0030048
h    -4.1677178    1.6902538    1.3189236  0.00   -0.0006537   -0.0002166    0.0043282
h    -4.5343707   -0.1200097   -0.3974854  0.00   -0.0051773   -0.0039412   -0.0027303
h    -3.1023868    0.3742070   -1.1539700  0.00    0.0026246    0.0012070   -0.0040259
o    -2.3772702    3.5857711    1.2060459  0.00   -0.0023982    0.0072466    0.0059999
o    -1.4256765    2.1996998   -0.5261505  0.00    0.0018411   -0.0201325   -0.0094387
h    -0.7004015    2.9043111   -0.3978283  0.00    0.0065542    0.0121083    0.0002837
    13
 Energy =       0.0471610085
c    -3.8096224    1.7544413    0.2689086  0.00    0.0026884    0.0036469    0.0017755
c    -2.5049496    2.5347181    0.3460593  0.00   -0.0025506   -0.0018343    0.0014230
c    -4.8020752    2.4141530   -0.7113475  0.00   -0.0030141    0.0005787   -0.0010230
h    -5.7750164    1.8778979   -0.7071247  0.00   -0.0004519    0.0002775   -0.0002060
h    -4.3904723    2.4066686   -1.7481104  0.00    0.0006542    0.0000375   -0.0031725
h    -4.9898050    3.4739709   -0.4159394  0.00   -0.0008264    0.0029632    0.0012034
n    -3.5905688    0.3486550   -0.1233905  0.00    0.0018823   -0.0054847    0.0014633
h    -4.2271775    1.7852012    1.3070525  0.00   -0.0006695    0.0001915    0.0034022
h    -4.5070780   -0.1458943   -0.2424256  0.00   -0.0018815   -0.0021098   -0.0010547
h    -3.0950732    0.3189529   -1.0505607  0.00    0.0012360    0.0001097   -0.0026980
o    -2.3628507    3.5473852    1.2945927  0.00   -0.0016535    0.0061340    0.0053774
o    -1.4874610    2.3161850   -0.5836845  0.00    0.0013956   -0.0100301   -0.0081314
h    -0.7336068    2.9683528   -0.3910309  0.00    0.0031909    0.0055198    0.0016408
    13
 Energy =       0.0466780468
c    -3.8246082    1.7829112    0.2755135  0.00    0.0009262    0.0022810    0.0011663
c    -2.5257678    2.5709289    0.3529095  0.00   -0.0022621   -0.0042919   -0.0012905
c    -4.7760145    2.3634153   -0.7887939  0.00   -0.0015679    0.0000891   -0.0006851
h    -5.7414344    1.8140347   -0.7954670  0.00   -0.0001816    0.0000893   -0.0001263
h    -4.3146535    2.2949368   -1.8008865  0.00    0.0004878   -0.0001221   -0.0016841
h    -4.9879417    3.4365123   -0.5746925  0.00   -0.0005730    0.0018071    0.0004786
n    -3.5798403    0.3583385   -0.0100532  0.00    0.0000721   -0.0033166    0.0008677
h    -4.2876959    1.8800630    1.2886934  0.00   -0.0005119    0.0001742    0.0017791
h    -4.4879027   -0.1542856   -0.0992579  0.00    0.0003054   -0.0002031   -0.0000542
h    -3.0741765    0.2674027   -0.9270897  0.00    0.0007888   -0.0004455   -0.0017328
o    -2.3274112    3.4809312    1.3926857  0.00   -0.0010634    0.0064820    0.0078815
o    -1.5634475    2.4505613   -0.6495778  0.00    0.0035554   -0.0028956   -0.0073451
h    -0.7848627    3.0549374   -0.4209849  0.00    0.0000243    0.0003522    0.0007448
    13
 Energy =       0.0465605359
c    -3.8327314    1.7974439    0.2771952  0.00    0.0000568    0.0001361    0.0001594
c    -2.5375367    2.5917521    0.3531928  0.00    0.0008416    0.0009025    0.0002015
c    -4.7633591    2.3339129   -0.8249104  0.00   -0.0001834   -0.0000862   -0.0000361
h    -5.7265626    1.7808441   -0.8304402  0.00    0.0000281   -0.0000136    0.0000197
h    -4.2814247    2.2306463   -1.8228501  0.00    0.0000356    0.0000323   -0.0002056
h    -4.9814912    3.4120891   -0.6561356  0.00   -0.0000465    0.0002294    0.0000493
n    -3.5779772    0.3665639    0.0479255  0.00    0.0000740   -0.0003154    0.0002244
h    -4.3172035    1.9283730    1.2748153  0.00   -0.0000284    0.0000310    0.0001678
h    -4.4829302   -0.1522576   -0.0398935  0.00   -0.0001451   -0.0000345   -0.0000383
h    -3.0551248    0.2458107   -0.8549139  0.00    0.0001785   -0.0000574   -0.0003552
o    -2.3172797    3.4630881    1.4120645  0.00    0.0001189   -0.0013705   -0.0022530
o    -1.5916648    2.5008348   -0.6605869  0.00   -0.0009209    0.0006512    0.0023556
h    -0.8104709    3.1015865   -0.4324639  0.00   -0.0000092   -0.0001049   -0.0002894
    13
 Energy =       0.0465531319
c    -3.8400838    1.8096026    0.2776737  0.00    0.0002130    0.0005094    0.0002093
c    -2.5439455    2.6022370    0.3537582  0.00    0.0002388    0.0002627    0.0001099
c    -4.7527286    2.3210381   -0.8516316  0.00   -0.0004377   -0.0000201   -0.0001125
h    -5.7171892    1.7701477   -0.8582380  0.00   -0.0000136    0.0000089    0.0000093
h    -4.2558172    2.1919682   -1.8395426  0.00    0.0001843   -0.0000367   -0.0005098
h    -4.9707398    3.4037679   -0.7129781  0.00   -0.0001535    0.0004979    0.0000507
n    -3.5851323    0.3727284    0.0873614  0.00    0.0000055   -0.0008533    0.0005252
h    -4.3394390    1.9660936    1.2646087  0.00   -0.0001885    0.0001008    0.0004914
h    -4.4898862   -0.1465029    0.0005249  0.00   -0.0000413   -0.0000559   -0.0000127
h    -3.0506500    0.2285855   -0.8054246  0.00    0.0003740   -0.0001790   -0.0006549
o    -2.3271526    3.4816860    1.4080050  0.00    0.0000181   -0.0003617   -0.0006276
o    -1.5923296    2.4996063   -0.6547642  0.00   -0.0001994    0.0001567    0.0006115
h    -0.8106630    3.0997293   -0.4263538  0.00    0.0000004   -0.0000296   -0.0000898
    13
 Energy =       0.0465505188
c    -3.8388118    1.8062199    0.2774164  0.00    0.0000738    0.0001845    0.0000626
c    -2.5417599    2.5970681    0.3559692  0.00   -0.0000857   -0.0000961   -0.0000704
c    -4.7533805    2.3253069   -0.8463238  0.00   -0.0001488   -0.0000087   -0.0000476
h    -5.7183536    1.7753315   -0.8543202  0.00   -0.0000054    0.0000014    0.0000016
h    -4.2587833    2.2020028   -1.8357713  0.00    0.0000618   -0.0000152   -0.0001717
h    -4.9698486    3.4070795   -0.7006409  0.00   -0.0000519    0.0001738    0.0000159
n    -3.5854446    0.3708259    0.0772473  0.00   -0.0000021   -0.0003045    0.0001850
h    -4.3359530    1.9565692    1.2660695  0.00   -0.0000645    0.0000356    0.0001681
h    -4.4907734   -0.1473069   -0.0100115  0.00   -0.0000128   -0.0000202   -0.0000050
h    -3.0539726    0.2321361   -0.8178526  0.00    0.0001310   -0.0000661   -0.0002257
o    -2.3134503    3.4550545    1.4261199  0.00    0.0000035    0.0001884    0.0002751
o    -1.5998981    2.5128698   -0.6639067  0.00    0.0000728   -0.0001001   -0.0001975
h    -0.8153272    3.1075303   -0.4309967  0.00    0.0000283    0.0000273    0.0000096
    13
 Energy =       0.0465503128
c    -3.8388931    1.8063597    0.2773444  0.00    0.0000000    0.0000001    0.0000000
c    -2.5417617    2.5970572    0.3559489  0.00   -0.0000003   -0.0000006   -0.0000003
c    -4.7531045    2.3250607   -0.8465751  0.00   -0.0000000   -0.0000000    0.0000000
h    -5.7181526    1.7752189   -0.8545976  0.00   -0.0000000    0.0000000    0.0000000
h    -4.2583518    2.2013970   -1.8357121  0.00    0.0000000    0.0000001   -0.0000001
h    -4.9693631    3.4067601   -0.7013356  0.00   -0.0000000    0.0000001    0.0000001
n    -3.5857323    0.3710789    0.0776961  0.00    0.0000001   -0.0000002   -0.0000000
h    -4.3362027    1.9570142    1.2656788  0.00   -0.0000000   -0.0000001    0.0000001
h    -4.4910912   -0.1470102   -0.0094154  0.00   -0.0000000   -0.0000000   -0.0000000
h    -3.0542646    0.2320927   -0.8171794  0.00    0.0000000    0.0000001   -0.0000001
o    -2.3127926    3.4538902    1.4266442  0.00   -0.0000001    0.0000010    0.0000009
o    -1.6004087    2.5137471   -0.6643137  0.00    0.0000003   -0.0000006   -0.0000007
h    -0.8156381    3.1080211   -0.4311847  0.00    0.0000001    0.0000001    0.0000001
    13
 Energy =       0.0465503128
c    -3.8388957    1.8063629    0.2773452  0.00    0.0000000    0.0000000   -0.0000000
c    -2.5417608    2.5970543    0.3559530  0.00   -0.0000000   -0.0000000   -0.0000000
c    -4.7530968    2.3250574   -0.8465858  0.00   -0.0000000    0.0000000    0.0000000
h    -5.7181478    1.7752206   -0.8546095  0.00   -0.0000000   -0.0000000    0.0000000
h    -4.2583378    2.2013810   -1.8357180  0.00    0.0000000    0.0000000   -0.0000000
h    -4.9693502    3.4067595   -0.7013597  0.00   -0.0000000    0.0000000    0.0000000
n    -3.5857389    0.3710796    0.0777110  0.00    0.0000000   -0.0000000    0.0000000
h    -4.3362124    1.9570281    1.2656744  0.00   -0.0000000   -0.0000000    0.0000000
h    -4.4910994   -0.1470071   -0.0093982  0.00   -0.0000000   -0.0000000   -0.0000000
h    -3.0542694    0.2320833   -0.8171617  0.00    0.0000000    0.0000000   -0.0000000
o    -2.3127515    3.4538199    1.4266927  0.00   -0.0000000    0.0000000    0.0000000
o    -1.6004386    2.5137960   -0.6643417  0.00    0.0000000   -0.0000000   -0.0000000
h    -0.8156576    3.1080522   -0.4312028  0.00    0.0000000    0.0000000    0.0000000
