    24
 Energy =       0.7777497653
c     1.6703672    2.6182922    0.2614132  0.00    0.0469274    0.0715400    0.0240838
c     0.3248649    2.9356558    0.1418766  0.00   -0.0067058    0.1048103    0.0285565
c    -0.5827484    1.9945952   -0.3219261  0.00   -0.0889161    0.0427500    0.0044164
c     2.1038063    1.3347474   -0.0833024  0.00    0.0668446   -0.0115421    0.0084685
c     1.2047783    0.3610782   -0.5608861  0.00   -1.1653272   -1.4740757    0.7203117
c    -0.1441045    0.7159142   -0.6796715  0.00    0.1926910   -1.3653057    0.6231745
o    -0.1504797    4.1703171    0.4675790  0.00   -0.0527487   -0.0249601   -0.0595002
h    -0.5871159    4.5498648   -0.3125495  0.00    0.0451908   -0.0388656    0.0475871
h    -0.8895274    0.0262790   -1.0546636  0.00    0.0905862   -0.1242450    0.1383483
h     3.1621727    1.0964802    0.0165124  0.00    0.0027642   -0.0000404   -0.0008196
h     2.3926004    3.3457758    0.6178375  0.00    0.0100434   -0.0068701   -0.0018526
h    -1.6336796    2.2563998   -0.4108671  0.00   -0.0016294    0.0004527   -0.0013456
c     1.7669373   -1.0073413   -0.8964724  0.00   -0.5475896    0.0180759    0.3676302
c     0.8861134   -2.0194266   -1.6556448  0.00    0.1190120    0.1000086    0.0920766
h     2.1212937   -1.4658931    0.0371405  0.00   -0.0269472    0.0146834   -0.0124347
h     2.6645729   -0.8285312   -1.5058794  0.00   -0.0100796    0.0047410    0.0125298
c    -0.2550706   -2.4993401   -0.7313897  0.00   -0.2414784   -0.2854848   -0.0342654
o    -0.8587891   -3.5562519   -0.8247086  0.00    0.1401954    0.2503399    0.0288701
o    -0.5457168   -1.5582366    0.2075950  0.00    0.1008230    0.1751710   -0.1386559
h     0.1526865   -0.8630946    0.1041719  0.00    1.4035862    2.5643693   -1.8359101
n     0.2410616   -1.4915667   -2.9017470  0.00   -0.0886766   -0.0462075   -0.0618668
h     1.4642165   -2.9122299   -1.9206526  0.00   -0.0181210    0.0189018   -0.0109768
h     0.7142380   -1.9162587   -3.7076332  0.00   -0.0177080    0.0062616    0.0319405
h    -0.7141630   -1.8528277   -2.9524509  0.00    0.0472633    0.0054915    0.0296338
    24
 Energy =       0.7659270532
c     1.6641418    2.6400319    0.2371556  0.00    0.0458017    0.0696686    0.0234698
c     0.3184178    2.9570081    0.1326200  0.00   -0.0064082    0.1017125    0.0276609
c    -0.5913226    2.0215532   -0.3342269  0.00   -0.0866316    0.0416456    0.0042696
c     2.0965388    1.3607037   -0.1197139  0.00    0.0652089   -0.0113495    0.0082690
c     1.1969878    0.3877524   -0.5944284  0.00   -1.1361414   -1.4367208    0.7020197
c    -0.1557019    0.7449345   -0.6984247  0.00    0.1875866   -1.3304716    0.6071362
o    -0.1553800    4.1840146    0.4910800  0.00   -0.0513009   -0.0240151   -0.0572070
h    -0.5902926    4.5913304   -0.2774432  0.00    0.0436834   -0.0375885    0.0458015
h    -0.9008274    0.0534844   -1.0774279  0.00    0.0884792   -0.1213688    0.1343984
h     3.1553726    1.1226990   -0.0247228  0.00    0.0027059   -0.0000501   -0.0007906
h     2.3869190    3.3642859    0.5990875  0.00    0.0097864   -0.0066647   -0.0017924
h    -1.6431115    2.2834040   -0.4117520  0.00   -0.0016509    0.0004777   -0.0013151
c     1.7726240   -0.9950416   -0.9125980  0.00   -0.5331166    0.0186077    0.3583416
c     0.8957306   -2.0570098   -1.6256501  0.00    0.1158620    0.0967344    0.0911523
h     2.1402171   -1.4196058    0.0324859  0.00   -0.0261200    0.0141551   -0.0114528
h     2.6603755   -0.8227603   -1.5386518  0.00   -0.0096903    0.0047662    0.0120744
c    -0.2635190   -2.4921208   -0.6936451  0.00   -0.2338219   -0.2783981   -0.0324680
o    -0.9006638   -3.5379404   -0.7517570  0.00    0.1354638    0.2429366    0.0281134
o    -0.5559600   -1.5184707    0.2088089  0.00    0.0969202    0.1709654   -0.1340677
h     0.1481066   -0.8431983    0.0711357  0.00    1.3689952    2.4999506   -1.7886061
n     0.2735365   -1.5931802   -2.9100638  0.00   -0.0890083   -0.0414122   -0.0603908
h     1.4798467   -2.9636728   -1.8293357  0.00   -0.0168146    0.0166292   -0.0109131
h     0.7572064   -2.0750119   -3.6808235  0.00   -0.0157535    0.0044026    0.0280842
h    -0.6809275   -1.9587879   -2.9580274  0.00    0.0459649    0.0053873    0.0282126
    24
 Energy =       0.7598403935
c     1.6558288    2.6610901    0.2253609  0.00    0.0450006    0.0684248    0.0230469
c     0.3090025    2.9738158    0.1286669  0.00   -0.0061146    0.0994448    0.0269684
c    -0.5977528    2.0421225   -0.3499085  0.00   -0.0851186    0.0408302    0.0041447
c     2.0919817    1.3872894   -0.1430825  0.00    0.0641257   -0.0112851    0.0081018
c     1.1950486    0.4155312   -0.6211181  0.00   -1.1165304   -1.4116320    0.6895579
c    -0.1586802    0.7698003   -0.7230593  0.00    0.1843442   -1.3074828    0.5966180
o    -0.1697489    4.1893227    0.5210949  0.00   -0.0502961   -0.0231427   -0.0553917
h    -0.6031261    4.6229054   -0.2349296  0.00    0.0425840   -0.0366468    0.0444597
h    -0.8961233    0.0734131   -1.1133236  0.00    0.0869714   -0.1192943    0.1317097
h     3.1511722    1.1506297   -0.0495888  0.00    0.0026581   -0.0000682   -0.0007828
h     2.3754953    3.3830240    0.5980244  0.00    0.0096378   -0.0064799   -0.0017348
h    -1.6506085    2.3008574   -0.4221724  0.00   -0.0016404    0.0004922   -0.0012925
c     1.7779085   -0.9766730   -0.9386304  0.00   -0.5236273    0.0195212    0.3525017
c     0.9033017   -2.0883192   -1.5998659  0.00    0.1136111    0.0942675    0.0912919
h     2.1693284   -1.3722449    0.0093708  0.00   -0.0255773    0.0137975   -0.0105967
h     2.6484918   -0.8053436   -1.5892436  0.00   -0.0091848    0.0049144    0.0116363
c    -0.2709339   -2.4804072   -0.6586686  0.00   -0.2283499   -0.2736160   -0.0308116
o    -0.9413852   -3.5113914   -0.6838770  0.00    0.1320153    0.2376576    0.0276013
o    -0.5596420   -1.4774807    0.2106156  0.00    0.0939897    0.1679584   -0.1307503
h     0.1495700   -0.8236508    0.0390995  0.00    1.3461001    2.4572541   -1.7570818
n     0.2994443   -1.6958305   -2.9188583  0.00   -0.0899164   -0.0371240   -0.0600499
h     1.4941784   -3.0038367   -1.7423663  0.00   -0.0157068    0.0145565   -0.0107921
h     0.7896842   -2.2337650   -3.6514495  0.00   -0.0140017    0.0024193    0.0246051
h    -0.6541207   -2.0664571   -2.9584092  0.00    0.0450262    0.0052332    0.0270410
    24
 Energy =       0.7606735929
c     1.6464819    2.6829123    0.2193594  0.00    0.0446078    0.0678504    0.0228504
c     0.2978010    2.9888025    0.1243561  0.00   -0.0059043    0.0982479    0.0265849
c    -0.6027895    2.0586788   -0.3694463  0.00   -0.0844286    0.0403820    0.0040721
c     2.0899174    1.4148629   -0.1581107  0.00    0.0636483   -0.0113162    0.0080076
c     1.1979135    0.4438916   -0.6426981  0.00   -1.1069011   -1.3992967    0.6832249
c    -0.1560011    0.7916237   -0.7513617  0.00    0.1828370   -1.2965425    0.5916096
o    -0.1901313    4.1918030    0.5450783  0.00   -0.0498140   -0.0225256   -0.0543401
h    -0.6225188    4.6455140   -0.2001445  0.00    0.0420126   -0.0361530    0.0437520
h    -0.8809841    0.0874228   -1.1567163  0.00    0.0861079   -0.1181843    0.1301069
h     3.1494296    1.1805589   -0.0635547  0.00    0.0026333   -0.0000994   -0.0007921
h     2.3606440    3.4039152    0.6042493  0.00    0.0096001   -0.0063444   -0.0016844
h    -1.6568306    2.3122786   -0.4415534  0.00   -0.0016434    0.0004943   -0.0012849
c     1.7838252   -0.9559728   -0.9704229  0.00   -0.5190793    0.0207562    0.3498804
c     0.9097212   -2.1168427   -1.5740146  0.00    0.1122871    0.0927277    0.0923460
h     2.2072388   -1.3251225   -0.0259580  0.00   -0.0252446    0.0135562   -0.0096973
h     2.6307776   -0.7829403   -1.6519082  0.00   -0.0085334    0.0051752    0.0111506
c    -0.2773234   -2.4656140   -0.6216312  0.00   -0.2249764   -0.2712062   -0.0294035
o    -0.9827457   -3.4769620   -0.6133231  0.00    0.1297312    0.2344130    0.0273306
o    -0.5570401   -1.4342510    0.2153794  0.00    0.0918113    0.1662566   -0.1285517
h     0.1560760   -0.8041932    0.0073648  0.00    1.3355145    2.4370776   -1.7414918
n     0.3191877   -1.8007066   -2.9222754  0.00   -0.0913972   -0.0333672   -0.0607260
h     1.5071320   -3.0368368   -1.6565066  0.00   -0.0148165    0.0127086   -0.0106425
h     0.8121261   -2.3925181   -3.6144080  0.00   -0.0124839    0.0003464    0.0215639
h    -0.6335925   -2.1759031   -2.9480723  0.00    0.0444315    0.0050434    0.0261344
    24
 Energy =       0.7424351103
c     1.6512589    2.6901042    0.1988237  0.00    0.0432497    0.0658282    0.0222088
c     0.3070912    3.0066518    0.0927228  0.00   -0.0044047    0.0918530    0.0249106
c    -0.6017317    2.0668239   -0.3638572  0.00   -0.0821752    0.0382726    0.0036103
c     2.0848597    1.4114134   -0.1537610  0.00    0.0621247   -0.0113070    0.0076965
c     1.1874199    0.4370275   -0.6221049  0.00   -1.0781007   -1.3631110    0.6653041
c    -0.1653978    0.7906819   -0.7208220  0.00    0.1781175   -1.2630080    0.5759562
o    -0.1630622    4.2479185    0.4272820  0.00   -0.0480343   -0.0178906   -0.0480401
h    -0.5880385    4.6450787   -0.3588976  0.00    0.0389139   -0.0335852    0.0392552
h    -0.9031254    0.0929198   -1.1139507  0.00    0.0837261   -0.1150368    0.1263581
h     3.1442735    1.1753916   -0.0625400  0.00    0.0025806   -0.0000203   -0.0007717
h     2.3730061    3.4203957    0.5524153  0.00    0.0095537   -0.0055843   -0.0014242
h    -1.6529869    2.3292479   -0.4470107  0.00   -0.0017167    0.0006127   -0.0012998
c     1.7753174   -0.9629815   -0.9438450  0.00   -0.5055425    0.0202608    0.3406606
c     0.9061078   -2.1247199   -1.5486458  0.00    0.1093440    0.0902554    0.0900174
h     2.1983248   -1.3295015    0.0023061  0.00   -0.0244871    0.0132848   -0.0095230
h     2.6235896   -0.7914579   -1.6247972  0.00   -0.0083569    0.0050899    0.0107158
c    -0.2826701   -2.4742418   -0.6024670  0.00   -0.2190345   -0.2639484   -0.0285250
o    -0.9845190   -3.4928833   -0.6027112  0.00    0.1262169    0.2282328    0.0267317
o    -0.5686780   -1.4468211    0.2372470  0.00    0.0893909    0.1619054   -0.1250780
h     0.1433813   -0.8115109    0.0340529  0.00    1.3008788    2.3735262   -1.6960103
n     0.3253004   -1.8112023   -2.9005554  0.00   -0.0889858   -0.0326320   -0.0591211
h     1.5060630   -3.0441981   -1.6245204  0.00   -0.0143910    0.0123023   -0.0101938
h     0.8217457   -2.4065585   -3.5878052  0.00   -0.0121103    0.0000117    0.0210653
h    -0.6292149   -2.1831765   -2.9328772  0.00    0.0432429    0.0046878    0.0254964
    24
 Energy =       0.6345878356
c     1.6511427    2.6973525    0.1080694  0.00    0.0357979    0.0550254    0.0191298
c     0.3228825    3.0495217    0.0387341  0.00   -0.0026772    0.0729115    0.0208578
c    -0.6218098    2.1197471   -0.3339791  0.00   -0.0688239    0.0296350    0.0026837
c     2.0391305    1.4049275   -0.2285446  0.00    0.0523326   -0.0088011    0.0072747
c     1.1141142    0.4287596   -0.6402807  0.00   -0.8972494   -1.1372031    0.5485569
c    -0.2388426    0.8242084   -0.6533461  0.00    0.1485001   -1.0463756    0.4798008
o    -0.0842580    4.3365554    0.3064725  0.00   -0.0397411   -0.0083300   -0.0373959
h    -0.4946894    4.7164067   -0.5052974  0.00    0.0314455   -0.0266619    0.0309932
h    -1.0514201    0.1694423   -0.9745800  0.00    0.0621185   -0.0920248    0.0966404
h     3.0990360    1.1596033   -0.1652824  0.00    0.0025177    0.0000534   -0.0006442
h     2.4021925    3.4265047    0.4049774  0.00    0.0090366   -0.0026593   -0.0005241
h    -1.6686870    2.4101493   -0.3857023  0.00   -0.0025360    0.0003434   -0.0017005
c     1.7410760   -0.9761203   -0.8688028  0.00   -0.4177428    0.0156904    0.2813541
c     0.9300693   -2.1527401   -1.4905412  0.00    0.0915467    0.0747931    0.0781485
h     2.1272793   -1.3059511    0.1130389  0.00   -0.0186292    0.0110726   -0.0063349
h     2.6250410   -0.8261009   -1.5157000  0.00   -0.0059784    0.0043815    0.0071607
c    -0.2927823   -2.5025298   -0.6134091  0.00   -0.1789544   -0.2117704   -0.0214225
o    -0.9656403   -3.5726984   -0.6857401  0.00    0.1021000    0.1824851    0.0212066
o    -0.6482518   -1.4953996    0.2270115  0.00    0.0705222    0.1293881   -0.0986031
h     0.0597167   -0.8189796    0.0733295  0.00    1.0863917    1.9756959   -1.4044486
n     0.4487242   -1.8722983   -2.8842988  0.00   -0.0749631   -0.0224796   -0.0513690
h     1.5534248   -3.0661187   -1.4952014  0.00   -0.0098498    0.0078106   -0.0072363
h     0.9804988   -2.5066412   -3.5167569  0.00   -0.0068402   -0.0045530    0.0151454
h    -0.5196323   -2.2131990   -2.9804890  0.00    0.0316759    0.0015727    0.0207266
    24
 Energy =       0.5905013698
c     1.6580686    2.6853793    0.0252223  0.00    0.0330888    0.0507711    0.0179493
c     0.3396663    3.0596108   -0.0111419  0.00   -0.0015650    0.0658650    0.0192918
c    -0.6310662    2.1356136   -0.3102826  0.00   -0.0630876    0.0261413    0.0026086
c     2.0135317    1.3805218   -0.2885766  0.00    0.0487491   -0.0073314    0.0074085
c     1.0676999    0.3969844   -0.6411566  0.00   -0.8143052   -1.0329192    0.4940056
c    -0.2876812    0.8229173   -0.5909580  0.00    0.1346672   -0.9511648    0.4364458
o    -0.0285227    4.3700400    0.2090675  0.00   -0.0356412   -0.0048340   -0.0329373
h    -0.4356304    4.7304366   -0.6171061  0.00    0.0283076   -0.0238891    0.0275533
h    -1.1590927    0.1998350   -0.8274188  0.00    0.0495809   -0.0813152    0.0824781
h     3.0741329    1.1316211   -0.2460320  0.00    0.0025458   -0.0002849   -0.0005654
h     2.4303506    3.4131323    0.2716670  0.00    0.0092658   -0.0012969   -0.0001101
h    -1.6745325    2.4447007   -0.3277902  0.00   -0.0032490    0.0000344   -0.0016776
c     1.7240029   -1.0101402   -0.7775869  0.00   -0.3783416    0.0129550    0.2542475
c     0.9451769   -2.1506063   -1.4719466  0.00    0.0823791    0.0679781    0.0723578
h     2.0351031   -1.3361788    0.2389900  0.00   -0.0163273    0.0093969   -0.0023493
h     2.6631754   -0.8841235   -1.3569469  0.00   -0.0018988    0.0045381    0.0046700
c    -0.2867099   -2.5358379   -0.6396098  0.00   -0.1609313   -0.1905535   -0.0184700
o    -0.9152642   -3.6436384   -0.7612150  0.00    0.0914840    0.1620341    0.0184630
o    -0.6891877   -1.5576475    0.2191813  0.00    0.0614070    0.1125672   -0.0862976
h     0.0067596   -0.8398708    0.1210922  0.00    0.9889625    1.7969422   -1.2704322
n     0.5032989   -1.7991513   -2.8608580  0.00   -0.0671283   -0.0179010   -0.0480606
h     1.5712260   -3.0634762   -1.5022155  0.00   -0.0089175    0.0065513   -0.0064927
h     1.0527435   -2.3968088   -3.5154199  0.00   -0.0057432   -0.0050311    0.0121872
h    -0.4689342   -2.1189119   -3.0052777  0.00    0.0266981    0.0007463    0.0177264
    24
 Energy =       0.5570464881
c     1.6531919    2.6980840   -0.0805185  0.00    0.0304807    0.0468599    0.0167709
c     0.3430372    3.0866191   -0.0875601  0.00   -0.0005041    0.0594900    0.0178307
c    -0.6450869    2.1646300   -0.3122571  0.00   -0.0577043    0.0230056    0.0024196
c     1.9847947    1.3828262   -0.3645257  0.00    0.0453549   -0.0053504    0.0074172
c     1.0240990    0.3889354   -0.6503385  0.00   -0.7394052   -0.9372826    0.4456497
c    -0.3306529    0.8379266   -0.5467494  0.00    0.1218532   -0.8638207    0.3962735
o     0.0021642    4.4145692    0.0806083  0.00   -0.0315972   -0.0020327   -0.0287902
h    -0.4007886    4.7497799   -0.7618878  0.00    0.0252951   -0.0212784    0.0241571
h    -1.2444733    0.2402595   -0.7012205  0.00    0.0394168   -0.0728181    0.0717034
h     3.0468291    1.1359522   -0.3438898  0.00    0.0027227   -0.0001284   -0.0003201
h     2.4401441    3.4278543    0.1129139  0.00    0.0094702   -0.0000453    0.0002003
h    -1.6849572    2.4876204   -0.3004126  0.00   -0.0036552   -0.0002488   -0.0015918
c     1.7100710   -1.0218384   -0.7059844  0.00   -0.3415405    0.0093162    0.2294955
c     0.9686554   -2.1744509   -1.4119072  0.00    0.0751604    0.0613868    0.0658174
h     1.9840475   -1.3174892    0.3334728  0.00   -0.0143630    0.0082593   -0.0006693
h     2.6739307   -0.9163785   -1.2511510  0.00   -0.0007456    0.0038451    0.0035109
c    -0.2841599   -2.5568885   -0.6181055  0.00   -0.1455440   -0.1721708   -0.0166642
o    -0.8998201   -3.6816818   -0.7615796  0.00    0.0826806    0.1459482    0.0165433
o    -0.7271889   -1.5799431    0.2245909  0.00    0.0548184    0.1001550   -0.0765065
h    -0.0388331   -0.8442199    0.1517054  0.00    0.8977802    1.6310665   -1.1492133
n     0.5794045   -1.8320640   -2.8167701  0.00   -0.0606171   -0.0152080   -0.0444509
h     1.6036521   -3.0830995   -1.4095990  0.00   -0.0076233    0.0055445   -0.0059051
h     1.1453754   -2.4396886   -3.4491704  0.00   -0.0047079   -0.0049014    0.0105811
h    -0.3951210   -2.1329129   -2.9959828  0.00    0.0229740    0.0004087    0.0157408
    24
 Energy =       0.5309341390
c     1.6443135    2.7123352   -0.1873661  0.00    0.0283649    0.0437007    0.0157379
c     0.3411996    3.1111112   -0.1671804  0.00    0.0003771    0.0544529    0.0165902
c    -0.6582671    2.1905850   -0.3205582  0.00   -0.0532632    0.0205294    0.0022215
c     1.9576557    1.3884000   -0.4393395  0.00    0.0426165   -0.0034859    0.0073175
c     0.9862873    0.3849292   -0.6566368  0.00   -0.6778234   -0.8582993    0.4058553
c    -0.3648157    0.8531184   -0.5073387  0.00    0.1113643   -0.7916158    0.3629017
o     0.0191930    4.4509414   -0.0479285  0.00   -0.0281747   -0.0000430   -0.0254593
h    -0.3811628    4.7602287   -0.9045978  0.00    0.0227884   -0.0191514    0.0213273
h    -1.3088249    0.2784665   -0.5833349  0.00    0.0314608   -0.0661287    0.0636149
h     3.0209866    1.1454840   -0.4414099  0.00    0.0029728    0.0002218   -0.0000669
h     2.4414545    3.4443575   -0.0458392  0.00    0.0096642    0.0009994    0.0003962
h    -1.6943830    2.5247789   -0.2823601  0.00   -0.0039235   -0.0004778   -0.0014842
c     1.6982506   -1.0250966   -0.6415885  0.00   -0.3113458    0.0066282    0.2093965
c     0.9914590   -2.1970576   -1.3471952  0.00    0.0691745    0.0558074    0.0606422
h     1.9446686   -1.2892688    0.4150776  0.00   -0.0128229    0.0073954    0.0004510
h     2.6794572   -0.9366432   -1.1601997  0.00   -0.0001021    0.0031048    0.0026496
c    -0.2816342   -2.5727458   -0.5883843  0.00   -0.1327721   -0.1572245   -0.0152009
o    -0.8892447   -3.7098771   -0.7472809  0.00    0.0754125    0.1329241    0.0150319
o    -0.7607475   -1.5928034    0.2329127  0.00    0.0493441    0.0904329   -0.0686601
h    -0.0768653   -0.8458999    0.1813254  0.00    0.8222699    1.4933598   -1.0493847
n     0.6527230   -1.8767202   -2.7690208  0.00   -0.0556841   -0.0128213   -0.0416794
h     1.6343837   -3.1006755   -1.3055947  0.00   -0.0063874    0.0044905   -0.0053723
h     1.2337463   -2.4997537   -3.3738720  0.00   -0.0036389   -0.0050089    0.0090563
h    -0.3215186   -2.1637927   -2.9786080  0.00    0.0201278    0.0002094    0.0141177
    24
 Energy =       0.5084005715
c     1.6324249    2.7243913   -0.2943598  0.00    0.0265646    0.0410164    0.0147816
c     0.3356977    3.1309770   -0.2479924  0.00    0.0011559    0.0502208    0.0154652
c    -0.6705710    2.2121480   -0.3315698  0.00   -0.0494278    0.0184458    0.0020218
c     1.9315422    1.3932091   -0.5122547  0.00    0.0402845   -0.0017178    0.0071196
c     0.9530568    0.3816935   -0.6589407  0.00   -0.6244966   -0.7897807    0.3713726
c    -0.3921814    0.8666994   -0.4694725  0.00    0.1023862   -0.7287327    0.3337122
o     0.0266487    4.4787667   -0.1755329  0.00   -0.0251567    0.0014945   -0.0226352
h    -0.3726023    4.7615455   -1.0444779  0.00    0.0205984   -0.0173304    0.0188544
h    -1.3574478    0.3141374   -0.4685090  0.00    0.0247896   -0.0604978    0.0571227
h     2.9957087    1.1549806   -0.5383734  0.00    0.0032760    0.0007241    0.0001655
h     2.4363530    3.4583855   -0.2045923  0.00    0.0098606    0.0019298    0.0005084
h    -1.7026982    2.5559656   -0.2687637  0.00   -0.0041195   -0.0006675   -0.0013601
c     1.6881233   -1.0235962   -0.5804717  0.00   -0.2852914    0.0045326    0.1921474
c     1.0133029   -2.2152761   -1.2822977  0.00    0.0638898    0.0509600    0.0561903
h     1.9111674   -1.2583010    0.4896034  0.00   -0.0115417    0.0066953    0.0012462
h     2.6836053   -0.9495229   -1.0749575  0.00    0.0003473    0.0023017    0.0019247
c    -0.2782874   -2.5851142   -0.5566479  0.00   -0.1216314   -0.1442532   -0.0139216
o    -0.8781271   -3.7331206   -0.7287859  0.00    0.0690877    0.1216403    0.0137282
o    -0.7905588   -1.6023165    0.2428944  0.00    0.0445272    0.0821068   -0.0620438
h    -0.1094858   -0.8474371    0.2130732  0.00    0.7565870    1.3732075   -0.9627059
n     0.7223191   -1.9188213   -2.7188057  0.00   -0.0514248   -0.0108188   -0.0392585
h     1.6625799   -3.1130948   -1.2022177  0.00   -0.0053155    0.0035718   -0.0048790
h     1.3174440   -2.5560434   -3.2960657  0.00   -0.0027137   -0.0051159    0.0077486
h    -0.2496992   -2.1958540   -2.9568006  0.00    0.0177641    0.0000671    0.0126946
    24
 Energy =       0.4874595563
c     1.6177996    2.7331660   -0.4012245  0.00    0.0249697    0.0386232    0.0138516
c     0.3271003    3.1459134   -0.3290212  0.00    0.0018526    0.0465016    0.0143901
c    -0.6821165    2.2294678   -0.3438314  0.00   -0.0459927    0.0166069    0.0018233
c     1.9060581    1.3961780   -0.5834041  0.00    0.0381869   -0.0000298    0.0068169
c     0.9238496    0.3787414   -0.6574351  0.00   -0.5764520   -0.7280149    0.3404082
c    -0.4138336    0.8787090   -0.4323556  0.00    0.0943874   -0.6717409    0.3071381
o     0.0263686    4.4985764   -0.3011691  0.00   -0.0224234    0.0027098   -0.0201695
h    -0.3731092    4.7548181   -1.1805406  0.00    0.0186229   -0.0157180    0.0166392
h    -1.3927149    0.3477858   -0.3559423  0.00    0.0190438   -0.0555461    0.0517174
h     2.9703249    1.1625311   -0.6352633  0.00    0.0036156    0.0013574    0.0003492
h     2.4255628    3.4685325   -0.3633455  0.00    0.0100481    0.0027767    0.0005491
h    -1.7099789    2.5818298   -0.2575672  0.00   -0.0042634   -0.0008214   -0.0012215
c     1.6796118   -1.0185403   -0.5218431  0.00   -0.2619013    0.0028628    0.1766907
c     1.0342382   -2.2287816   -1.2186129  0.00    0.0590225    0.0466086    0.0521339
h     1.8819237   -1.2264114    0.5587781  0.00   -0.0104256    0.0060995    0.0018059
h     2.6875898   -0.9564152   -0.9930489  0.00    0.0006876    0.0014171    0.0013078
c    -0.2739716   -2.5944267   -0.5245255  0.00   -0.1115542   -0.1324781   -0.0127431
o    -0.8652975   -3.7528600   -0.7083307  0.00    0.0633719    0.1114333    0.0125464
o    -0.8169193   -1.6099706    0.2544323  0.00    0.0401465    0.0746344   -0.0562851
h    -0.1376832   -0.8493603    0.2474783  0.00    0.6971879    1.2642639   -0.8844148
n     0.7883016   -1.9553112   -2.6671015  0.00   -0.0475004   -0.0091440   -0.0369636
h     1.6883996   -3.1202677   -1.1024468  0.00   -0.0044003    0.0028029   -0.0044164
h     1.3968260   -2.6043018   -3.2179805  0.00   -0.0019435   -0.0051617    0.0066420
h    -0.1800149   -2.2252011   -2.9320177  0.00    0.0157132   -0.0000433    0.0114039
    24
 Energy =       0.4670115368
c     1.6006305    2.7382480   -0.5078517  0.00    0.0235176    0.0364085    0.0129158
c     0.3158383    3.1560711   -0.4095848  0.00    0.0024712    0.0431255    0.0133262
c    -0.6929140    2.2430184   -0.3564466  0.00   -0.0428439    0.0149207    0.0016328
c     1.8809613    1.3969327   -0.6530961  0.00    0.0362181    0.0015782    0.0064030
c     0.8983593    0.3761988   -0.6526470  0.00   -0.5319592   -0.6708309    0.3119546
c    -0.4304620    0.8895404   -0.3957987  0.00    0.0870196   -0.6186848    0.2822940
o     0.0196634    4.5110977   -0.4239329  0.00   -0.0199089    0.0036657   -0.0179801
h    -0.3813405    4.7412634   -1.3118841  0.00    0.0168051   -0.0142584    0.0146320
h    -1.4160967    0.3798967   -0.2461546  0.00    0.0140816   -0.0510666    0.0471064
h     2.9443318    1.1670326   -0.7325388  0.00    0.0039749    0.0020917    0.0004556
h     2.4095494    3.4741165   -0.5220986  0.00    0.0102161    0.0035516    0.0005243
h    -1.7161901    2.6031511   -0.2475018  0.00   -0.0043638   -0.0009411   -0.0010712
c     1.6727199   -1.0104706   -0.4656818  0.00   -0.2403123    0.0015301    0.1624105
c     1.0543173   -2.2378303   -1.1567516  0.00    0.0544116    0.0425997    0.0483004
h     1.8563578   -1.1941426    0.6232549  0.00   -0.0094200    0.0055711    0.0021845
h     2.6919160   -0.9578182   -0.9139287  0.00    0.0009541    0.0004597    0.0008069
c    -0.2686357   -2.6009090   -0.4923370  0.00   -0.1022130   -0.1214769   -0.0116243
o    -0.8505727   -3.7697094   -0.6860558  0.00    0.0580739    0.1019446    0.0114449
o    -0.8398510   -1.6162321    0.2679598  0.00    0.0360990    0.0677794   -0.0511643
h    -0.1620319   -0.8517103    0.2843830  0.00    0.6419857    1.1628647   -0.8118000
n     0.8506048   -1.9857503   -2.6146787  0.00   -0.0437709   -0.0077329   -0.0346858
h     1.7121636   -3.1226323   -1.0072497  0.00   -0.0036214    0.0021659   -0.0039802
h     1.4718997   -2.6440500   -3.1407786  0.00   -0.0013118   -0.0051349    0.0056992
h    -0.1129039   -2.2509110   -2.9049186  0.00    0.0138965   -0.0001309    0.0102145
    24
 Energy =       0.4464782836
c     1.5810918    2.7394640   -0.6141966  0.00    0.0221738    0.0343068    0.0119557
c     0.3023239    3.1617670   -0.4891875  0.00    0.0030109    0.0399916    0.0122532
c    -0.7028714    2.2533749   -0.3687755  0.00   -0.0399209    0.0133279    0.0014622
c     1.8560791    1.3953155   -0.7216456  0.00    0.0343173    0.0030942    0.0058759
c     0.8763686    0.3743228   -0.6452285  0.00   -0.4900404   -0.6170025    0.2854553
c    -0.4425605    0.8996431   -0.3598010  0.00    0.0800589   -0.5685064    0.2587257
o     0.0076506    4.5171123   -0.5431921  0.00   -0.0175764    0.0044013   -0.0160149
h    -0.3963070    4.7219818   -1.4378632  0.00    0.0151129   -0.0129171    0.0128038
h    -1.4288062    0.4108453   -0.1400584  0.00    0.0098467   -0.0469450    0.0430885
h     2.9173199    1.1676920   -0.8304325  0.00    0.0043360    0.0028846    0.0004611
h     2.3886811    3.4747142   -0.6808517  0.00    0.0103573    0.0042582    0.0004380
h    -1.7211840    2.6207351   -0.2376601  0.00   -0.0044261   -0.0010300   -0.0009125
c     1.6674554   -0.9996871   -0.4121484  0.00   -0.2200339    0.0004771    0.1489593
c     1.0736136   -2.2428047   -1.0970057  0.00    0.0499718    0.0388429    0.0445971
h     1.8342198   -1.1615574    0.6833475  0.00   -0.0084928    0.0050877    0.0024217
h     2.6967883   -0.9539287   -0.8377107  0.00    0.0011655   -0.0005386    0.0004375
c    -0.2621764   -2.6048224   -0.4598900  0.00   -0.0934238   -0.1110306   -0.0105526
o    -0.8339580   -3.7840794   -0.6614933  0.00    0.0530874    0.0929850    0.0104048
o    -0.8592368   -1.6213804    0.2841796  0.00    0.0323479    0.0614529   -0.0465343
h    -0.1829372   -0.8543776    0.3234045  0.00    0.5897970    1.0669922   -0.7433858
n     0.9089823   -2.0104478   -2.5621223  0.00   -0.0401828   -0.0065380   -0.0323747
h     1.7343090   -3.1206494   -0.9169958  0.00   -0.0029614    0.0016416   -0.0035693
h     1.5424190   -2.6758123   -3.0652225  0.00   -0.0008013   -0.0050369    0.0048898
h    -0.0489500   -2.2730194   -2.8757689  0.00    0.0122763   -0.0001991    0.0091146
    24
 Energy =       0.4255508039
c     1.5593094    2.7367365   -0.7202366  0.00    0.0209155    0.0322791    0.0109602
c     0.2869293    3.1633676   -0.5675326  0.00    0.0034724    0.0370333    0.0111617
c    -0.7118389    2.2611195   -0.3803718  0.00   -0.0371849    0.0117900    0.0013261
c     1.8312580    1.3912450   -0.7892498  0.00    0.0324469    0.0044977    0.0052382
c     0.8576875    0.3733566   -0.6357767  0.00   -0.4500991   -0.5657839    0.2605705
c    -0.4505070    0.9094226   -0.3243791  0.00    0.0733652   -0.5205917    0.2361968
o    -0.0087198    4.5173687   -0.6587087  0.00   -0.0154003    0.0049491   -0.0142319
h    -0.4172790    4.6978364   -1.5582362  0.00    0.0135234   -0.0116700    0.0111286
h    -1.4319975    0.4409438   -0.0384141  0.00    0.0062943   -0.0431073    0.0394998
h     2.8889467    1.1639205   -0.9288193  0.00    0.0046792    0.0036845    0.0003522
h     2.3632176    3.4700216   -0.8396048  0.00    0.0104657    0.0048975    0.0002926
h    -1.7247435    2.6353680   -0.2274041  0.00   -0.0044538   -0.0010928   -0.0007479
c     1.6637902   -0.9863851   -0.3613703  0.00   -0.2007675   -0.0003381    0.1361296
c     1.0922428   -2.2440618   -1.0395252  0.00    0.0456582    0.0352827    0.0409696
h     1.8153561   -1.1285595    0.7392869  0.00   -0.0076247    0.0046354    0.0025476
h     2.7022424   -0.9448524   -0.7647245  0.00    0.0013335   -0.0015308    0.0002094
c    -0.2543973   -2.6065299   -0.4268167  0.00   -0.0850698   -0.1010182   -0.0095315
o    -0.8153163   -3.7964340   -0.6340770  0.00    0.0483467    0.0844436    0.0094175
o    -0.8749413   -1.6257878    0.3038586  0.00    0.0288777    0.0556134   -0.0422751
h    -0.2007458   -0.8572429    0.3642039  0.00    0.5399116    0.9754592   -0.6783136
n     0.9631240   -2.0298128   -2.5098968  0.00   -0.0367141   -0.0055249   -0.0300066
h     1.7553930   -3.1146685   -0.8319000  0.00   -0.0024061    0.0012143   -0.0031847
h     1.6080823   -2.7001863   -2.9919395  0.00   -0.0003990   -0.0048723    0.0041916
h     0.0112219   -2.2917843   -2.8446842  0.00    0.0108291   -0.0002498    0.0080993
    24
 Energy =       0.4040101706
c     1.5353359    2.7300347   -0.8259459  0.00    0.0197174    0.0302973    0.0099203
c     0.2699367    3.1612082   -0.6445518  0.00    0.0038598    0.0341955    0.0100464