    27
 Energy =       0.2768116576
c    -1.4235396    2.6054793   -0.0667700  0.00   -0.0462421    0.0383036    0.0027079
c    -1.3072796    1.2134697   -0.1072300  0.00   -0.0852635   -0.0325657    0.0019785
c    -0.0178900    0.6711998   -0.1697000  0.00   -0.0886530   -0.1878581   -0.0010197
c    -0.2940599    3.4190890   -0.0891300  0.00   -0.0231289    0.0691059    0.0028766
c     0.9872197    2.8590292   -0.1560400  0.00    0.0105216    0.0642308    0.0009318
c     1.1340797    1.4562096   -0.1970299  0.00    0.0530376    0.0517884    0.0021895
n     0.3879399   -0.6395298   -0.2140799  0.00    0.1441077    0.1091704   -0.0039547
c     2.2666594    0.5727398   -0.2659299  0.00    0.1387717   -0.0561339   -0.0195741
c     1.7555995   -0.7123598   -0.2706899  0.00   -0.0964034   -0.0971726    0.0047708
h    -0.2400399   -1.4313496   -0.2047299  0.00    0.0365798    0.0477201   -0.0003410
c     3.7030089    1.0223397   -0.3320099  0.00    0.0084047    0.0181124    0.0201740
c     4.7465686   -0.0024900    0.1378100  0.00   -0.0938423    0.0325933    0.0975557
h     3.7978489    1.9290294    0.2803699  0.00    0.0006205   -0.0112786   -0.0105334
h     3.9233889    1.3348996   -1.3618196  0.00   -0.0055311    0.0027690    0.0158291
c     6.0911583    0.7171698    0.3515799  0.00    0.2488187    0.1711998   -0.2740539
n     4.9813086   -1.1161597   -0.8485798  0.00    0.0844104   -0.0760565   -0.0245233
h     4.4627987   -0.4486599    1.0982597  0.00    0.0154446   -0.0073377   -0.0257909
h     5.9519483   -1.0348997   -1.1684897  0.00   -0.0316798    0.0261396    0.0460043
h     4.9673786   -2.0001494   -0.3277699  0.00    0.0017207    0.0345777   -0.0113948
h    -2.4108593    3.0588691   -0.0157800  0.00   -0.0008552    0.0002641    0.0000652
h    -2.1896094    0.5822398   -0.0890100  0.00   -0.0036374    0.0037357    0.0000997
h    -0.4052699    4.5000487   -0.0535400  0.00    0.0008646    0.0002296    0.0003267
h     1.8590495    3.5066790   -0.1715100  0.00   -0.0007014    0.0026072    0.0007829
h     2.2327294   -1.6813195   -0.3062999  0.00   -0.0416307   -0.0114959    0.0036343
o     6.7518081    1.2603096   -0.5181639  0.00   -0.1570741   -0.1427498    0.2047571
o     6.4672982    0.6782418    1.6583195  0.00   -0.0449032   -0.0236994   -0.0146002
h     6.5087381    1.6283795    1.9413994  0.00   -0.0237569   -0.0261995   -0.0188980
    27
 Energy =       0.2301091740
c    -1.3739864    2.5994999   -0.0457841  0.00   -0.0295710    0.0245597    0.0016936
c    -1.2611645    1.2199802   -0.0879661  0.00   -0.0551618   -0.0211181    0.0012127
c     0.0079990    0.6779886   -0.1505978  0.00   -0.0566800   -0.1216394   -0.0004352
c    -0.2477274    3.4019374   -0.0695932  0.00   -0.0151540    0.0445014    0.0018388
c     1.0177602    2.8384240   -0.1383799  0.00    0.0069624    0.0416518    0.0005628
c     1.1414034    1.4530122   -0.1783026  0.00    0.0335051    0.0341554    0.0013304
n     0.3835137   -0.6573752   -0.2125253  0.00    0.0919500    0.0697707   -0.0024744
c     2.2557675    0.6018713   -0.2556652  0.00    0.0905157   -0.0358171   -0.0123866
c     1.7734580   -0.6803569   -0.2819521  0.00   -0.0634310   -0.0606921    0.0033126
h    -0.2439913   -1.4652276   -0.2059318  0.00    0.0238844    0.0308532   -0.0002877
c     3.6950970    1.0520714   -0.3455260  0.00    0.0051993    0.0114276    0.0131236
c     4.7243585    0.0124926    0.1299054  0.00   -0.0614272    0.0225267    0.0634922
h     3.8083527    1.9720841    0.2527784  0.00    0.0003410   -0.0068586   -0.0068218
h     3.9118888    1.3305703   -1.3918716  0.00   -0.0033949    0.0015783    0.0096863
c     6.0769457    0.6898711    0.3727687  0.00    0.1605057    0.1133719   -0.1779621
n     4.8997238   -1.0823994   -0.8733073  0.00    0.0519255   -0.0442806   -0.0181792
h     4.4214807   -0.4258883    1.0960133  0.00    0.0103873   -0.0047329   -0.0165288
h     5.8760644   -1.0576041   -1.2167569  0.00   -0.0179101    0.0175427    0.0298513
h     4.8086255   -1.9941984   -0.3881155  0.00   -0.0003038    0.0166443   -0.0052959
h    -2.3595556    3.0562711    0.0054393  0.00   -0.0005631    0.0001636    0.0000411
h    -2.1426719    0.5877214   -0.0732597  0.00   -0.0023374    0.0024026    0.0000447
h    -0.3534848    4.4835844   -0.0356469  0.00    0.0005427    0.0001619    0.0002128
h     1.8960695    3.4768401   -0.1601200  0.00   -0.0002910    0.0015972    0.0005196
h     2.3125727   -1.6166204   -0.3591268  0.00   -0.0241864   -0.0092589    0.0020793
o     6.7672594    1.2472400   -0.5469655  0.00   -0.1020402   -0.0932858    0.1334333
o     6.5092297    0.6412213    1.6703615  0.00   -0.0228588   -0.0452152   -0.0159919
h     6.3829933    1.5854940    2.0235641  0.00   -0.0204084    0.0099896   -0.0060716
    27
 Energy =       0.2264851227
c    -1.3632189    2.5887948   -0.0318733  0.00   -0.0266574    0.0221491    0.0015251
c    -1.2495257    1.2115680   -0.0755714  0.00   -0.0497533   -0.0190459    0.0010955
c     0.0167330    0.6709716   -0.1381577  0.00   -0.0511215   -0.1097183   -0.0003616
c    -0.2382708    3.3903613   -0.0546705  0.00   -0.0136706    0.0401334    0.0016548
c     1.0249273    2.8274415   -0.1234095  0.00    0.0062939    0.0375671    0.0005012
c     1.1459647    1.4452182   -0.1642040  0.00    0.0301904    0.0308380    0.0011919
n     0.3890981   -0.6681066   -0.2045643  0.00    0.0828928    0.0629104   -0.0022634
c     2.2584361    0.6016291   -0.2422182  0.00    0.0816589   -0.0323019   -0.0111192
c     1.7832042   -0.6807924   -0.2725009  0.00   -0.0572527   -0.0546941    0.0030083
h    -0.2376082   -1.4794468   -0.2007227  0.00    0.0215482    0.0278186   -0.0002694
c     3.6963773    1.0592423   -0.3327035  0.00    0.0044225    0.0103094    0.0118209
c     4.7363067    0.0148077    0.1113302  0.00   -0.0551069    0.0205059    0.0575604
h     3.8095662    1.9660679    0.2873994  0.00    0.0002733   -0.0059286   -0.0059543
h     3.9045831    1.3627026   -1.3753937  0.00   -0.0030209    0.0015526    0.0084126
c     6.0877616    0.6942855    0.3516395  0.00    0.1445497    0.1027893   -0.1608627
n     4.8972332   -1.0587192   -0.9148815  0.00    0.0468087   -0.0391201   -0.0173603
h     4.4475654   -0.4417465    1.0752861  0.00    0.0093171   -0.0043002   -0.0145796
h     5.8776490   -1.0507752   -1.2525667  0.00   -0.0158662    0.0159153    0.0269406
h     4.7747225   -1.9831690   -0.4575755  0.00   -0.0005152    0.0135579   -0.0042176
h    -2.3489606    3.0451522    0.0191864  0.00   -0.0005076    0.0001477    0.0000373
h    -2.1302582    0.5782218   -0.0626524  0.00   -0.0021095    0.0021660    0.0000399
h    -0.3440852    4.4720080   -0.0202513  0.00    0.0004899    0.0001457    0.0001921
h     1.9036661    3.4652454   -0.1451633  0.00   -0.0002588    0.0014333    0.0004696
h     2.3326310   -1.6104064   -0.3545761  0.00   -0.0217259   -0.0084141    0.0018550
o     6.7678728    1.2652873   -0.5818945  0.00   -0.0921720   -0.0837618    0.1204335
o     6.5213709    0.6773410    1.6514542  0.00   -0.0125809   -0.0655230   -0.0228916
h     6.2242402    1.5853210    2.0426916  0.00   -0.0261257    0.0328683    0.0031408
    27
 Energy =       0.2217782788
c    -1.3717970    2.5540789   -0.0065999  0.00   -0.0245317    0.0204040    0.0014062
c    -1.2502125    1.1788455   -0.0482164  0.00   -0.0458047   -0.0175299    0.0010061
c     0.0168882    0.6458337   -0.1103267  0.00   -0.0471037   -0.1009428   -0.0003537
c    -0.2520626    3.3610262   -0.0303281  0.00   -0.0125653    0.0369545    0.0015281
c     1.0122821    2.8050686   -0.0978242  0.00    0.0058467    0.0345701    0.0004611
c     1.1385212    1.4258460   -0.1368254  0.00    0.0277197    0.0284479    0.0010755
n     0.3961752   -0.6944182   -0.1701807  0.00    0.0762041    0.0578646   -0.0020533
c     2.2548196    0.5950078   -0.2107500  0.00    0.0750915   -0.0299127   -0.0097543
c     1.7935364   -0.6906581   -0.2366187  0.00   -0.0527587   -0.0503093    0.0026946
h    -0.2238764   -1.5129496   -0.1640398  0.00    0.0198011    0.0255236   -0.0002423
c     3.6874633    1.0728769   -0.2919946  0.00    0.0024913    0.0091225    0.0111130
c     4.7525527    0.0185306    0.0719317  0.00   -0.0495912    0.0200980    0.0542141
h     3.7943281    1.9401799    0.3883239  0.00   -0.0000252   -0.0033700   -0.0040021
h     3.8776022    1.4479569   -1.3184672  0.00   -0.0023753    0.0024816    0.0051894
c     6.0970463    0.7097372    0.3126980  0.00    0.1325437    0.0942811   -0.1496923
n     4.8969522   -1.0001561   -1.0119280  0.00    0.0442279   -0.0345088   -0.0203803
h     4.4989979   -0.4897905    1.0236020  0.00    0.0081121   -0.0047185   -0.0114367
h     5.8814839   -1.0015481   -1.3410389  0.00   -0.0143631    0.0148332    0.0248649
h     4.7361688   -1.9504273   -0.6163287  0.00   -0.0011234    0.0078696   -0.0023790
h    -2.3600537    3.0049901    0.0440223  0.00   -0.0004840    0.0001459    0.0000353
h    -2.1269110    0.5399973   -0.0333465  0.00   -0.0019628    0.0019800    0.0000376
h    -0.3636165    4.4421579    0.0026678  0.00    0.0004509    0.0001528    0.0001775
h     1.8883474    3.4466328   -0.1197995  0.00   -0.0002176    0.0013145    0.0004225
h     2.3567712   -1.6122502   -0.3107328  0.00   -0.0199722   -0.0078670    0.0016377
o     6.7819545    1.2716764   -0.6341784  0.00   -0.0848184   -0.0771162    0.1106563
o     6.5134773    0.7489587    1.6195475  0.00   -0.0094150   -0.0642725   -0.0207237
h     6.2611427    1.6913019    1.9601678  0.00   -0.0253767    0.0345038    0.0044979
    27
 Energy =       0.2186576844
c    -1.3588419    2.5830892    0.0118745  0.00   -0.0226255    0.0187817    0.0013015
c    -1.2462521    1.2085503   -0.0267652  0.00   -0.0421984   -0.0161752    0.0009333
c     0.0150923    0.6675577   -0.0868655  0.00   -0.0433611   -0.0928656   -0.0003304
c    -0.2341155    3.3813814   -0.0117185  0.00   -0.0115988    0.0340552    0.0014147
c     1.0250266    2.8165141   -0.0758821  0.00    0.0054098    0.0318541    0.0004223
c     1.1396302    1.4385123   -0.1126231  0.00    0.0254920    0.0262128    0.0009512
n     0.3817105   -0.6779726   -0.1370071  0.00    0.0701615    0.0532226   -0.0018923
c     2.2488811    0.6039830   -0.1779995  0.00    0.0690808   -0.0277775   -0.0087594
c     1.7821775   -0.6790687   -0.1947316  0.00   -0.0486572   -0.0462980    0.0023845
h    -0.2456380   -1.4928571   -0.1295826  0.00    0.0181865    0.0234645   -0.0002262
c     3.6852082    1.0774985   -0.2416808  0.00    0.0000647    0.0077919    0.0098359
c     4.7521315   -0.0072930    0.0313157  0.00   -0.0439910    0.0197182    0.0523754
h     3.8042239    1.8933466    0.5030006  0.00   -0.0000196   -0.0005620   -0.0014340
h     3.8647964    1.5261069   -1.2440176  0.00   -0.0021431    0.0036377    0.0020649
c     6.1123843    0.6555536    0.2643963  0.00    0.1222638    0.0867735   -0.1376760
n     4.8451879   -0.9713728   -1.1081536  0.00    0.0400618   -0.0287858   -0.0240127
h     4.5278166   -0.5603583    0.9681085  0.00    0.0075617   -0.0046482   -0.0086763
h     5.8326938   -1.0185560   -1.4303562  0.00   -0.0114334    0.0136911    0.0226440
h     4.6160044   -1.9361744   -0.7750818  0.00   -0.0023767    0.0002450   -0.0006257
h    -2.3440487    3.0408258    0.0607173  0.00   -0.0004749    0.0001455    0.0000343
h    -2.1268563    0.5750943   -0.0102892  0.00   -0.0018258    0.0018039    0.0000359
h    -0.3379462    4.4633682    0.0194502  0.00    0.0004092    0.0001745    0.0001649
h     1.9067496    3.4505461   -0.0961150  0.00   -0.0001244    0.0012138    0.0003793
h     2.3438090   -1.6026717   -0.2491533  0.00   -0.0183144   -0.0074324    0.0013564
o     6.8028483    1.2085465   -0.6938064  0.00   -0.0779037   -0.0709575    0.1018193
o     6.5525299    0.6775005    1.5652826  0.00   -0.0078814   -0.0603891   -0.0192129
h     6.3427785    1.6268548    1.9111197  0.00   -0.0237624    0.0331054    0.0047281
    27
 Energy =       0.2161161533
c    -1.3777181    2.5243496    0.0288522  0.00   -0.0226048    0.0184061    0.0012902
c    -1.2484962    1.1506458    0.0117233  0.00   -0.0417099   -0.0162395    0.0009020
c     0.0182947    0.6244879   -0.0627365  0.00   -0.0424850   -0.0908434   -0.0004189
c    -0.2637732    3.3364184   -0.0286421  0.00   -0.0111501    0.0338265    0.0013771
c     1.0006626    2.7866539   -0.1089395  0.00    0.0056134    0.0315504    0.0003979
c     1.1316466    1.4098871   -0.1254959  0.00    0.0250989    0.0260349    0.0008851
n     0.4034639   -0.7187327   -0.0811953  0.00    0.0664860    0.0521986   -0.0014937
c     2.2496237    0.5903786   -0.2088189  0.00    0.0677689   -0.0281807   -0.0083300
c     1.8017045   -0.6984857   -0.2074106  0.00   -0.0456691   -0.0447833    0.0020192
h    -0.2096619   -1.5445134   -0.0274083  0.00    0.0166139    0.0214850   -0.0001015
c     3.6772378    1.0804953   -0.3269329  0.00   -0.0014524    0.0064469    0.0094447
c     4.7571506    0.0312220    0.0325318  0.00   -0.0424143    0.0196909    0.0535702
h     3.7906741    1.9613547    0.3477141  0.00    0.0004696    0.0030327    0.0012180
h     3.8440972    1.4477623   -1.3674431  0.00   -0.0019999    0.0051289   -0.0016865
c     6.0914134    0.7359063    0.2897558  0.00    0.1197710    0.0851957   -0.1372816
n     4.9082345   -0.9772105   -1.0649309  0.00    0.0369979   -0.0262880   -0.0276353
h     4.5078831   -0.4865594    0.9840549  0.00    0.0074579   -0.0045622   -0.0071794
h     5.8965003   -0.9665568   -1.3948441  0.00   -0.0084777    0.0136382    0.0216143
h     4.7490450   -1.9425409   -0.6842860  0.00   -0.0030906   -0.0055148    0.0008302
h    -2.3677595    2.9703968    0.0896034  0.00   -0.0006505    0.0001389    0.0000433
h    -2.1205383    0.5061656    0.0594620  0.00   -0.0022711    0.0013844    0.0000592
h    -0.3807681    4.4175979   -0.0133642  0.00    0.0004744    0.0004111    0.0001593
h     1.8733146    3.4321925   -0.1596584  0.00    0.0004110    0.0015259    0.0003420
h     2.3785037   -1.6116440   -0.2941730  0.00   -0.0172829   -0.0077667    0.0010750
o     6.7959465    1.2905313   -0.6594927  0.00   -0.0763829   -0.0694385    0.1000319
o     6.4842615    0.8126948    1.6057317  0.00   -0.0055190   -0.0620063   -0.0163272
h     6.2970385    1.7856079    1.8997798  0.00   -0.0240026    0.0355283    0.0051945
    27
 Energy =       0.2136445473
c    -1.3881754    2.4917720   -0.0005182  0.00   -0.0220701    0.0178122    0.0012644
c    -1.2525827    1.1195661   -0.0477968  0.00   -0.0403492   -0.0161824    0.0008927
c     0.0170788    0.6007760   -0.1115458  0.00   -0.0406466   -0.0861021   -0.0002026
c    -0.2772492    3.3097345   -0.0215613  0.00   -0.0104103    0.0330046    0.0013118
c     0.9902683    2.7674403   -0.0910867  0.00    0.0056257    0.0308109    0.0003636
c     1.1270934    1.3923490   -0.1344489  0.00    0.0244849    0.0255075    0.0008331
n     0.4063529   -0.7416510   -0.1855947  0.00    0.0628592    0.0489427   -0.0016264
c     2.2499864    0.5820762   -0.2148924  0.00    0.0658248   -0.0263831   -0.0080769
c     1.8104962   -0.7086604   -0.2557685  0.00   -0.0427501   -0.0428532    0.0019992
h    -0.2044339   -1.5733424   -0.1861615  0.00    0.0145942    0.0187656   -0.0001439
c     3.6758816    1.0844121   -0.3038468  0.00   -0.0013539    0.0064230    0.0090111
c     4.7610147    0.0506542    0.0834695  0.00   -0.0407071    0.0191071    0.0518168
h     3.7673689    1.9697153    0.3685090  0.00    0.0004192    0.0031178    0.0013584
h     3.8607839    1.4477814   -1.3427535  0.00   -0.0019024    0.0049539   -0.0017966
c     6.0833714    0.7777408    0.3385572  0.00    0.1153035    0.0822491   -0.1328832
n     4.9312440   -0.9736629   -0.9962952  0.00    0.0355954   -0.0253266   -0.0272031
h     4.5063392   -0.4522777    1.0416721  0.00    0.0071950   -0.0044416   -0.0067523
h     5.9201695   -0.9529046   -1.3251008  0.00   -0.0080793    0.0131003    0.0208094
h     4.7888439   -1.9347175   -0.5980445  0.00   -0.0029431   -0.0058154    0.0009022
h    -2.3813290    2.9320684    0.0514253  0.00   -0.0007227    0.0000973    0.0000453
h    -2.1228645    0.4700132   -0.0373044  0.00   -0.0027359    0.0008255    0.0000605
h    -0.3993042    4.3900644    0.0147249  0.00    0.0005403    0.0006568    0.0001563
h     1.8606069    3.4182604   -0.1126813  0.00    0.0007562    0.0017739    0.0003223
h     2.3971930   -1.6145359   -0.3508878  0.00   -0.0167969   -0.0076716    0.0010591
o     6.7863522    1.3254319   -0.6201842  0.00   -0.0736400   -0.0669517    0.0963991
o     6.4652010    0.8912336    1.6556423  0.00   -0.0046186   -0.0614860   -0.0153617
h     6.3082743    1.8791678    1.9159092  0.00   -0.0234719    0.0360655    0.0054413
    27
 Energy =       0.2083233634
c    -1.4016187    2.4360960   -0.0047531  0.00   -0.0199574    0.0161181    0.0011396
c    -1.2525888    1.0667131   -0.0512255  0.00   -0.0364661   -0.0146227    0.0007964
c     0.0197850    0.5605389   -0.1171514  0.00   -0.0367644   -0.0777034   -0.0002027
c    -0.2995339    3.2637848   -0.0292759  0.00   -0.0093701    0.0298506    0.0011857
c     0.9710451    2.7337976   -0.1015742  0.00    0.0051706    0.0278184    0.0003275
c     1.1191159    1.3620876   -0.1434181  0.00    0.0220546    0.0230804    0.0007370
n     0.4206541   -0.7811359   -0.1925182  0.00    0.0565243    0.0441442   -0.0014024
c     2.2478066    0.5678510   -0.2283493  0.00    0.0593922   -0.0238886   -0.0072739
c     1.8265079   -0.7266032   -0.2723746  0.00   -0.0385404   -0.0386108    0.0017483
h    -0.1801155   -1.6218615   -0.1898196  0.00    0.0130985    0.0167897   -0.0001240
c     3.6670308    1.0869155   -0.3308736  0.00   -0.0018809    0.0057322    0.0078794
c     4.7649054    0.0849649    0.1026936  0.00   -0.0364869    0.0171158    0.0471612
h     3.7430770    1.9986645    0.3084033  0.00    0.0004048    0.0036550    0.0018142
h     3.8527632    1.4133224   -1.3820887  0.00   -0.0018013    0.0047451   -0.0023305
c     6.0629421    0.8497012    0.3682367  0.00    0.1034982    0.0745301   -0.1216751
n     4.9713918   -0.9585700   -0.9509664  0.00    0.0316882   -0.0229182   -0.0258239
h     4.4992112   -0.3986967    1.0684992  0.00    0.0065262   -0.0040288   -0.0057464
h     5.9607555   -0.9148682   -1.2799439  0.00   -0.0068082    0.0117802    0.0186742
h     4.8580840   -1.9138504   -0.5292093  0.00   -0.0026898   -0.0064153    0.0010809
h    -2.3988609    2.8668288    0.0490833  0.00   -0.0007058    0.0001140    0.0000433
h    -2.1160649    0.4083415   -0.0384472  0.00   -0.0025246    0.0007093    0.0000545
h    -0.4317624    4.3429612    0.0059423  0.00    0.0004860    0.0006487    0.0001426
h     1.8346501    3.3931438   -0.1272967  0.00    0.0007872    0.0016106    0.0002895
h     2.4304843   -1.6201555   -0.3796582  0.00   -0.0150096   -0.0071376    0.0009069
o     6.7791563    1.3865076   -0.5980263  0.00   -0.0664283   -0.0603665    0.0867573
o     6.4105853    1.0241054    1.6905980  0.00   -0.0020165   -0.0636304   -0.0121182
h     6.3285749    2.0379209    1.8869502  0.00   -0.0221804    0.0408798    0.0059585
    27
 Energy =       0.2022206774
c    -1.4143873    2.3759714   -0.0072318  0.00   -0.0171460    0.0138603    0.0009709
c    -1.2504476    1.0102800   -0.0516638  0.00   -0.0313056   -0.0125469    0.0006598
c     0.0241531    0.5181857   -0.1213534  0.00   -0.0315996   -0.0665828   -0.0002240
c    -0.3224132    3.2140267   -0.0380843  0.00   -0.0079866    0.0256526    0.0010196
c     0.9509867    2.6976223   -0.1148705  0.00    0.0045487    0.0238429    0.0002828
c     1.1111079    1.3301174   -0.1538209  0.00    0.0188268    0.0198411    0.0006156
n     0.4364163   -0.8232007   -0.1969972  0.00    0.0481171    0.0377850   -0.0010826
c     2.2452044    0.5539029   -0.2448279  0.00    0.0508674   -0.0206248   -0.0061522
c     1.8440508   -0.7442332   -0.2902790  0.00   -0.0329532   -0.0329656    0.0013978
h    -0.1538718   -1.6735934   -0.1885712  0.00    0.0111384    0.0142019   -0.0000906
c     3.6574091    1.0895195   -0.3662456  0.00   -0.0025638    0.0047021    0.0064281
c     4.7671175    0.1261460    0.1233586  0.00   -0.0308317    0.0144896    0.0411611
h     3.7175223    2.0324920    0.2294397  0.00    0.0003463    0.0044666    0.0024087
h     3.8453579    1.3675950   -1.4314068  0.00   -0.0016356    0.0044601   -0.0031833
c     6.0381657    0.9311278    0.3966688  0.00    0.0882450    0.0645305   -0.1056376
n     5.0127068   -0.9422288   -0.8948643  0.00    0.0270262   -0.0201879   -0.0238776
h     4.4871252   -0.3311220    1.0990174  0.00    0.0056366   -0.0035145   -0.0043629
h     6.0058059   -0.8875437   -1.2147623  0.00   -0.0055624    0.0098246    0.0159208
h     4.9161568   -1.8865044   -0.4450432  0.00   -0.0022502   -0.0064799    0.0011450
h    -2.4159614    2.7961012    0.0497795  0.00   -0.0006731    0.0001292    0.0000399
h    -2.1061245    0.3421037   -0.0343224  0.00   -0.0022389    0.0005588    0.0000465
h    -0.4658089    4.2918479   -0.0049738  0.00    0.0004167    0.0006251    0.0001241
h     1.8067897    3.3664327   -0.1472776  0.00    0.0008290    0.0013947    0.0002424
h     2.4670931   -1.6233523   -0.4114083  0.00   -0.0126765   -0.0063699    0.0007178
o     6.7707206    1.4522936   -0.5806108  0.00   -0.0568405   -0.0517499    0.0738268
o     6.3528801    1.1678439    1.7202976  0.00   -0.0003007   -0.0641871   -0.0081186
h     6.3602264    2.1966741    1.8534898  0.00   -0.0194339    0.0448439    0.0057216
    27
 Energy =       0.1962917880
c    -1.4270907    2.3109985   -0.0071218  0.00   -0.0140169    0.0113398    0.0007799
c    -1.2462965    0.9497806   -0.0503464  0.00   -0.0255524   -0.0102298    0.0005058
c     0.0305852    0.4737004   -0.1256047  0.00   -0.0258279   -0.0541864   -0.0002310
c    -0.3467212    3.1606353   -0.0454239  0.00   -0.0064501    0.0209700    0.0008306
c     0.9297627    2.6596691   -0.1285186  0.00    0.0038397    0.0194070    0.0002285
c     1.1036698    1.2969527   -0.1652581  0.00    0.0152293    0.0162009    0.0004823
n     0.4548290   -0.8670462   -0.2038779  0.00    0.0387788    0.0306783   -0.0007521
c     2.2433324    0.5403549   -0.2643690  0.00    0.0413796   -0.0169926   -0.0048536
c     1.8638351   -0.7614754   -0.3112930  0.00   -0.0267373   -0.0266846    0.0010157
h    -0.1244338   -1.7274503   -0.1903065  0.00    0.0089788    0.0113551   -0.0000567
c     3.6481665    1.0922369   -0.4074920  0.00   -0.0033370    0.0034779    0.0048157
c     4.7682873    0.1749458    0.1458735  0.00   -0.0245323    0.0116562    0.0346931
h     3.6912629    2.0686371    0.1350187  0.00    0.0002338    0.0054841    0.0030297
h     3.8409465    1.3126191   -1.4859578  0.00   -0.0014332    0.0040864   -0.0042596
c     6.0107516    1.0221917    0.4203762  0.00    0.0713764    0.0536317   -0.0870190
n     5.0545610   -0.9241652   -0.8262813  0.00    0.0217015   -0.0173260   -0.0216825
h     4.4723906   -0.2482100    1.1335704  0.00    0.0046355   -0.0030027   -0.0027279
h     6.0574403   -0.8755876   -1.1208698  0.00   -0.0038161    0.0073283    0.0126069
h     4.9531733   -1.8524666   -0.3456883  0.00   -0.0017367   -0.0062339    0.0012819
h    -2.4333858    2.7190186    0.0544717  0.00   -0.0006401    0.0001458    0.0000364
h    -2.0929828    0.2706012   -0.0279053  0.00   -0.0019187    0.0003920    0.0000378
h    -0.5027541    4.2367539   -0.0138724  0.00    0.0003377    0.0005958    0.0001034
h     1.7762665    3.3393649   -0.1685247  0.00    0.0008710    0.0011666    0.0001800
h     2.5065340   -1.6245731   -0.4478674  0.00   -0.0101059   -0.0054681    0.0005242
o     6.7616509    1.5203406   -0.5713882  0.00   -0.0460612   -0.0422285    0.0591757
o     6.2940398    1.3252514    1.7403687  0.00    0.0001626   -0.0628835   -0.0034440
h     6.4001611    2.3554272    1.8117244  0.00   -0.0153588    0.0473204    0.0046988
    27
 Energy =       0.1917255701
c    -1.4380123    2.2484376    0.0021571  0.00   -0.0112579    0.0090915    0.0006063
c    -1.2404806    0.8917879   -0.0419835  0.00   -0.0204570   -0.0081697    0.0003695
c     0.0386427    0.4317934   -0.1260205  0.00   -0.0206886   -0.0431797   -0.0002159
c    -0.3693981    3.1096974   -0.0446331  0.00   -0.0051108    0.0168144    0.0006560
c     0.9101752    2.6243299   -0.1372112  0.00    0.0031886    0.0154679    0.0001732
c     1.0982664    1.2661891   -0.1740664  0.00    0.0120413    0.0129383    0.0003672
n     0.4743250   -0.9075611   -0.2103718  0.00    0.0305359    0.0243678   -0.0004847
c     2.2430904    0.5279792   -0.2850348  0.00    0.0329735   -0.0137905   -0.0036613
c     1.8835063   -0.7771022   -0.3337397  0.00   -0.0211964   -0.0211286    0.0006903
h    -0.0946336   -1.7769273   -0.1922224  0.00    0.0070814    0.0088766   -0.0000300
c     3.6407648    1.0938125   -0.4519248  0.00   -0.0038818    0.0023415    0.0034043
c     4.7693312    0.2262223    0.1635927  0.00   -0.0191480    0.0092509    0.0290616
h     3.6682398    2.1011583    0.0329529  0.00    0.0001508    0.0063634    0.0034550
h     3.8393544    1.2537385   -1.5406330  0.00   -0.0012316    0.0036550   -0.0052086
c     5.9854752    1.1133143    0.4288386  0.00    0.0563525    0.0441060   -0.0699686
n     5.0927090   -0.9058318   -0.7561576  0.00    0.0153989   -0.0140039   -0.0198115
h     4.4600177   -0.1584235    1.1642326  0.00    0.0037295   -0.0026147   -0.0012423
h     6.1125740   -0.8842112   -1.0010569  0.00   -0.0002389    0.0047470    0.0089908
h     4.9545064   -1.8159848   -0.2500585  0.00   -0.0015048   -0.0065630    0.0020590
h    -2.4487482    2.6441762    0.0708444  0.00   -0.0006188    0.0001593    0.0000341
h    -2.0780245    0.2017516   -0.0138000  0.00   -0.0016299    0.0002484    0.0000306
h    -0.5380796    4.1839032   -0.0128480  0.00    0.0002634    0.0005610    0.0000847
h     1.7467934    3.3151529   -0.1853223  0.00    0.0008734    0.0009886    0.0001118
h     2.5427032   -1.6249613   -0.4881823  0.00   -0.0078251   -0.0046201    0.0003771
o     6.7543504    1.5800186   -0.5790843  0.00   -0.0363460   -0.0338099    0.0458827
o     6.2413376    1.4840045    1.7395575  0.00   -0.0003356   -0.0589093    0.0009638
h     6.4391955    2.5020409    1.7556116  0.00   -0.0111180    0.0468119    0.0033050
    27
 Energy =       0.1893922557
c    -1.4442080    2.1962070    0.0239085  0.00   -0.0095738    0.0077086    0.0004971
c    -1.2334216    0.8432298   -0.0266774  0.00   -0.0173248   -0.0068850    0.0002925
c     0.0475675    0.3964026   -0.1234847  0.00   -0.0175182   -0.0363172   -0.0001716
c    -0.3852266    3.0671203   -0.0297691  0.00   -0.0043401    0.0142500    0.0005419
c     0.8968091    2.5947469   -0.1358927  0.00    0.0027707    0.0130281    0.0001274
c     1.0968530    1.2399824   -0.1788632  0.00    0.0100234    0.0109040    0.0002890
n     0.4921947   -0.9406579   -0.2210495  0.00    0.0254650    0.0204381   -0.0003468
c     2.2455088    0.5155324   -0.3077372  0.00    0.0277876   -0.0118954   -0.0028694
c     1.8999637   -0.7916184   -0.3623215  0.00   -0.0177157   -0.0176672    0.0004980
h    -0.0688599   -1.8164412   -0.2010703  0.00    0.0059220    0.0073847   -0.0000178
c     3.6368437    1.0912188   -0.4987982  0.00   -0.0043068    0.0014801    0.0024579
c     4.7725336    0.2729686    0.1715604  0.00   -0.0162188    0.0076023    0.0261188
h     3.6509783    2.1247716   -0.0711657  0.00    0.0001308    0.0071914    0.0037613
h     3.8410493    1.1940488   -1.5939636  0.00   -0.0011018    0.0033445   -0.0060088
c     5.9634738    1.1973240    0.4241176  0.00    0.0471820    0.0385885   -0.0591618
n     5.1345354   -0.8861121   -0.6980603  0.00    0.0049135   -0.0079228   -0.0209536
h     4.4533095   -0.0775343    1.1824366  0.00    0.0031861   -0.0023723   -0.0003161
h     6.1802570   -0.9161590   -0.8423038  0.00    0.0105201    0.0022895    0.0053880
h     4.9092205   -1.7812603   -0.1904879  0.00   -0.0029922   -0.0104461    0.0054681
h    -2.4581619    2.5817397    0.1028693  0.00   -0.0006285    0.0001772    0.0000350
h    -2.0635182    0.1445617    0.0057745  0.00   -0.0014400    0.0001712    0.0000267
h    -0.5640756    4.1395367    0.0068676  0.00    0.0002038    0.0005395    0.0000738
h     1.7246922    3.2950836   -0.1903870  0.00    0.0008311    0.0008965    0.0000530
h     2.5684543   -1.6274966   -0.5406014  0.00   -0.0062204   -0.0041573    0.0003144
o     6.7475604    1.6352472   -0.5939110  0.00   -0.0303723   -0.0286042    0.0376605
o     6.1918411    1.6271729    1.7234666  0.00   -0.0006570   -0.0535809    0.0039724
h     6.4518073    2.6288904    1.6989797  0.00   -0.0085254    0.0438543    0.0022702
    27
 Energy =       0.1877358110
c    -1.4480517    2.1736069    0.0831674  0.00   -0.0085445    0.0067490    0.0004305
c    -1.2318895    0.8224951    0.0314641  0.00   -0.0153862   -0.0060427    0.0002415
c     0.0484742    0.3813281   -0.0819886  0.00   -0.0155012   -0.0320110   -0.0001756
c    -0.3940070    3.0484048    0.0139504  0.00   -0.0038507    0.0126173    0.0004765
c     0.8876956    2.5814716   -0.1096344  0.00    0.0025568    0.0114524    0.0001049
c     1.0921887    1.2284708   -0.1537905  0.00    0.0087675    0.0096314    0.0002756
n     0.4952119   -0.9553580   -0.1854508  0.00    0.0220788    0.0180379   -0.0002042
c     2.2404287    0.5103601   -0.3022697  0.00    0.0244017   -0.0107120   -0.0024377
c     1.9006626   -0.7977071   -0.3527950  0.00   -0.0153559   -0.0154384    0.0003794
h    -0.0622326   -1.8340004   -0.1549716  0.00    0.0051445    0.0064159    0.0000005
c     3.6260596    1.0899518   -0.5257160  0.00   -0.0036443    0.0011771    0.0020081
c     4.7741040    0.2962282    0.1510263  0.00   -0.0148315    0.0069522    0.0231022
h     3.6416535    2.1335694   -0.1254801  0.00    0.0002756    0.0066876    0.0034907
h     3.8167213    1.1644136   -1.6253869  0.00   -0.0009582    0.0030304   -0.0057732
c     5.9717019    1.2287273    0.3433648  0.00    0.0400941    0.0337877   -0.0517174