    24
 Energy =       0.1442770930
c     1.6703672    2.6182922    0.2614132  0.00    0.0451271    0.0678321    0.0349659
c     0.3248649    2.9356558    0.1418766  0.00   -0.0084012    0.1014347    0.0375010
c    -0.5827484    1.9945952   -0.3219261  0.00   -0.0876835    0.0437790   -0.0020681
c     2.1038063    1.3347474   -0.0833024  0.00    0.0673639   -0.0104292    0.0081282
c     1.2047783    0.3610782   -0.5608861  0.00    0.0190400   -0.0960092   -0.0238696
c    -0.1441045    0.7159142   -0.6796715  0.00   -0.0317692   -0.0458397   -0.0217064
o    -0.1504797    4.1703171    0.4675790  0.00   -0.0615113   -0.0488910    0.0199025
h    -0.7850651    4.0755150    1.1967033  0.00    0.0569706   -0.0065728   -0.0488617
h    -0.8895274    0.0262790   -1.0546636  0.00   -0.0057274    0.0131262   -0.0000649
h     3.1621727    1.0964802    0.0165124  0.00    0.0023646   -0.0000695   -0.0006157
h     2.3926004    3.3457758    0.6178375  0.00    0.0097545   -0.0073469   -0.0006906
h    -1.6336796    2.2563998   -0.4108671  0.00   -0.0023249   -0.0011590    0.0016491
c     1.7669373   -1.0073413   -0.8964724  0.00    0.0277020   -0.0361503   -0.0212070
c     0.8861134   -2.0194266   -1.6556448  0.00    0.0623559    0.1098679    0.0500222
h     2.1212937   -1.4658931    0.0371405  0.00   -0.0026592    0.0031250   -0.0148140
h     2.6645729   -0.8285312   -1.5058794  0.00   -0.0144422    0.0004541    0.0086661
c     1.7481012   -3.2276699   -2.0845864  0.00   -0.0764700   -0.3028878   -0.2400164
o     1.5179317   -3.9787875   -3.0189800  0.00    0.0616682    0.1801782    0.2166593
o     2.8094516   -3.3865268   -1.2478409  0.00   -0.0485844    0.0637755    0.0180162
h     2.6387698   -4.2373642   -0.7696890  0.00   -0.0149280    0.0362682   -0.0111872
n    -0.2697763   -2.5678537   -0.8742070  0.00   -0.0336007   -0.0895430    0.0218681
h     0.4960411   -1.5757973   -2.5789902  0.00   -0.0013950   -0.0106858    0.0181194
h    -0.2733198   -3.5880456   -0.9878198  0.00    0.0384856    0.0407040   -0.0084854
h    -0.0861426   -2.4268019    0.1217436  0.00   -0.0013354   -0.0049607   -0.0419110
    24
 Energy =       0.1147982623
c     1.5856318    2.6225874    0.1958962  0.00    0.0298745    0.0443989    0.0232386
c     0.2464327    2.9077999    0.0771329  0.00   -0.0054616    0.0668992    0.0250247
c    -0.6315443    1.9493724   -0.3735315  0.00   -0.0576345    0.0295330   -0.0011159
c     2.0456895    1.3606256   -0.1306501  0.00    0.0444135   -0.0074024    0.0053660
c     1.1769987    0.3748321   -0.5929452  0.00    0.0121268   -0.0628269   -0.0160746
c    -0.1694471    0.6881884   -0.7155396  0.00   -0.0213169   -0.0296084   -0.0143573
o    -0.2424549    4.1489485    0.3991248  0.00   -0.0395871   -0.0316910    0.0101616
h    -0.8488073    4.0683920    1.1744104  0.00    0.0368303   -0.0048255   -0.0295634
h    -0.8914220   -0.0338451   -1.0795296  0.00   -0.0042923    0.0081548   -0.0002553
h     3.1090422    1.1484416   -0.0254493  0.00    0.0019097   -0.0002494   -0.0003932
h     2.2824135    3.3776225    0.5459604  0.00    0.0068506   -0.0044570   -0.0002452
h    -1.6868147    2.1899142   -0.4663674  0.00   -0.0017605   -0.0005951    0.0011009
c     1.7785173   -0.9823529   -0.9048435  0.00    0.0183441   -0.0230778   -0.0138232
c     0.9214627   -2.0554986   -1.6153627  0.00    0.0407473    0.0711670    0.0327512
h     2.1741848   -1.4030456    0.0374665  0.00   -0.0009474    0.0013610   -0.0086071
h     2.6612938   -0.7902027   -1.5428229  0.00   -0.0090153    0.0009573    0.0054365
c     1.8202453   -3.2407932   -1.9998945  0.00   -0.0610390   -0.2011249   -0.1575838
o     1.6049928   -4.0249672   -2.9841124  0.00    0.0436491    0.1183939    0.1423603
o     2.9499143   -3.3585124   -1.2269236  0.00   -0.0201416    0.0592071    0.0016881
h     2.7799168   -4.1398379   -0.6109359  0.00   -0.0152232    0.0083824    0.0038256
n    -0.2165487   -2.5630555   -0.7964091  0.00   -0.0231547   -0.0589627    0.0122610
h     0.5221764   -1.6585710   -2.5650668  0.00   -0.0012619   -0.0066030    0.0105244
h    -0.2440158   -3.5949221   -0.8716923  0.00    0.0268088    0.0253017   -0.0061280
h    -0.0348984   -2.3701092    0.2014645  0.00   -0.0007187   -0.0023321   -0.0255917
    24
 Energy =       0.1082498427
c     1.4795878    2.6275985    0.2041514  0.00    0.0244624    0.0358928    0.0186155
c     0.1353582    2.8675587    0.0905615  0.00   -0.0032680    0.0522248    0.0191857
c    -0.7034271    1.8921567   -0.3867764  0.00   -0.0466809    0.0237049   -0.0011830
c     1.9820813    1.3917269   -0.1383241  0.00    0.0363618   -0.0065598    0.0042952
c     1.1508933    0.3875946   -0.6140141  0.00    0.0095480   -0.0507407   -0.0130275
c    -0.2002232    0.6555894   -0.7439041  0.00   -0.0176566   -0.0242844   -0.0116721
o    -0.4012080    4.0790789    0.4716056  0.00   -0.0311681   -0.0206139    0.0058206
h    -0.9763055    3.9385977    1.2726835  0.00    0.0272726   -0.0049733   -0.0198299
h    -0.8924867   -0.0891548   -1.1222831  0.00   -0.0039619    0.0060319   -0.0004901
h     3.0515778    1.2134882   -0.0285175  0.00    0.0021715   -0.0003656   -0.0002559
h     2.1444783    3.4005104    0.5780008  0.00    0.0059997   -0.0028417    0.0001594
h    -1.7665029    2.0986140   -0.4768810  0.00   -0.0020532   -0.0002182    0.0008629
c     1.8029514   -0.9449676   -0.9328443  0.00    0.0149845   -0.0186424   -0.0108892
c     0.9857801   -2.0596261   -1.6305436  0.00    0.0318977    0.0571074    0.0262216
h     2.2259021   -1.3470427    0.0082714  0.00   -0.0004585    0.0007161   -0.0065235
h     2.6735333   -0.7179808   -1.5810040  0.00   -0.0065569    0.0011619    0.0040603
c     1.9326345   -3.2088240   -2.0026046  0.00   -0.0505269   -0.1617716   -0.1261800
o     1.7428778   -4.0160312   -3.0020326  0.00    0.0358130    0.0942629    0.1137048
o     3.0816175   -3.2892696   -1.2448935  0.00   -0.0126802    0.0547160   -0.0047739
h     2.9086071   -4.0038070   -0.5443379  0.00   -0.0140709   -0.0003562    0.0095149
n    -0.1342572   -2.5849303   -0.8012983  0.00   -0.0194529   -0.0471332    0.0087567
h     0.5734704   -1.6864742   -2.5872918  0.00   -0.0013163   -0.0050956    0.0081547
h    -0.1361035   -3.6223236   -0.8548791  0.00    0.0217072    0.0192236   -0.0049005
h     0.0321225   -2.3610710    0.1965351  0.00   -0.0003673   -0.0014458   -0.0196266
    24
 Energy =       0.1080159654
c     1.3802533    2.6314406    0.2289870  0.00    0.0236929    0.0349078    0.0179946
c     0.0303390    2.8340701    0.1148117  0.00   -0.0027517    0.0495475    0.0181453
c    -0.7771221    1.8444702   -0.3868714  0.00   -0.0452555    0.0227668   -0.0012420
c     1.9187574    1.4169975   -0.1319658  0.00    0.0354511   -0.0064712    0.0041360
c     1.1187816    0.3975024   -0.6263629  0.00    0.0086227   -0.0482742   -0.0129235
c    -0.2377688    0.6282981   -0.7617866  0.00   -0.0171866   -0.0238263   -0.0114054
o    -0.5463018    4.0178965    0.5302696  0.00   -0.0297514   -0.0173790    0.0048034
h    -1.1070511    3.8331494    1.3353172  0.00    0.0251247   -0.0051233   -0.0174579
h    -0.9040300   -0.1316312   -1.1581838  0.00   -0.0041620    0.0052579   -0.0007213
h     2.9931693    1.2682447   -0.0218584  0.00    0.0025703   -0.0004615   -0.0002054
h     2.0202227    3.4160515    0.6224005  0.00    0.0060378   -0.0022384    0.0003773
h    -1.8457135    2.0220544   -0.4773819  0.00   -0.0024232   -0.0000794    0.0008022
c     1.8193135   -0.9025462   -0.9763983  0.00    0.0140128   -0.0175998   -0.0106331
c     1.0345238   -2.0647154   -1.6363572  0.00    0.0302391    0.0553042    0.0248056
h     2.3036676   -1.2801082   -0.0516805  0.00    0.0007031   -0.0005721   -0.0046223
h     2.6502799   -0.6305086   -1.6626341  0.00   -0.0043251    0.0021636    0.0026277
c     2.0279248   -3.1756391   -2.0063552  0.00   -0.0502483   -0.1550790   -0.1209763
o     1.8790481   -3.9940390   -3.0095046  0.00    0.0347454    0.0895175    0.1079719
o     3.1935312   -3.1949515   -1.2640637  0.00   -0.0091571    0.0532538   -0.0047963
h     3.0673602   -3.9136906   -0.5570718  0.00   -0.0137825   -0.0016395    0.0104014
n    -0.0454340   -2.6206524   -0.7737262  0.00   -0.0203713   -0.0457157    0.0083509
h     0.5854627   -1.7266158   -2.5915038  0.00   -0.0020182   -0.0042931    0.0068835
h    -0.0175333   -3.6588426   -0.8280231  0.00    0.0206672    0.0176205   -0.0044291
h     0.1512788   -2.3952237    0.2193230  0.00   -0.0004340   -0.0015871   -0.0178872
    24
 Energy =       0.1055890926
c     1.4380515    2.6376355    0.1768081  0.00    0.0213161    0.0321334    0.0165042
c     0.0932844    2.8583267    0.0561965  0.00   -0.0019031    0.0437023    0.0162941
c    -0.7291416    1.8658005   -0.4097972  0.00   -0.0413004    0.0205136   -0.0011208
c     1.9584186    1.4065175   -0.1482025  0.00    0.0324907   -0.0060235    0.0037629
c     1.1441657    0.3873568   -0.6141465  0.00    0.0063802   -0.0424585   -0.0124985
c    -0.2087468    0.6329504   -0.7495610  0.00   -0.0154074   -0.0224153   -0.0106103
o    -0.4584800    4.0743267    0.4167218  0.00   -0.0258952   -0.0126268    0.0022084
h    -1.0089778    3.9499011    1.2441582  0.00    0.0208578   -0.0050127   -0.0129389
h    -0.8887996   -0.1292826   -1.1180062  0.00   -0.0039573    0.0040763   -0.0008319
h     3.0298027    1.2436852   -0.0301387  0.00    0.0025086   -0.0005598   -0.0001928
h     2.0893127    3.4268166    0.5425048  0.00    0.0056188   -0.0015513    0.0005209
h    -1.7947081    2.0576048   -0.5059333  0.00   -0.0023324    0.0000272    0.0007447
c     1.8142992   -0.9476628   -0.8992726  0.00    0.0108239   -0.0156623   -0.0104785
c     1.0200230   -2.0652644   -1.6262715  0.00    0.0284994    0.0503333    0.0212218
h     2.2044759   -1.3524020    0.0632637  0.00    0.0027825   -0.0030949    0.0000874
h     2.7163617   -0.7194102   -1.5178780  0.00    0.0007099    0.0033444   -0.0004449
c     1.9876345   -3.2014818   -1.9861986  0.00   -0.0469690   -0.1407743   -0.1094779
o     1.8032193   -4.0269497   -2.9878815  0.00    0.0315228    0.0805862    0.0975290
o     3.1410548   -3.2752275   -1.2264270  0.00   -0.0030770    0.0565756   -0.0124671
h     2.9378789   -3.9225611   -0.4603316  0.00   -0.0157702   -0.0093417    0.0181098
n    -0.1181130   -2.6026823   -0.8239750  0.00   -0.0225189   -0.0437230    0.0033385
h     0.6267698   -1.6840565   -2.5928251  0.00   -0.0028222   -0.0029309    0.0041989
h    -0.0973521   -3.6431716   -0.8540810  0.00    0.0189127    0.0154325   -0.0039514
h    -0.0074743   -2.3497583    0.1806535  0.00   -0.0004703   -0.0005499   -0.0095077
    24
 Energy =       0.1047353032
c     1.4388745    2.6341421    0.2103737  0.00    0.0211023    0.0318121    0.0163380
c     0.0953080    2.8592919    0.0867524  0.00   -0.0018861    0.0432518    0.0161271
c    -0.7295743    1.8687197   -0.3783050  0.00   -0.0408889    0.0203104   -0.0011077
c     1.9556897    1.4007535   -0.1110928  0.00    0.0321992   -0.0060193    0.0037388
c     1.1392072    0.3841205   -0.5784571  0.00    0.0061498   -0.0419491   -0.0125714
c    -0.2127634    0.6338159   -0.7149617  0.00   -0.0152671   -0.0221611   -0.0104726
o    -0.4524682    4.0784665    0.4429277  0.00   -0.0256317   -0.0124729    0.0021697
h    -1.0028930    3.9596098    1.2713587  0.00    0.0206317   -0.0049637   -0.0127853
h    -0.8950740   -0.1266263   -1.0827183  0.00   -0.0039503    0.0040586   -0.0008259
h     3.0259459    1.2340991    0.0114557  0.00    0.0024997   -0.0006021   -0.0002003
h     2.0919827    3.4217552    0.5761186  0.00    0.0055643   -0.0015334    0.0005172
h    -1.7943178    2.0639176   -0.4765135  0.00   -0.0023173    0.0000294    0.0007369
c     1.8016430   -0.9574047   -0.8534294  0.00    0.0103153   -0.0137847   -0.0099960
c     1.0255916   -2.0416179   -1.6512107  0.00    0.0291325    0.0493705    0.0198252
h     2.1371700   -1.3937403    0.1179513  0.00    0.0033481   -0.0037497    0.0019432
h     2.7391705   -0.7305006   -1.4212125  0.00    0.0022938    0.0040130   -0.0012711
c     1.9979950   -3.1684116   -2.0275231  0.00   -0.0468100   -0.1400665   -0.1077064
o     1.8225178   -3.9703552   -3.0515297  0.00    0.0311684    0.0793037    0.0961210
o     3.1536934   -3.2486235   -1.2725404  0.00    0.0026116    0.0816875   -0.0326637
h     3.0125083   -4.0472871   -0.6190847  0.00   -0.0210199   -0.0341304    0.0377580
n    -0.1392416   -2.6072001   -0.9034207  0.00   -0.0244614   -0.0448299    0.0023900
h     0.6636476   -1.6187884   -2.6138445  0.00   -0.0030303   -0.0024637    0.0029005
h    -0.0985705   -3.6472917   -0.9403238  0.00    0.0187313    0.0149060   -0.0040318
h    -0.0830829   -2.3598333    0.1086093  0.00   -0.0004850   -0.0000166   -0.0069333
    24
 Energy =       0.1043389154
c     1.5153609    2.6366344    0.1793616  0.00    0.0221546    0.0333072    0.0170911
c     0.1740517    2.8858995    0.0653662  0.00   -0.0019813    0.0450648    0.0168427
c    -0.6719364    1.9105534   -0.3965925  0.00   -0.0428389    0.0212141   -0.0011710
c     2.0088375    1.3937658   -0.1489248  0.00    0.0338190   -0.0063711    0.0039441
c     1.1704051    0.3916586   -0.6116096  0.00    0.0062394   -0.0438531   -0.0129943
c    -0.1786342    0.6671917   -0.7401173  0.00   -0.0161257   -0.0231509   -0.0109189
o    -0.3494135    4.1140972    0.4264411  0.00   -0.0267551   -0.0124663    0.0021968
h    -0.9103820    4.0013173    1.2480099  0.00    0.0214026   -0.0052637   -0.0131665
h    -0.8783665   -0.0782751   -1.1063871  0.00   -0.0043452    0.0041003   -0.0009268
h     3.0772523    1.2074330   -0.0365572  0.00    0.0028616   -0.0007262   -0.0002003
h     2.1854276    3.4119727    0.5417012  0.00    0.0059448   -0.0014339    0.0006160
h    -1.7339369    2.1246090   -0.4878031  0.00   -0.0026277    0.0000759    0.0007485
c     1.8072959   -0.9597495   -0.9020480  0.00    0.0103405   -0.0115308   -0.0089886
c     0.9675311   -2.0560880   -1.6215807  0.00    0.0311344    0.0516226    0.0174032
h     2.1956471   -1.3763988    0.0606006  0.00    0.0040180   -0.0037455    0.0037895
h     2.7128246   -0.7565236   -1.5311195  0.00    0.0045905    0.0045701   -0.0027996
c     1.8895168   -3.2300647   -1.9844847  0.00   -0.0490396   -0.1465440   -0.1135001
o     1.6878047   -4.0196147   -3.0096453  0.00    0.0325548    0.0822358    0.0996435
o     3.0284378   -3.3604857   -1.2119708  0.00    0.0051105    0.0848501   -0.0339088
h     2.8537552   -4.1645852   -0.5700030  0.00   -0.0221047   -0.0363765    0.0399344
n    -0.1855462   -2.5555060   -0.8070709  0.00   -0.0306206   -0.0473508    0.0017747
h     0.5813895   -1.6654647   -2.5893354  0.00   -0.0030316   -0.0025300    0.0020442
h    -0.2002111   -3.5970274   -0.8366583  0.00    0.0192849    0.0128790   -0.0046559
h    -0.0541515   -2.3043382    0.1998073  0.00    0.0000146    0.0014230   -0.0027976
    24
 Energy =       0.1019969149
c     1.5863476    2.6368075    0.1426979  0.00    0.0217255    0.0326099    0.0167213
c     0.2492272    2.9085404    0.0331114  0.00   -0.0019197    0.0438764    0.0163933
c    -0.6144854    1.9469218   -0.4232393  0.00   -0.0419619    0.0206880   -0.0011690
c     2.0583530    1.3853287   -0.1849093  0.00    0.0331941   -0.0062579    0.0038773
c     1.2013728    0.3965803   -0.6409594  0.00    0.0060431   -0.0428498   -0.0125095
c    -0.1431009    0.6959608   -0.7666765  0.00   -0.0158850   -0.0226228   -0.0106520
o    -0.2501604    4.1483370    0.3898902  0.00   -0.0261038   -0.0117366    0.0020491
h    -0.8096246    4.0526256    1.2151466  0.00    0.0207187   -0.0051210   -0.0126063
h    -0.8580015   -0.0361582   -1.1306260  0.00   -0.0044195    0.0039026   -0.0009485
h     3.1240931    1.1811298   -0.0778278  0.00    0.0029744   -0.0007721   -0.0001884
h     2.2704982    3.4024998    0.4996567  0.00    0.0058977   -0.0012721    0.0006570
h    -1.6729991    2.1788900   -0.5122466  0.00   -0.0027367    0.0001101    0.0007128
c     1.8118502   -0.9668934   -0.9371253  0.00    0.0102155   -0.0090497   -0.0077823
c     0.9170433   -2.0660957   -1.5881383  0.00    0.0308019    0.0509108    0.0140821
h     2.2376614   -1.3686994    0.0170649  0.00    0.0042063   -0.0032826    0.0047496
h     2.6904838   -0.7906095   -1.6120476  0.00    0.0058904    0.0046180   -0.0037255
c     1.7871462   -3.2845965   -1.9334979  0.00   -0.0488299   -0.1432721   -0.1123178
o     1.5617274   -4.0583979   -2.9686159  0.00    0.0316646    0.0799218    0.0965671
o     2.8996546   -3.4772545   -1.1349685  0.00    0.0082978    0.0827749   -0.0328515
h     2.6950021   -4.3011732   -0.5273338  0.00   -0.0218772   -0.0370502    0.0401566
n    -0.2271408   -2.4959130   -0.7209918  0.00   -0.0336462   -0.0457752    0.0024219
h     0.5143838   -1.7010396   -2.5598456  0.00   -0.0028116   -0.0024959    0.0013717
h    -0.2920311   -3.5369720   -0.7245487  0.00    0.0182476    0.0099458   -0.0046281
h    -0.0443416   -2.2288077    0.2754097  0.00    0.0003138    0.0021996   -0.0003808
    24
 Energy =       0.0981167427
c     1.6498409    2.6344669    0.0988999  0.00    0.0197833    0.0296786    0.0152070
c     0.3186000    2.9267654   -0.0104443  0.00   -0.0017424    0.0396406    0.0148088
c    -0.5593771    1.9780663   -0.4608336  0.00   -0.0382116    0.0187410   -0.0010565
c     2.1024179    1.3760065   -0.2232396  0.00    0.0302828   -0.0056998    0.0035321
c     1.2302953    0.4000646   -0.6721233  0.00    0.0054877   -0.0389235   -0.0111642
c    -0.1080961    0.7209973   -0.7998737  0.00   -0.0145251   -0.0205455   -0.0096458
o    -0.1575071    4.1792201    0.3370338  0.00   -0.0233817   -0.0102221    0.0012707
h    -0.7018026    4.1073653    1.1767578  0.00    0.0183389   -0.0046246   -0.0106994
h    -0.8355167    0.0006962   -1.1622408  0.00   -0.0041623    0.0035138   -0.0008852
h     3.1649611    1.1557880   -0.1177767  0.00    0.0028364   -0.0007543   -0.0001678
h     2.3452365    3.3925488    0.4501085  0.00    0.0054100   -0.0010557    0.0006357
h    -1.6138232    2.2269145   -0.5515708  0.00   -0.0026368    0.0001363    0.0006353
c     1.8156116   -0.9753254   -0.9693279  0.00    0.0096862   -0.0060451   -0.0062180
c     0.8703202   -2.0759951   -1.5474299  0.00    0.0284826    0.0467304    0.0094016
h     2.2784586   -1.3621356   -0.0255936  0.00    0.0041733   -0.0025464    0.0053430
h     2.6643146   -0.8264310   -1.6880738  0.00    0.0066944    0.0043737   -0.0043898
c     1.6891249   -3.3345129   -1.8717162  0.00   -0.0458992   -0.1302005   -0.1040087
o     1.4479629   -4.0895129   -2.9264795  0.00    0.0284295    0.0724499    0.0868608
o     2.7645787   -3.5963305   -1.0399272  0.00    0.0120617    0.0765063   -0.0300175
h     2.5362489   -4.4537833   -0.4915944  0.00   -0.0207330   -0.0369257    0.0388702
n    -0.2592034   -2.4313739   -0.6278487  0.00   -0.0340366   -0.0403968    0.0026207
h     0.4488661   -1.7377318   -2.5217150  0.00   -0.0024256   -0.0023179    0.0005337
h    -0.3598598   -3.4703412   -0.5767779  0.00    0.0155931    0.0056863   -0.0037792
h    -0.0386929   -2.1244152    0.3511666  0.00    0.0004945    0.0028012    0.0023126
    24
 Energy =       0.0944190896
c     1.6881514    2.6307461    0.0594410  0.00    0.0171885    0.0257881    0.0132037
c     0.3626320    2.9369483   -0.0546737  0.00   -0.0015447    0.0342393    0.0128253
c    -0.5229764    1.9970060   -0.5010261  0.00   -0.0332228    0.0162571   -0.0008640
c     2.1279841    1.3680309   -0.2537309  0.00    0.0263531   -0.0049653    0.0030482
c     1.2474711    0.4009596   -0.6971596  0.00    0.0048097   -0.0338097   -0.0095792
c    -0.0850883    0.7360727   -0.8320440  0.00   -0.0126555   -0.0178259   -0.0083393
o    -0.0972897    4.1996133    0.2812096  0.00   -0.0197488   -0.0085597    0.0000899
h    -0.6179131    4.1509233    1.1400503  0.00    0.0152964   -0.0040484   -0.0082094
h    -0.8193182    0.0226902   -1.1939351  0.00   -0.0036846    0.0030998   -0.0007787
h     3.1876885    1.1372043   -0.1453600  0.00    0.0025254   -0.0006868   -0.0001480
h     2.3895742    3.3848193    0.4065042  0.00    0.0047055   -0.0008747    0.0005648
h    -1.5738481    2.2576986   -0.5973910  0.00   -0.0023782    0.0001488    0.0005520
c     1.8155626   -0.9831898   -0.9898839  0.00    0.0087631   -0.0040377   -0.0049613
c     0.8375934   -2.0856806   -1.5084386  0.00    0.0251532    0.0406585    0.0060390
h     2.3064411   -1.3573735   -0.0553275  0.00    0.0038734   -0.0020032    0.0052169
h     2.6391302   -0.8554643   -1.7403725  0.00    0.0065729    0.0039638   -0.0044030
c     1.6225644   -3.3678487   -1.8163792  0.00   -0.0408761   -0.1131516   -0.0915496
o     1.3816454   -4.1062472   -2.8945417  0.00    0.0243735    0.0629666    0.0747289
o     2.6625388   -3.6820402   -0.9559121  0.00    0.0141839    0.0699081   -0.0272002
h     2.4296611   -4.5785856   -0.4798958  0.00   -0.0194330   -0.0364832    0.0365001
n    -0.2738413   -2.3849089   -0.5483327  0.00   -0.0316694   -0.0324564   -0.0005091
h     0.3976136   -1.7692455   -2.4824659  0.00   -0.0020765   -0.0020399   -0.0000542
h    -0.3703609   -3.4206264   -0.4180248  0.00    0.0124190    0.0000876   -0.0021918
h    -0.0426566   -2.0104911    0.4070693  0.00    0.0010719    0.0038247    0.0060189
    24
 Energy =       0.0926920004
c     1.7046166    2.6298953    0.0215554  0.00    0.0156894    0.0235325    0.0120454
c     0.3829945    2.9437382   -0.1021659  0.00   -0.0014352    0.0311306    0.0116971
c    -0.5051692    2.0072715   -0.5464602  0.00   -0.0303290    0.0148648   -0.0007410
c     2.1381258    1.3635368   -0.2794678  0.00    0.0240674   -0.0045811    0.0027497
c     1.2544926    0.3998774   -0.7191588  0.00    0.0044613   -0.0308641   -0.0086776
c    -0.0738213    0.7428009   -0.8660744  0.00   -0.0115921   -0.0162671   -0.0075583
o    -0.0689927    4.2134858    0.2197974  0.00   -0.0178169   -0.0076041   -0.0003421
h    -0.5756977    4.1824262    1.0889904  0.00    0.0136908   -0.0037178   -0.0070397
h    -0.8101715    0.0316333   -1.2280496  0.00   -0.0033935    0.0028832   -0.0007003
h     3.1956054    1.1268700   -0.1636921  0.00    0.0023474   -0.0006578   -0.0001391
h     2.4082028    3.3829135    0.3660132  0.00    0.0042881   -0.0007849    0.0005172
h    -1.5533987    2.2746222   -0.6517862  0.00   -0.0022306    0.0001672    0.0005070
c     1.8135216   -0.9910033   -0.9985841  0.00    0.0082117   -0.0030624   -0.0044231
c     0.8198922   -2.0991624   -1.4740170  0.00    0.0231802    0.0368881    0.0047528
h     2.3200695   -1.3512508   -0.0669964  0.00    0.0036360   -0.0017616    0.0050153
h     2.6220396   -0.8801401   -1.7671145  0.00    0.0062864    0.0037267   -0.0042699
c     1.5902925   -3.3940601   -1.7611318  0.00   -0.0375812   -0.1033673   -0.0842581
o     1.3641610   -4.1307837   -2.8502732  0.00    0.0221242    0.0573759    0.0679417
o     2.6011849   -3.7298105   -0.8734104  0.00    0.0149599    0.0661246   -0.0252898
h     2.3757498   -4.6536779   -0.4522542  0.00   -0.0187163   -0.0358907    0.0344848
n    -0.2799405   -2.3620454   -0.4901806  0.00   -0.0310829   -0.0240801   -0.0091552
h     0.3686051   -1.8041036   -2.4498805  0.00   -0.0018899   -0.0018382   -0.0004019
h    -0.3281090   -3.3897279   -0.2592716  0.00    0.0103831   -0.0096005    0.0003221
h    -0.0712938   -1.8922943    0.4329923  0.00    0.0027418    0.0073845    0.0129628
    24
 Energy =       0.0870872711
c     1.7560203    2.6136759    0.0289690  0.00    0.0117985    0.0176888    0.0090080
c     0.4427509    2.9486582   -0.0937012  0.00   -0.0011736    0.0230971    0.0086500
c    -0.4583961    2.0285909   -0.5351666  0.00   -0.0228442    0.0110629   -0.0005189
c     2.1692843    1.3442343   -0.2716651  0.00    0.0181479   -0.0033389    0.0020931
c     1.2718395    0.3980748   -0.7091640  0.00    0.0032804   -0.0229935   -0.0063546
c    -0.0487548    0.7610329   -0.8533351  0.00   -0.0087069   -0.0123274   -0.0057075
o     0.0155861    4.2291724    0.2258098  0.00   -0.0119408   -0.0053739   -0.0031529
h    -0.4433785    4.2241744    1.1261787  0.00    0.0087873   -0.0027050   -0.0022294
h    -0.7970254    0.0616666   -1.2131697  0.00   -0.0025935    0.0019266   -0.0005955
h     3.2229221    1.0915194   -0.1588687  0.00    0.0019050   -0.0005005   -0.0000802
h     2.4698130    3.3574918    0.3712688  0.00    0.0032579   -0.0004891    0.0004226
h    -1.5017248    2.3133166   -0.6403652  0.00   -0.0018332    0.0001575    0.0003644
c     1.8045156   -1.0006395   -1.0034778  0.00    0.0066397   -0.0020893   -0.0029041
c     0.7751233   -2.0832061   -1.4535420  0.00    0.0176009    0.0281465    0.0027418
h     2.3275170   -1.3756514   -0.0881500  0.00    0.0030009   -0.0014150    0.0040379
h     2.5920109   -0.9035803   -1.7931252  0.00    0.0051032    0.0027381   -0.0034844
c     1.5006291   -3.3917241   -1.7815840  0.00   -0.0298448   -0.0760124   -0.0615768
o     1.2571811   -4.0615131   -2.9295063  0.00    0.0151010    0.0417686    0.0454411
o     2.4837450   -3.8221708   -0.8999092  0.00    0.0185821    0.0630258   -0.0211684
h     2.2767424   -4.8008946   -0.6110073  0.00   -0.0173868   -0.0418486    0.0317401
n    -0.2953002   -2.3150041   -0.4346004  0.00   -0.0257624   -0.0165990   -0.0090114
h     0.2989572   -1.7679512   -2.4118282  0.00   -0.0019243   -0.0013001   -0.0007977
h    -0.3965976   -3.3451795   -0.2333468  0.00    0.0079518   -0.0101149    0.0003360
h    -0.0305012   -1.8830825    0.4926660  0.00    0.0028539    0.0074957    0.0127468
    24
 Energy =       0.0852924525
c     1.7886412    2.5957916    0.0556667  0.00    0.0100868    0.0151416    0.0076786
c     0.4799744    2.9457714   -0.0592357  0.00   -0.0010236    0.0196279    0.0072879
c    -0.4319916    2.0391926   -0.5015692  0.00   -0.0195372    0.0094050   -0.0004647
c     2.1870887    1.3256094   -0.2550701  0.00    0.0155361   -0.0028203    0.0018156
c     1.2784402    0.3935558   -0.6943693  0.00    0.0027329   -0.0194956   -0.0053216
c    -0.0381233    0.7708176   -0.8283214  0.00   -0.0074685   -0.0105672   -0.0048974
o     0.0696153    4.2301279    0.2695314  0.00   -0.0097449   -0.0044322   -0.0035796
h    -0.3584501    4.2329581    1.1864060  0.00    0.0070028   -0.0022299   -0.0008928
h    -0.7960402    0.0815603   -1.1874093  0.00   -0.0022559    0.0015032   -0.0005730
h     3.2385694    1.0614007   -0.1503950  0.00    0.0017272   -0.0004431   -0.0000520
h     2.5110533    3.3305659    0.3989900  0.00    0.0028200   -0.0003487    0.0003881
h    -1.4724424    2.3360702   -0.6002665  0.00   -0.0016603    0.0001573    0.0002974
c     1.7934028   -1.0073017   -1.0112008  0.00    0.0057465   -0.0017673   -0.0022993
c     0.7422347   -2.0696381   -1.4550350  0.00    0.0150638    0.0246533    0.0024696
h     2.3274443   -1.4003450   -0.1104371  0.00    0.0027467   -0.0013032    0.0036862
h     2.5666944   -0.9103928   -1.8138162  0.00    0.0044684    0.0022637   -0.0030974
c     1.4426811   -3.3758953   -1.8403440  0.00   -0.0254421   -0.0635804   -0.0511729
o     1.1883649   -3.9810759   -3.0306691  0.00    0.0120440    0.0341732    0.0349214
o     2.4198762   -3.8692903   -0.9843737  0.00    0.0184432    0.0568743   -0.0178357
h     2.2190520   -4.8654687   -0.7697604  0.00   -0.0155052   -0.0398653    0.0285727
n    -0.2985102   -2.3089238   -0.4087319  0.00   -0.0225712   -0.0137745   -0.0072648
h     0.2407785   -1.7266969   -2.3915270  0.00   -0.0021471   -0.0007992   -0.0013937
h    -0.3847110   -3.3379868   -0.1984133  0.00    0.0064379   -0.0087859    0.0006569
h    -0.0206833   -1.8693949    0.5097305  0.00    0.0024995    0.0064135    0.0110703
    24
 Energy =       0.0842318217
c     1.8236854    2.5759825    0.0778973  0.00    0.0087564    0.0131340    0.0066385
c     0.5199602    2.9425867   -0.0289779  0.00   -0.0009044    0.0168872    0.0062113
c    -0.4043091    2.0503168   -0.4711400  0.00   -0.0169426    0.0080982   -0.0004238
c     2.2053664    1.3041365   -0.2420578  0.00    0.0134981   -0.0024225    0.0015949
c     1.2840376    0.3868769   -0.6819499  0.00    0.0023087   -0.0167881   -0.0045123
c    -0.0280416    0.7801995   -0.8056850  0.00   -0.0065151   -0.0092241   -0.0042457
o     0.1280440    4.2311593    0.3079671  0.00   -0.0081100   -0.0036570   -0.0037429
h    -0.2724930    4.2415289    1.2381052  0.00    0.0056791   -0.0018369    0.0000090
h    -0.7966939    0.1018779   -1.1629246  0.00   -0.0020064    0.0011165   -0.0005495
h     3.2541867    1.0270431   -0.1453819  0.00    0.0016109   -0.0004031   -0.0000278
h     2.5559868    3.3007386    0.4213315  0.00    0.0024927   -0.0002209    0.0003693
h    -1.4413906    2.3606361   -0.5631219  0.00   -0.0015498    0.0001649    0.0002420
c     1.7792267   -1.0172513   -1.0173723  0.00    0.0050698   -0.0014918   -0.0018263
c     0.7068907   -2.0595804   -1.4552704  0.00    0.0132434    0.0220176    0.0024230
h     2.3208382   -1.4271892   -0.1292183  0.00    0.0025281   -0.0012038    0.0033566
h     2.5406030   -0.9222850   -1.8307941  0.00    0.0039382    0.0018957   -0.0027620
c     1.3829848   -3.3607631   -1.8970638  0.00   -0.0216032   -0.0537139   -0.0428441
o     1.1298945   -3.8961391   -3.1283469  0.00    0.0095036    0.0281276    0.0260021
o     2.3470822   -3.9162210   -1.0634079  0.00    0.0185997    0.0529416   -0.0147939
h     2.1520999   -4.9257187   -0.9285136  0.00   -0.0142125   -0.0392536    0.0257839
n    -0.3040931   -2.3116797   -0.3834239  0.00   -0.0210343   -0.0087640   -0.0089566
h     0.1812537   -1.6899260   -2.3687277  0.00   -0.0023568   -0.0003524   -0.0018819
h    -0.3303972   -3.3355943   -0.1258728  0.00    0.0047133   -0.0119801    0.0022203
h    -0.0417628   -1.8197241    0.5133288  0.00    0.0032932    0.0069289    0.0117158
    24
 Energy =       0.0837208120
c     1.8594158    2.5546727    0.1022961  0.00    0.0078374    0.0117209    0.0059108
c     0.5607456    2.9386092    0.0039483  0.00   -0.0008183    0.0149421    0.0054442