    13
 Energy =       0.1261311083
c    -3.7133889    1.6950595    0.3173519  0.00   -0.0549980   -0.0148543    0.0073659
c    -2.4962693    2.6345192    0.2419999  0.00    0.0745265    0.3407929    0.0696227
c    -4.9565486    2.3924193   -0.2155699  0.00    0.0096285    0.0136482    0.0068554
h    -5.2099685    3.2528291    0.4143399  0.00    0.0021253   -0.0131026   -0.0107582
h    -5.8205883    1.7190695   -0.2147749  0.00    0.0079305    0.0155264    0.0001820
h    -4.8083986    2.7651692   -1.2348596  0.00   -0.0065628    0.0002600    0.0171336
n    -3.4097890    0.4519539   -0.4549189  0.00    0.1116148   -0.0357003   -0.0095856
h    -3.8575589    1.4177196    1.3669296  0.00    0.0049025   -0.0111187   -0.0258839
h    -2.5963493    0.6418898   -1.0496997  0.00    0.0874306    0.1524554    0.1081149
h    -3.0749291   -0.2623099    0.1989099  0.00   -0.0128999    0.0286709   -0.0219475
o    -2.4571893    3.7760389    0.6681628  0.00   -0.0095563   -0.2774406   -0.0959807
o    -1.4389296    2.0221094   -0.3549299  0.00   -0.1797491   -0.1738902   -0.0632339
h    -1.1721897    2.6250993   -1.0934297  0.00   -0.0343926   -0.0252470    0.0181153
    13
 Energy =       0.1020438215
c    -3.7224616    1.7000808    0.3429188  0.00   -0.0347331   -0.0120503    0.0062844
c    -2.4752989    2.5931300    0.3273604  0.00    0.0532056    0.2327890    0.0450507
c    -4.9101089    2.4246311   -0.2917341  0.00    0.0043024    0.0106437    0.0065486
h    -5.2044245    3.2923154    0.3209700  0.00    0.0006843   -0.0083461   -0.0064715
h    -5.7850892    1.7568039   -0.3735281  0.00    0.0022835    0.0090666   -0.0005598
h    -4.6577687    2.7912719   -1.3033066  0.00   -0.0029344    0.0015645    0.0068243
n    -3.4357807    0.4495585   -0.4070460  0.00    0.0768677   -0.0227699   -0.0072817
h    -3.9513702    1.4487629    1.3942515  0.00    0.0023106   -0.0088662   -0.0142791
h    -2.6104861    0.6199265   -1.0070017  0.00    0.0662771    0.1129269    0.0766703
h    -3.1174257   -0.2667763    0.2647434  0.00   -0.0087599    0.0191289   -0.0144006
o    -2.4478159    3.7834927    0.7763302  0.00   -0.0070283   -0.1877258   -0.0660930
o    -1.3967019    2.0125369   -0.2842942  0.00   -0.1298605   -0.1548183   -0.0030623
h    -1.2973647    2.5258325   -1.1701523  0.00   -0.0226151    0.0084569   -0.0292302
    13
 Energy =       0.0951950095
c    -3.7083938    1.6893319    0.3361403  0.00   -0.0306910   -0.0097633    0.0061144
c    -2.4708775    2.5923664    0.3034679  0.00    0.0484963    0.2112384    0.0406917
c    -4.9247833    2.4167120   -0.2407976  0.00    0.0064299    0.0094163    0.0074212
h    -5.1424700    3.3289456    0.3474386  0.00    0.0005843   -0.0045640   -0.0030500
h    -5.8259224    1.7691254   -0.2147749  0.00   -0.0030305    0.0049123   -0.0004314
h    -4.7403317    2.7168969   -1.2937320  0.00   -0.0013119    0.0021246    0.0013059
n    -3.4428465    0.4601155   -0.4548293  0.00    0.0696263   -0.0201324   -0.0087729
h    -3.8966086    1.4148433    1.3920473  0.00    0.0018585   -0.0081126   -0.0118251
h    -2.6108879    0.6323580   -1.0491425  0.00    0.0607400    0.1033272    0.0697607
h    -3.1509161   -0.2945644    0.1903264  0.00   -0.0072667    0.0155678   -0.0117648
o    -2.4545282    3.7901212    0.7642515  0.00   -0.0066222   -0.1704094   -0.0598703
o    -1.3864358    2.0302175   -0.3176795  0.00   -0.1184552   -0.1425534   -0.0005859
h    -1.2570955    2.5850975   -1.1732049  0.00   -0.0203579    0.0089485   -0.0289935
    13
 Energy =       0.0911342491
c    -3.7353301    1.7022846    0.3371460  0.00   -0.0274960   -0.0083952    0.0063844
c    -2.4841939    2.5848286    0.3302831  0.00    0.0448196    0.1971511    0.0379497
c    -4.9116711    2.4233014   -0.3312814  0.00    0.0038006    0.0079336    0.0074357
h    -5.1293372    3.3800970    0.1886855  0.00   -0.0006198   -0.0014613   -0.0015886
h    -5.8290150    1.7983268   -0.2947757  0.00   -0.0031325    0.0042296   -0.0000227
h    -4.6808739    2.6488250   -1.3972105  0.00   -0.0004703    0.0028294   -0.0023916
n    -3.4497021    0.4389574   -0.3924427  0.00    0.0652315   -0.0192329   -0.0118232
h    -3.9839280    1.4747656    1.3947097  0.00    0.0009983   -0.0078922   -0.0082678
h    -2.6154000    0.5964815   -0.9903210  0.00    0.0571167    0.0968207    0.0650638
h    -3.1398792   -0.2729555    0.2961957  0.00   -0.0056826    0.0122314   -0.0088600
o    -2.4572583    3.7865702    0.7993058  0.00   -0.0058702   -0.1589673   -0.0557487
o    -1.3865202    2.0044457   -0.2545316  0.00   -0.1099946   -0.1345631    0.0006672
h    -1.2089882    2.5656386   -1.0962515  0.00   -0.0187007    0.0093162   -0.0287981
    13
 Energy =       0.0761848739
c    -3.7345039    1.6918915    0.3187880  0.00   -0.0194317   -0.0051588    0.0052469
c    -2.4815891    2.5651891    0.3037163  0.00    0.0321067    0.1424333    0.0258638
c    -4.9231547    2.4256657   -0.3117148  0.00    0.0022758    0.0057231    0.0052147
h    -5.1316262    3.3724849    0.2313017  0.00   -0.0005779   -0.0007832   -0.0009872
h    -5.8359065    1.7942403   -0.2717436  0.00   -0.0022793    0.0030362   -0.0000267
h    -4.7109612    2.6683631   -1.3775205  0.00   -0.0002659    0.0020871   -0.0020637
n    -3.4899557    0.4398343   -0.4381589  0.00    0.0454330   -0.0113675   -0.0113340
h    -3.9593321    1.4572115    1.3822395  0.00    0.0006481   -0.0055039   -0.0055360
h    -2.6315773    0.5692176   -1.0180197  0.00    0.0457609    0.0746095    0.0480189
h    -3.2420889   -0.3171241    0.2352298  0.00   -0.0030142    0.0050356   -0.0035806
o    -2.4537217    3.7819493    0.8094053  0.00   -0.0042667   -0.1148860   -0.0395415
o    -1.3674447    2.0007259   -0.2754357  0.00   -0.0927797   -0.1259186    0.0267281
h    -1.0502351    2.6819177   -0.9985761  0.00   -0.0036091    0.0306933   -0.0480027
    13
 Energy =       0.0647382664
c    -3.7392979    1.6885852    0.2925478  0.00   -0.0121131   -0.0023519    0.0038175
c    -2.4717910    2.5379150    0.3017264  0.00    0.0193688    0.0908811    0.0149019
c    -4.9158936    2.4546190   -0.3203251  0.00    0.0011909    0.0037604    0.0030286
h    -5.1088922    3.3938334    0.2425715  0.00   -0.0004054   -0.0002107   -0.0004827
h    -5.8357809    1.8325768   -0.2936216  0.00   -0.0015666    0.0018044   -0.0000580
h    -4.6997212    2.7126643   -1.3811641  0.00   -0.0002153    0.0013914   -0.0014870
n    -3.5400188    0.4465994   -0.4892783  0.00    0.0225330   -0.0006216   -0.0121092
h    -3.9669575    1.4456578    1.3552909  0.00    0.0004118   -0.0034044   -0.0033363
h    -2.6366010    0.5213516   -1.0206060  0.00    0.0379334    0.0530186    0.0301010
h    -3.4008421   -0.3582163    0.1723258  0.00   -0.0005309   -0.0057978    0.0046186
o    -2.4392523    3.7639593    0.8512190  0.00   -0.0021906   -0.0733224   -0.0239638
o    -1.3348359    1.9822605   -0.2512048  0.00   -0.0675481   -0.0957840    0.0277668
h    -0.9222128    2.7097608   -0.8699700  0.00    0.0031321    0.0306367   -0.0427974
    13
 Energy =       0.0565005588
c    -3.7569787    1.6786037    0.2806162  0.00   -0.0067679   -0.0021109    0.0025777
c    -2.4913064    2.5283255    0.3355152  0.00    0.0117294    0.0552122    0.0065866
c    -4.9038475    2.4409999   -0.3919483  0.00   -0.0001639    0.0028047    0.0019911
h    -5.1174198    3.3880928    0.1514427  0.00   -0.0003264    0.0003919    0.0000025
h    -5.8257188    1.8207950   -0.3973389  0.00   -0.0015146    0.0013437   -0.0001571
h    -4.6405968    2.6846680   -1.4462203  0.00    0.0001905    0.0013432   -0.0021028
n    -3.5430222    0.4247585   -0.4740503  0.00    0.0141059   -0.0001463   -0.0086078
h    -4.0340796    1.4559104    1.3382474  0.00   -0.0001424   -0.0022395   -0.0008397
h    -2.6478700    0.5009082   -1.0211801  0.00    0.0267213    0.0357679    0.0203595
h    -3.3839967   -0.3618744    0.2027029  0.00   -0.0011239   -0.0044019    0.0030249
o    -2.4822165    3.7447644    0.9498078  0.00   -0.0014329   -0.0434023   -0.0124103
o    -1.3331896    2.0205796   -0.2268659  0.00   -0.0515786   -0.0777868    0.0274880
h    -0.8518546    2.8050351   -0.7112169  0.00    0.0103034    0.0332240   -0.0379125
    13
 Energy =       0.0548812086
c    -3.7580944    1.6715905    0.2934330  0.00   -0.0057489   -0.0013973    0.0026434
c    -2.5090015    2.5451577    0.3374418  0.00    0.0105695    0.0527643    0.0067214
c    -4.9156838    2.3997354   -0.3992611  0.00   -0.0002655    0.0027534    0.0015318
h    -5.1515538    3.3513415    0.1274807  0.00   -0.0003838    0.0007194    0.0001624
h    -5.8248211    1.7605163   -0.3992711  0.00   -0.0016644    0.0011237   -0.0002027
h    -4.6514672    2.6314298   -1.4558973  0.00    0.0001455    0.0012949   -0.0020962
n    -3.5147734    0.4093045   -0.4368050  0.00    0.0006250    0.0063651   -0.0120061
h    -4.0382470    1.4609472    1.3526880  0.00   -0.0002500   -0.0019659   -0.0005946
h    -2.6747690    0.5437241   -1.0665344  0.00    0.0336880    0.0368306    0.0130833
h    -3.2252436   -0.3383859    0.2543143  0.00    0.0029178   -0.0147505    0.0127722
o    -2.5186172    3.7628990    0.9521735  0.00   -0.0012995   -0.0410456   -0.0117210
o    -1.3518357    2.0667280   -0.2533366  0.00   -0.0483728   -0.0747294    0.0260129
h    -0.8779895    2.8665788   -0.7169145  0.00    0.0100392    0.0320374   -0.0363067
    13
 Energy =       0.0487651410
c    -3.7677347    1.6476170    0.2801957  0.00   -0.0029400   -0.0016412    0.0012051
c    -2.5296632    2.5326404    0.3796082  0.00    0.0036452    0.0270447   -0.0001740
c    -4.9124798    2.3760211   -0.4300122  0.00    0.0001305    0.0013866    0.0008495
h    -5.1718555    3.3156877    0.1071290  0.00   -0.0002535    0.0006962    0.0003568
h    -5.8133436    1.7252937   -0.4641773  0.00   -0.0014495    0.0002593   -0.0001426
h    -4.6230326    2.6266075   -1.4752244  0.00    0.0002191    0.0007412   -0.0016789
n    -3.5027496    0.4006910   -0.4633255  0.00   -0.0077108    0.0069170   -0.0072598
h    -4.0778155    1.4166990    1.3277037  0.00   -0.0005124   -0.0010361    0.0004107
h    -2.7214749    0.5816727   -1.1570083  0.00    0.0263381    0.0244751    0.0031754
h    -3.1196580   -0.3224486    0.2071722  0.00    0.0037415   -0.0136456    0.0120263
o    -2.5562087    3.7041738    1.1109267  0.00   -0.0019971   -0.0147208    0.0005556
o    -1.3658795    2.1370456   -0.2677921  0.00   -0.0350836   -0.0686336    0.0200819
h    -0.8502016    2.9898661   -0.5656842  0.00    0.0158724    0.0381572   -0.0294059
    13
 Energy =       0.0450010277
c    -3.7711477    1.6464419    0.2713388  0.00   -0.0017623   -0.0009638    0.0007764
c    -2.5459671    2.5489937    0.3749690  0.00    0.0003742    0.0091305   -0.0017070
c    -4.9243772    2.3525598   -0.4473140  0.00    0.0001373    0.0009554    0.0003634
h    -5.2043972    3.2883364    0.0861375  0.00   -0.0001852    0.0006384    0.0003320
h    -5.8123334    1.6847589   -0.4859587  0.00   -0.0011049    0.0000461   -0.0001058
h    -4.6327983    2.6072268   -1.4902464  0.00    0.0001605    0.0004559   -0.0010740
n    -3.4896182    0.3991434   -0.4628429  0.00   -0.0073662    0.0054966   -0.0053594
h    -4.0829854    1.4174707    1.3183223  0.00   -0.0003399   -0.0006116    0.0002833
h    -2.7440954    0.5957931   -1.1879334  0.00    0.0190134    0.0173387    0.0011399
h    -3.0540326   -0.2957349    0.2019521  0.00    0.0031787   -0.0106508    0.0094363
o    -2.6340896    3.7887668    1.0000817  0.00   -0.0043631    0.0014591    0.0059145
o    -1.3394779    2.1306145   -0.1820636  0.00   -0.0213574   -0.0518132    0.0113651
h    -0.7767774    2.9671956   -0.4069311  0.00    0.0136150    0.0285185   -0.0213645
    13
 Energy =       0.0446931646
c    -3.7808795    1.6322995    0.2529566  0.00   -0.0034870    0.0007047    0.0027104
c    -2.5978033    2.5830869    0.4297907  0.00   -0.0006377    0.0080520   -0.0006382
c    -4.9225005    2.2959398   -0.5257938  0.00   -0.0002179    0.0003346   -0.0003653
h    -5.2671716    3.2194324   -0.0048033  0.00   -0.0009718    0.0022273    0.0015481
h    -5.7825755    1.5940446   -0.6136387  0.00   -0.0029077   -0.0009581   -0.0005186
h    -4.5848388    2.5646754   -1.5523120  0.00    0.0006490    0.0003922   -0.0022330
n    -3.4090021    0.3994697   -0.4716672  0.00   -0.0078243    0.0013737   -0.0069633
h    -4.1416152    1.3855560    1.2814500  0.00   -0.0010595   -0.0001238    0.0017718
h    -2.6399972    0.6287568   -1.1638946  0.00    0.0193353    0.0156389   -0.0007885
h    -2.9721085   -0.2767654    0.2108623  0.00    0.0034720   -0.0103580    0.0089869
o    -2.7686592    3.8162086    1.0564114  0.00   -0.0047305    0.0052659    0.0076361
o    -1.3446355    2.2158489   -0.0616719  0.00   -0.0156208   -0.0504226    0.0092769
h    -0.8003103    3.0730137   -0.2481780  0.00    0.0140008    0.0278732   -0.0204232
    13
 Energy =       0.0420894735
c    -3.7990756    1.6324275    0.2365146  0.00   -0.0027956    0.0000386    0.0040555
c    -2.5711524    2.5187915    0.4491514  0.00   -0.0005904    0.0054111    0.0009276
c    -4.9100278    2.3751258   -0.5179697  0.00   -0.0007265    0.0011061   -0.0015553
h    -5.2172500    3.2913948    0.0381454  0.00   -0.0008655    0.0024894    0.0013653
h    -5.7974811    1.7119394   -0.6344000  0.00   -0.0027873   -0.0015443   -0.0006192
h    -4.5601746    2.6714135   -1.5321714  0.00    0.0001756    0.0005152   -0.0018804
n    -3.4882074    0.4079582   -0.5270478  0.00   -0.0097808   -0.0002285   -0.0052763
h    -4.1707672    1.3655413    1.2553942  0.00   -0.0004975   -0.0004110    0.0013538
h    -2.7778640    0.6460180   -1.2753961  0.00    0.0149447    0.0101323   -0.0043986
h    -2.9924765   -0.2664072    0.1146411  0.00    0.0037307   -0.0080431    0.0081991
o    -2.6952752    3.7542523    1.0799146  0.00   -0.0026107    0.0042652    0.0049925
o    -1.3220364    2.0987168   -0.0078401  0.00   -0.0132616   -0.0403257    0.0068800
h    -0.7103089    2.9243950   -0.0894249  0.00    0.0150650    0.0265949   -0.0140440
    13
 Energy =       0.0409383961
c    -3.7865998    1.6473460    0.2647627  0.00   -0.0027904    0.0029256    0.0055388
c    -2.5714303    2.5715501    0.3917156  0.00   -0.0026359    0.0077741    0.0026427
c    -4.9182202    2.3168607   -0.5292274  0.00   -0.0007767    0.0009441   -0.0022206
h    -5.2361869    3.2647855   -0.0322909  0.00   -0.0009419    0.0040020    0.0021051
h    -5.7943072    1.6299361   -0.5914559  0.00   -0.0033593   -0.0026175   -0.0007717
h    -4.5835879    2.5502982   -1.5667557  0.00    0.0002552    0.0011275   -0.0037848
n    -3.4722114    0.3672268   -0.4067063  0.00   -0.0123121   -0.0056534   -0.0079576
h    -4.1401295    1.4542197    1.3093412  0.00   -0.0007133   -0.0010863    0.0041815
h    -2.7884207    0.5555805   -1.1930379  0.00    0.0136462    0.0087548   -0.0067814
h    -2.9498872   -0.2485785    0.2733942  0.00    0.0047560   -0.0091541    0.0098621
o    -2.6974860    3.8099508    1.0147700  0.00   -0.0018386    0.0035308    0.0039306
o    -1.3371642    2.1908595   -0.1394737  0.00   -0.0054575   -0.0320925    0.0045029
h    -0.7364659    3.0215314   -0.2055244  0.00    0.0121685    0.0215450   -0.0112476
    13
 Energy =       0.0384892092
c    -3.7907987    1.6680406    0.2759379  0.00    0.0024021    0.0056935    0.0024398
c    -2.5813501    2.5952843    0.3558984  0.00   -0.0015799    0.0026131    0.0008234
c    -4.9033428    2.2765964   -0.5834574  0.00   -0.0007396   -0.0004798   -0.0003425
h    -5.2347469    3.2516092   -0.1583084  0.00   -0.0005278    0.0016473    0.0009914
h    -5.7730557    1.5863597   -0.6153750  0.00    0.0004337    0.0000439   -0.0000194
h    -4.5463701    2.4415644   -1.6247024  0.00    0.0002606    0.0004300   -0.0016563
n    -3.4757570    0.3343232   -0.2728306  0.00   -0.0179715   -0.0051021   -0.0032638
h    -4.1650942    1.5615509    1.3244188  0.00   -0.0006267   -0.0004695    0.0028705
h    -2.9026322    0.4605569   -1.1552631  0.00    0.0086722    0.0057955   -0.0132753
h    -2.8428637   -0.1652655    0.4122198  0.00    0.0082399   -0.0079721    0.0136045
o    -2.6893345    3.8091468    1.0245553  0.00   -0.0010143    0.0008132   -0.0001613
o    -1.3769656    2.2616008   -0.2584824  0.00   -0.0101468   -0.0252738   -0.0051802
h    -0.7297857    3.0501992   -0.1350994  0.00    0.0125981    0.0222607    0.0031695
    13
 Energy =       0.0379002433
c    -3.8018375    1.6694613    0.2832617  0.00    0.0019716    0.0021407    0.0006022
c    -2.5920764    2.5924316    0.3927337  0.00   -0.0055397   -0.0024179    0.0011247
c    -4.8785599    2.2656326   -0.6295650  0.00   -0.0012482   -0.0000491   -0.0002849
h    -5.2195000    3.2505067   -0.2375201  0.00   -0.0005125    0.0011933    0.0006848
h    -5.7514676    1.5798871   -0.6794672  0.00   -0.0000605    0.0000082   -0.0000124
h    -4.4814176    2.4067993   -1.6599422  0.00    0.0004071    0.0002888   -0.0017215
n    -3.4680645    0.3265883   -0.2251996  0.00   -0.0075268   -0.0029886   -0.0019592
h    -4.2168764    1.5830948    1.3176573  0.00   -0.0006027   -0.0001552    0.0022176
h    -2.9036658    0.4294723   -1.1098417  0.00    0.0038126    0.0027014   -0.0057871
h    -2.8272638   -0.1438851    0.4643098  0.00    0.0036923   -0.0037869    0.0060308
o    -2.6695118    3.7411706    1.1833084  0.00   -0.0039116    0.0101692    0.0077474
o    -1.4259735    2.3304295   -0.3323651  0.00    0.0043315   -0.0177040   -0.0098946
h    -0.7758824    3.0999780   -0.1778586  0.00    0.0051869    0.0106000    0.0012521
    13
 Energy =       0.0374326449
c    -3.8195345    1.6889462    0.2881581  0.00    0.0012008    0.0031862    0.0018891
c    -2.6157884    2.6170455    0.4044949  0.00    0.0009894    0.0000745    0.0004074
c    -4.8498064    2.2277263   -0.7131771  0.00   -0.0025003   -0.0004135   -0.0010068
h    -5.2132481    3.2327118   -0.3962732  0.00   -0.0011978    0.0024727    0.0008371
h    -5.7177557    1.5361384   -0.7693485  0.00   -0.0002013    0.0000589   -0.0001330
h    -4.3992504    2.3119764   -1.7287268  0.00    0.0007069    0.0001473   -0.0026047
n    -3.4553465    0.3190216   -0.1198035  0.00    0.0005287   -0.0043122   -0.0021804
h    -4.2865261    1.6617832    1.3039618  0.00   -0.0008223    0.0002724    0.0026192
h    -2.8919981    0.3642483   -1.0056977  0.00    0.0004354    0.0000549   -0.0010945
h    -2.8085597   -0.0873623    0.5993096  0.00    0.0014104   -0.0012981    0.0014663
o    -2.6775397    3.7280588    1.2354843  0.00   -0.0000192   -0.0002820   -0.0010570
o    -1.4719454    2.3980439   -0.3536426  0.00   -0.0004019   -0.0002857    0.0009047
h    -0.8047980    3.1332288   -0.1552278  0.00   -0.0001289    0.0003246   -0.0000474
    13
 Energy =       0.0377624369
c    -3.8096598    1.6782159    0.3015693  0.00    0.0008649    0.0032911    0.0015439
c    -2.6055311    2.6060110    0.4081784  0.00   -0.0115173   -0.0086526    0.0032865
c    -4.8515996    2.2226403   -0.6839988  0.00   -0.0023611   -0.0002811   -0.0009975
h    -5.2149848    3.2233787   -0.3550066  0.00   -0.0010971    0.0023096    0.0008145
h    -5.7176207    1.5285060   -0.7382840  0.00   -0.0001815    0.0000485   -0.0001063
h    -4.4103624    2.3172083   -1.7028335  0.00    0.0006984    0.0001144   -0.0024316
n    -3.4464374    0.3128716   -0.1211518  0.00    0.0003008   -0.0042822   -0.0018391
h    -4.2654295    1.6416186    1.3222737  0.00   -0.0007715    0.0002553    0.0024943
h    -2.8940969    0.3664914   -1.0137950  0.00    0.0004814    0.0000384   -0.0011477
h    -2.7932647   -0.0997378    0.5883675  0.00    0.0013559   -0.0011734    0.0013709
o    -2.5884195    3.6073490    1.3915393  0.00   -0.0065665    0.0163680    0.0200018
o    -1.5470538    2.5040649   -0.5123957  0.00    0.0187880   -0.0092054   -0.0237730
h    -0.8676370    3.2229490   -0.2949515  0.00    0.0000054    0.0011694    0.0007834
    13
 Energy =       0.0372061458
c    -3.8148277    1.6856000    0.2994620  0.00    0.0001310    0.0003091    0.0002051
c    -2.6121638    2.6153863    0.4049090  0.00    0.0001250   -0.0001305   -0.0000103
c    -4.8414749    2.2086721   -0.7084351  0.00   -0.0002473   -0.0000172   -0.0000834
h    -5.2101149    3.2125235   -0.4033429  0.00   -0.0001068    0.0002425    0.0001336
h    -5.7050686    1.5116457   -0.7633053  0.00   -0.0000191    0.0000030   -0.0000132
h    -4.3854705    2.2870576   -1.7198703  0.00    0.0000389    0.0000463   -0.0002604
n    -3.4470521    0.3151576   -0.0914898  0.00   -0.0004289   -0.0002684   -0.0001726
h    -4.2847218    1.6672258    1.3119638  0.00   -0.0000606   -0.0000199    0.0002974
h    -2.8779829    0.3518577   -0.9740094  0.00    0.0002730   -0.0000212   -0.0004814
h    -2.8083964   -0.0846189    0.6369456  0.00    0.0003807   -0.0002916    0.0003541
o    -2.5794612    3.5994025    1.3850629  0.00   -0.0000841    0.0002787   -0.0001563
o    -1.5653834    2.5252118   -0.5050732  0.00    0.0000521   -0.0002219    0.0000794
h    -0.8799790    3.2364453   -0.2833061  0.00   -0.0000540    0.0000912    0.0001080
    13
 Energy =       0.0371832263
c    -3.8150354    1.6821861    0.2997659  0.00    0.0000781    0.0002007    0.0000486
c    -2.6128492    2.6114761    0.4125733  0.00   -0.0009178   -0.0013685   -0.0003634
c    -4.8369756    2.2072396   -0.7116933  0.00   -0.0001418    0.0000098   -0.0000483
h    -5.2082218    3.2097012   -0.4058395  0.00   -0.0000621    0.0001469    0.0000873
h    -5.6994437    1.5093801   -0.7734766  0.00   -0.0000295   -0.0000120   -0.0000103
h    -4.3753568    2.2891946   -1.7203028  0.00    0.0000379    0.0000260   -0.0001756
n    -3.4442054    0.3134230   -0.0934002  0.00   -0.0003018   -0.0001843   -0.0000992
h    -4.2899732    1.6604937    1.3098144  0.00   -0.0000489   -0.0000249    0.0001978
h    -2.8697886    0.3534653   -0.9722415  0.00    0.0001872   -0.0000055   -0.0003249
h    -2.8111467   -0.0891990    0.6381761  0.00    0.0002461   -0.0001798    0.0002385
o    -2.5515751    3.5473440    1.4400616  0.00   -0.0005979    0.0022416    0.0026951
o    -1.5940139    2.5672227   -0.5340662  0.00    0.0014986   -0.0011087   -0.0024817
h    -0.9035118    3.2696393   -0.2998599  0.00    0.0000519    0.0002588    0.0002361
    13
 Energy =       0.0371674809
c    -3.8219038    1.6923199    0.3016547  0.00    0.0002747    0.0008758    0.0004813
c    -2.6233007    2.6264751    0.4108785  0.00   -0.0001189   -0.0002634    0.0000125
c    -4.8235536    2.1846572   -0.7470537  0.00   -0.0005844   -0.0001642   -0.0002938
h    -5.2034902    3.1953805   -0.4795378  0.00   -0.0003298    0.0007215    0.0001921
h    -5.6830288    1.4829293   -0.8064126  0.00   -0.0000362   -0.0000158   -0.0000361
h    -4.3404048    2.2374358   -1.7480992  0.00    0.0002022    0.0000207   -0.0006879
n    -3.4399997    0.3127630   -0.0425818  0.00   -0.0006753   -0.0009358   -0.0004463
h    -4.3181061    1.7000547    1.3022216  0.00   -0.0002419    0.0000879    0.0007053
h    -2.8461327    0.3279109   -0.9096748  0.00    0.0005609   -0.0001323   -0.0008691
h    -2.8236241   -0.0676073    0.7154255  0.00    0.0007401   -0.0005514    0.0008912
o    -2.5551251    3.5528030    1.4445217  0.00   -0.0001831    0.0005399    0.0006017
o    -1.6120027    2.5919787   -0.5425329  0.00    0.0003762   -0.0002390   -0.0005954
h    -0.9214247    3.2944663   -0.3092977  0.00    0.0000156    0.0000559    0.0000444
    13
 Energy =       0.0371614405
c    -3.8223047    1.6931484    0.3023264  0.00   -0.0000301   -0.0000650   -0.0000356
c    -2.6236959    2.6273012    0.4104953  0.00   -0.0001453   -0.0002201   -0.0001000
c    -4.8208265    2.1804107   -0.7502194  0.00    0.0000510    0.0000183    0.0000250
h    -5.2013205    3.1914238   -0.4882052  0.00    0.0000279   -0.0000609   -0.0000112
h    -5.6798912    1.4781844   -0.8091380  0.00    0.0000034    0.0000012    0.0000032
h    -4.3348707    2.2295451   -1.7493444  0.00   -0.0000169    0.0000000    0.0000579
n    -3.4397369    0.3132355   -0.0351462  0.00    0.0000505    0.0000788    0.0000386
h    -4.3211350    1.7046231    1.3007668  0.00    0.0000208   -0.0000139   -0.0000577
h    -2.8429297    0.3254792   -0.8995113  0.00   -0.0000477    0.0000162    0.0000673
h    -2.8269902   -0.0641826    0.7261721  0.00   -0.0000563    0.0000412   -0.0000773
o    -2.5395775    3.5330372    1.4608716  0.00   -0.0000888    0.0003132    0.0004390
o    -1.6263422    2.6105225   -0.5577324  0.00    0.0002215   -0.0001328   -0.0003694
h    -0.9324761    3.3088384   -0.3218240  0.00    0.0000101    0.0000237    0.0000200
    13
 Energy =       0.0371611835
c    -3.8224201    1.6932501    0.3024343  0.00    0.0000030    0.0000067    0.0000030
c    -2.6235068    2.6269839    0.4107458  0.00    0.0000085    0.0000095    0.0000038
c    -4.8203736    2.1804427   -0.7508241  0.00   -0.0000053   -0.0000016   -0.0000023
h    -5.2007166    3.1917358   -0.4894094  0.00   -0.0000030    0.0000063    0.0000016
h    -5.6796114    1.4784391   -0.8098831  0.00   -0.0000005   -0.0000000   -0.0000001
h    -4.3339146    2.2290230   -1.7498045  0.00    0.0000017    0.0000003   -0.0000058
n    -3.4400422    0.3130413   -0.0343831  0.00   -0.0000055   -0.0000080   -0.0000042
h    -4.3217222    1.7052737    1.3007049  0.00   -0.0000021    0.0000009    0.0000061
h    -2.8426126    0.3248042   -0.8983902  0.00    0.0000052   -0.0000014   -0.0000076
h    -2.8280507   -0.0644552    0.7275976  0.00    0.0000061   -0.0000046    0.0000078
o    -2.5357290    3.5279811    1.4644819  0.00    0.0000039   -0.0000120   -0.0000207
o    -1.6290819    2.6139499   -0.5602033  0.00   -0.0000118    0.0000041    0.0000188
h    -0.9343153    3.3110973   -0.3235554  0.00   -0.0000002   -0.0000002   -0.0000004
    13
 Energy =       0.0371611822
c    -3.8224383    1.6932648    0.3024446  0.00    0.0000000    0.0000000   -0.0000000
c    -2.6234937    2.6269543    0.4107709  0.00   -0.0000001   -0.0000001   -0.0000001
c    -4.8203108    2.1804316   -0.7508914  0.00   -0.0000000    0.0000000   -0.0000000
h    -5.2006405    3.1917408   -0.4895505  0.00   -0.0000000    0.0000000   -0.0000000
h    -5.6795615    1.4784464   -0.8099759  0.00   -0.0000000   -0.0000000   -0.0000000
h    -4.3337854    2.2289575   -1.7498367  0.00    0.0000000   -0.0000000   -0.0000000
n    -3.4400872    0.3130362   -0.0342825  0.00   -0.0000000   -0.0000000    0.0000000
h    -4.3217986    1.7053509    1.3006794  0.00   -0.0000000   -0.0000000    0.0000000
h    -2.8426053    0.3247442   -0.8982482  0.00    0.0000000    0.0000000   -0.0000000
h    -2.8281682   -0.0644476    0.7277542  0.00    0.0000000   -0.0000000    0.0000000
o    -2.5353849    3.5275158    1.4648691  0.00   -0.0000000    0.0000002    0.0000002
o    -1.6293372    2.6142680   -0.5604741  0.00    0.0000001   -0.0000001   -0.0000002
h    -0.9344854    3.3113039   -0.3237475  0.00    0.0000000    0.0000000    0.0000000
