    27
 Energy =       0.5873114939
c    -1.4235396    2.6054793   -0.0667700  0.00   -0.0467082    0.0384195    0.0029863
c    -1.3072796    1.2134697   -0.1072300  0.00   -0.0853266   -0.0325676    0.0021306
c    -0.0178900    0.6711998   -0.1697000  0.00   -0.0896403   -0.1885005   -0.0016703
c    -0.2940599    3.4190890   -0.0891300  0.00   -0.0166888    0.0686480    0.0031000
c     0.9872197    2.8590292   -0.1560400  0.00    0.3363848    0.4636867    0.2291110
c     1.1340797    1.4562096   -0.1970299  0.00    0.1311166    0.1468605   -0.0060376
n     0.3879399   -0.6395298   -0.2140799  0.00    0.1447533    0.1108890   -0.0019065
c     2.2666594    0.5727398   -0.2659299  0.00    0.1568213   -0.0828090   -0.0210864
c     1.7555995   -0.7123598   -0.2706899  0.00   -0.1004783   -0.0972932    0.0044978
h    -0.2400399   -1.4313496   -0.2047299  0.00    0.0369288    0.0482007   -0.0009986
c     3.7030089    1.0223397   -0.3320099  0.00   -0.0043619    0.0143348    0.0808106
c     4.0547688    2.2615794    0.5049969  0.00    0.0380673   -0.0968247   -0.1098672
h     3.9407589    1.2278196   -1.3843196  0.00   -0.0002403   -0.0058945    0.0115625
h     4.3455988    0.1801669   -0.0411573  0.00   -0.0136689    0.0126308    0.0060431
c     4.1070688    1.8611695    1.9910894  0.00    0.0659319    0.1870036    0.3412173
n     3.0543991    3.3796390    0.3726399  0.00   -0.3769389   -0.1736219   -0.2973727
h     5.0442386    2.6531392    0.2410219  0.00   -0.0246845    0.0123514    0.0047038
h     3.5723190    4.2128988    0.0750977  0.00   -0.0911951   -0.0706772   -0.0076782
h     2.4528293    3.1644491   -0.4302769  0.00    0.1697718    0.5808503    0.5997565
h    -2.4108593    3.0588691   -0.0157800  0.00   -0.0008073    0.0002507   -0.0001263
h    -2.1896094    0.5822398   -0.0890100  0.00   -0.0035625    0.0037156   -0.0000563
h    -0.4052699    4.5000487   -0.0535400  0.00    0.0009286    0.0000122   -0.0002502
h     1.8590495    3.5066790   -0.1715100  0.00   -0.1227899   -0.7976268   -0.4731439
h     2.2327294   -1.6813195   -0.3062999  0.00   -0.0412985   -0.0117831    0.0013359
o     4.4286787    2.5928493    2.9125692  0.00   -0.0733292   -0.1755485   -0.2249375
o     3.7415389    0.5622178    2.1634194  0.00   -0.0065459    0.0324970   -0.1106476
h     2.9344892    0.5974698    2.7396392  0.00    0.0175609    0.0127962   -0.0314761
    27
 Energy =       0.5581375372
c    -1.4164270    2.6249278   -0.2085894  0.00   -0.0452290    0.0375033    0.0028626
c    -1.3164522    1.2305507   -0.2175514  0.00   -0.0821648   -0.0316271    0.0020225
c    -0.0356279    0.6723654   -0.2545172  0.00   -0.0881506   -0.1739240   -0.0020508
c    -0.2775422    3.4274710   -0.2210611  0.00   -0.0168990    0.0661383    0.0029287
c     0.9996441    2.8544240   -0.2516802  0.00    0.3122318    0.4391396    0.2106621
c     1.1182217    1.4430677   -0.2690687  0.00    0.1245446    0.1433950   -0.0040597
n     0.3636969   -0.6461636   -0.1916128  0.00    0.1406947    0.1010617   -0.0014535
c     2.2495165    0.5610398   -0.2520484  0.00    0.1525495   -0.0793309   -0.0190332
c     1.7372610   -0.7227754   -0.2106201  0.00   -0.0967080   -0.0925684    0.0040102
h    -0.2695468   -1.4353246   -0.1528670  0.00    0.0350945    0.0455653   -0.0008963
c     3.6898483    1.0154190   -0.2659329  0.00   -0.0035349    0.0136237    0.0773401
c     4.0275518    2.2714426    0.5700575  0.00    0.0362313   -0.0928544   -0.1055826
h     3.9594274    1.2151500   -1.3128709  0.00   -0.0000996   -0.0056120    0.0106020
h     4.3278717    0.1729686    0.0357668  0.00   -0.0128971    0.0121062    0.0058622
c     4.0953383    1.8844646    2.0550553  0.00    0.0643441    0.1857290    0.3250172
n     3.0349881    3.4002393    0.4238393  0.00   -0.3543815   -0.1578745   -0.2740863
h     5.0214477    2.6535315    0.3048351  0.00   -0.0236279    0.0118122    0.0045113
h     3.5754576    4.2188256    0.0988579  0.00   -0.0873686   -0.0673168   -0.0084771
h     2.4380235    3.1130451   -0.3710739  0.00    0.1567710    0.5403639    0.5553835
h    -2.3992385    3.0900009   -0.1745331  0.00   -0.0009755    0.0003693   -0.0001097
h    -2.2058315    0.6095586   -0.1835028  0.00   -0.0035349    0.0033427   -0.0000282
h    -0.3777421    4.5094424   -0.1829494  0.00    0.0009511    0.0001018   -0.0002042
h     1.8957113    3.4861043   -0.1686139  0.00   -0.1085143   -0.7528432   -0.4361290
h     2.2200250   -1.6924383   -0.1598711  0.00   -0.0377254   -0.0147248    0.0014545
o     4.4314194    2.6384011    2.9622388  0.00   -0.0706409   -0.1687509   -0.2149960
o     3.8278984    0.5600223    2.2416912  0.00   -0.0051496    0.0243679   -0.1074516
h     2.9994858    0.5404723    2.7918628  0.00    0.0141889    0.0128072   -0.0280987
    27
 Energy =       0.4601257081
c    -1.4351886    2.5154287   -0.1291024  0.00   -0.0343560    0.0286894    0.0021528
c    -1.2868815    1.1345522   -0.1384441  0.00   -0.0624724   -0.0244627    0.0013434
c     0.0011886    0.6222718   -0.1669027  0.00   -0.0674017   -0.1245732    0.0003569
c    -0.3295437    3.3497873   -0.1592758  0.00   -0.0129623    0.0494905    0.0022568
c     0.9581674    2.8244690   -0.2006689  0.00    0.2355075    0.3298211    0.1639983
c     1.1192743    1.4275119   -0.1891623  0.00    0.0929573    0.1069200   -0.0001813
n     0.4266426   -0.7061451   -0.1998700  0.00    0.1043194    0.0707510   -0.0032084
c     2.2646344    0.6000113   -0.2258353  0.00    0.1143268   -0.0582462   -0.0114324
c     1.8164367   -0.6971097   -0.2203107  0.00   -0.0726169   -0.0654847    0.0041408
h    -0.1709257   -1.5364017   -0.1989063  0.00    0.0247469    0.0310049   -0.0013947
c     3.6962174    1.0873019   -0.3259325  0.00   -0.0001789    0.0101903    0.0593940
c     4.0362047    2.3179208    0.5367603  0.00    0.0273301   -0.0697975   -0.0806122
h     3.8988297    1.3274087   -1.3850967  0.00    0.0002934   -0.0034081    0.0051597
h     4.3742242    0.2579400   -0.0579869  0.00   -0.0085193    0.0085802    0.0062739
c     4.0976076    1.8945148    2.0076352  0.00    0.0494647    0.1423117    0.2424025
n     3.0335822    3.4234516    0.3986174  0.00   -0.2788047   -0.1419284   -0.1942454
h     5.0292483    2.7110517    0.2702886  0.00   -0.0176831    0.0088654    0.0030200
h     3.5438582    4.3239813    0.2374242  0.00   -0.0535635   -0.0299484   -0.0099743
h     2.3941835    3.1777590   -0.4540256  0.00    0.1139667    0.4182104    0.4130152
h    -2.4336918    2.9474575   -0.1008544  0.00   -0.0013612    0.0006628   -0.0000635
h    -2.1536843    0.4806826   -0.1237299  0.00   -0.0034979    0.0019882   -0.0000617
h    -0.4672996    4.4293297   -0.1490778  0.00    0.0007584    0.0012713   -0.0003400
h     1.8491353    3.5644764   -0.1987617  0.00   -0.0764133   -0.5722705   -0.3384545
h     2.3787781   -1.6286162   -0.2457818  0.00   -0.0249742   -0.0163230    0.0010446
o     4.4418792    2.6603756    2.9563143  0.00   -0.0535698   -0.1270581   -0.1604783
o     3.7617435    0.5804551    2.2160858  0.00    0.0045474    0.0145121   -0.0876111
h     2.8698057    0.6063663    2.6818404  0.00    0.0001564    0.0102312   -0.0165010
    27
 Energy =       0.4537665272
c    -1.4383091    2.5211551   -0.1410324  0.00   -0.0334285    0.0280233    0.0021070
c    -1.2933320    1.1407420   -0.1740081  0.00   -0.0608348   -0.0242429    0.0013056
c    -0.0072530    0.6258402   -0.1882823  0.00   -0.0645935   -0.1178183    0.0008295
c    -0.3306566    3.3531869   -0.1446978  0.00   -0.0124204    0.0483775    0.0021851
c     0.9559315    2.8258865   -0.1748061  0.00    0.2294108    0.3209050    0.1595544
c     1.1117080    1.4280986   -0.1748696  0.00    0.0906783    0.1045290   -0.0002003
n     0.4131366   -0.7031149   -0.2920089  0.00    0.0989473    0.0662962   -0.0036899
c     2.2553089    0.6006594   -0.2052505  0.00    0.1119575   -0.0559699   -0.0109377
c     1.8054214   -0.6952327   -0.2362504  0.00   -0.0674734   -0.0623284    0.0044618
h    -0.1878954   -1.5318384   -0.3576594  0.00    0.0219249    0.0272483   -0.0016592
c     3.6890118    1.0843358   -0.2956705  0.00   -0.0001792    0.0100002    0.0576456
c     4.0342529    2.3159335    0.5656202  0.00    0.0265737   -0.0678092   -0.0784465
h     3.8959196    1.3242118   -1.3543108  0.00    0.0002895   -0.0033122    0.0050110
h     4.3643387    0.2517092   -0.0301634  0.00   -0.0082539    0.0083308    0.0060852
c     4.1104874    1.8945598    2.0352872  0.00    0.0481807    0.1390714    0.2354561
n     3.0344325    3.4243929    0.4313427  0.00   -0.2713323   -0.1379708   -0.1887836
h     5.0270611    2.7051442    0.2907688  0.00   -0.0171569    0.0086241    0.0029252
h     3.5497560    4.3218469    0.2644411  0.00   -0.0520480   -0.0290811   -0.0097199
h     2.3940272    3.1713670   -0.4203900  0.00    0.1107013    0.4063594    0.4014122
h    -2.4362944    2.9550980   -0.1246672  0.00   -0.0014297    0.0006037   -0.0000613
h    -2.1621530    0.4887215   -0.1971173  0.00   -0.0039726    0.0014404   -0.0000839
h    -0.4663397    4.4328952   -0.1269169  0.00    0.0007631    0.0012743   -0.0003298
h     1.8519791    3.5679057   -0.1715707  0.00   -0.0741248   -0.5562115   -0.3290665
h     2.3693049   -1.6255649   -0.2692581  0.00   -0.0244785   -0.0160517    0.0010192
o     4.4585210    2.6696677    2.9795099  0.00   -0.0521136   -0.1235482   -0.1559493
o     3.8089967    0.5723518    2.2496305  0.00    0.0049074    0.0131798   -0.0853946
h     2.9070644    0.5762737    2.6975704  0.00   -0.0004945    0.0100807   -0.0156753
    27
 Energy =       0.4441247648
c    -1.4330060    2.5238363   -0.1351166  0.00   -0.0323225    0.0272483    0.0020450
c    -1.2880460    1.1439220   -0.1416723  0.00   -0.0588021   -0.0238923    0.0012403
c    -0.0033915    0.6295025   -0.1661812  0.00   -0.0615999   -0.1105384    0.0006541
c    -0.3259813    3.3553102   -0.1652404  0.00   -0.0117991    0.0469895    0.0021276
c     0.9597132    2.8282993   -0.2033260  0.00    0.2219149    0.3102983    0.1541605
c     1.1146277    1.4316350   -0.1873406  0.00    0.0878625    0.1015689   -0.0001729
n     0.4121283   -0.7070123   -0.1986974  0.00    0.0936189    0.0615292   -0.0033280
c     2.2558855    0.6045812   -0.2193345  0.00    0.1087975   -0.0534319   -0.0104356
c     1.8081644   -0.6918777   -0.2134294  0.00   -0.0625555   -0.0590312    0.0041576
h    -0.1910066   -1.5400783   -0.1989063  0.00    0.0191331    0.0235022   -0.0015390
c     3.6894922    1.0854877   -0.3230076  0.00   -0.0001137    0.0097281    0.0556701
c     4.0373180    2.3110296    0.5446842  0.00    0.0256695   -0.0654865   -0.0757702
h     3.8886847    1.3306490   -1.3821312  0.00    0.0002782   -0.0031946    0.0047990
h     4.3661325    0.2519668   -0.0622356  0.00   -0.0079480    0.0080524    0.0059257
c     4.1014078    1.8845585    2.0136145  0.00    0.0466206    0.1344689    0.2273544
n     3.0433530    3.4228165    0.4045813  0.00   -0.2622007   -0.1333845   -0.1823253
h     5.0345740    2.6949416    0.2771018  0.00   -0.0165289    0.0083450    0.0028218
h     3.5633598    4.3182379    0.2435955  0.00   -0.0502605   -0.0280797   -0.0093908
h     2.4033006    3.1760107   -0.4556368  0.00    0.1070197    0.3927355    0.3876724
h    -2.4308066    2.9577771   -0.1096883  0.00   -0.0014515    0.0005420   -0.0000579
h    -2.1567968    0.4906069   -0.1282096  0.00   -0.0043518    0.0009091   -0.0000731
h    -0.4617657    4.4351588   -0.1575693  0.00    0.0007676    0.0012905   -0.0003159
h     1.8551936    3.5770565   -0.2012923  0.00   -0.0717120   -0.5374326   -0.3179111
h     2.3757349   -1.6200835   -0.2395211  0.00   -0.0238070   -0.0156598    0.0009472
o     4.4477222    2.6577446    2.9653825  0.00   -0.0503658   -0.1193494   -0.1505744
o     3.7825445    0.5655989    2.2277290  0.00    0.0054821    0.0125361   -0.0828895
h     2.8658901    0.5785569    2.6470882  0.00   -0.0013456    0.0097369   -0.0147921
    27
 Energy =       0.4060804170
c    -1.4221552    2.5474960   -0.1377583  0.00   -0.0264054    0.0224248    0.0017106
c    -1.2833761    1.1719353   -0.1176406  0.00   -0.0480528   -0.0199542    0.0009122
c    -0.0086767    0.6523454   -0.1467705  0.00   -0.0497048   -0.0879237   -0.0004761
c    -0.3137245    3.3707557   -0.1903610  0.00   -0.0095028    0.0385709    0.0018489
c     0.9660680    2.8398927   -0.2307913  0.00    0.1847300    0.2557661    0.1277588
c     1.1054846    1.4452412   -0.1975268  0.00    0.0718578    0.0836787    0.0000682
n     0.3898834   -0.6944170   -0.1159721  0.00    0.0753335    0.0483509   -0.0014363
c     2.2349960    0.6202905   -0.2266690  0.00    0.0894936   -0.0432633   -0.0077296
c     1.7916649   -0.6722097   -0.1887947  0.00   -0.0494732   -0.0473577    0.0026570
h    -0.2193311   -1.5271390   -0.0591733  0.00    0.0141160    0.0170933   -0.0008331
c     3.6728897    1.0870206   -0.3444483  0.00   -0.0006198    0.0082251    0.0457897
c     4.0371952    2.2890062    0.5527953  0.00    0.0212409   -0.0537163   -0.0613126
h     3.8584558    1.3589735   -1.4010684  0.00    0.0001322   -0.0024847    0.0035028
h     4.3487631    0.2420475   -0.1120226  0.00   -0.0062713    0.0062784    0.0049929
c     4.0878151    1.8387529    2.0140081  0.00    0.0373877    0.1109666    0.1860025
n     3.0736756    3.4238545    0.4008031  0.00   -0.2183251   -0.1106748   -0.1500850
h     5.0515097    2.6445478    0.2996522  0.00   -0.0129361    0.0069713    0.0023123
h     3.6260164    4.2991568    0.2287424  0.00   -0.0405131   -0.0223070   -0.0079489
h     2.4329289    3.1744596   -0.4821349  0.00    0.0880554    0.3227997    0.3206411
h    -2.4174789    2.9864219   -0.1076672  0.00   -0.0012325    0.0004168   -0.0000461
h    -2.1537151    0.5220007   -0.0732348  0.00   -0.0039060    0.0003613   -0.0000381
h    -0.4453302    4.4510943   -0.1938563  0.00    0.0006427    0.0011357   -0.0002509
h     1.8718432    3.6154478   -0.2285905  0.00   -0.0594591   -0.4416749   -0.2643567
h     2.3738136   -1.5911832   -0.2101600  0.00   -0.0195029   -0.0129075    0.0006508
o     4.4351606    2.6145696    2.9905747  0.00   -0.0414215   -0.0979525   -0.1227345
o     3.8052206    0.5069325    2.2249704  0.00    0.0310941    0.0082998   -0.0755650
h     2.8148298    0.4789382    2.4883351  0.00   -0.0267575    0.0088773   -0.0060352
    27
 Energy =       0.3925854762
c    -1.4361986    2.5321436   -0.0598131  0.00   -0.0240666    0.0203836    0.0014987
c    -1.2822184    1.1598149   -0.0531827  0.00   -0.0437318   -0.0179727    0.0007717
c    -0.0052854    0.6545342   -0.1098823  0.00   -0.0454193   -0.0791927   -0.0004673
c    -0.3386343    3.3667698   -0.1248986  0.00   -0.0088671    0.0350347    0.0016241
c     0.9443861    2.8514201   -0.1937120  0.00    0.1676825    0.2303387    0.1163289
c     1.0951326    1.4589028   -0.1808182  0.00    0.0644591    0.0759900    0.0001276
n     0.4075642   -0.6911398   -0.1039949  0.00    0.0666587    0.0437604   -0.0009443
c     2.2302788    0.6534864   -0.2592144  0.00    0.0810567   -0.0393312   -0.0062046
c     1.8093442   -0.6441106   -0.2298463  0.00   -0.0433307   -0.0426656    0.0022364
h    -0.1884177   -1.5341960   -0.0339812  0.00    0.0125123    0.0151358   -0.0007117
c     3.6571404    1.1499175   -0.4188391  0.00   -0.0021095    0.0081078    0.0410060
c     4.0249940    2.3088483    0.5397545  0.00    0.0190260   -0.0469964   -0.0562786
h     3.7923706    1.4887322   -1.4674855  0.00    0.0004334   -0.0010840    0.0000410
h     4.3611850    0.3056413   -0.2650753  0.00   -0.0034797    0.0030621    0.0042910
c     4.0810098    1.7728079    1.9754507  0.00    0.0310995    0.1056849    0.1642123
n     3.0629115    3.4545221    0.4252043  0.00   -0.1984383   -0.0985235   -0.1353362
h     5.0425010    2.6695420    0.3027821  0.00   -0.0115763    0.0065073    0.0020244
h     3.6183807    4.3255742    0.2418892  0.00   -0.0365610   -0.0202183   -0.0072389
h     2.4213112    3.1936335   -0.4664094  0.00    0.0802524    0.2896306    0.2899431
h    -2.4356386    2.9600752   -0.0089171  0.00   -0.0013861    0.0004998   -0.0000334
h    -2.1442583    0.4998778    0.0010010  0.00   -0.0036690    0.0002827   -0.0000361
h    -0.4825418    4.4455375   -0.1196964  0.00    0.0005291    0.0011477   -0.0002382
h     1.8463939    3.6566270   -0.2225097  0.00   -0.0535270   -0.3971163   -0.2404608
h     2.4108957   -1.5492567   -0.2914021  0.00   -0.0168239   -0.0124435    0.0004900
o     4.4524792    2.4775603    3.0116999  0.00   -0.0349586   -0.0871041   -0.1055214
o     3.8680510    0.4087818    2.1051980  0.00    0.0358835   -0.0013282   -0.0680476
h     2.9012895    0.3201851    2.4419391  0.00   -0.0316482    0.0084104   -0.0030763
    27
 Energy =       0.3770680715
c    -1.4223921    2.5825008   -0.1717170  0.00   -0.0225771    0.0196975    0.0014307
c    -1.2947930    1.2098034   -0.1129575  0.00   -0.0404067   -0.0170468    0.0008217
c    -0.0296204    0.6782615   -0.1283576  0.00   -0.0421311   -0.0701703   -0.0006655
c    -0.3082180    3.3922843   -0.2483563  0.00   -0.0088418    0.0330482    0.0015591
c     0.9651515    2.8501431   -0.2764408  0.00    0.1515291    0.2115498    0.1052616
c     1.0869392    1.4564075   -0.2023302  0.00    0.0575146    0.0695860    0.0002720
n     0.3484993   -0.6776317   -0.0476011  0.00    0.0610098    0.0376679   -0.0007132
c     2.2044611    0.6227025   -0.2076387  0.00    0.0751201   -0.0369883   -0.0047230
c     1.7567983   -0.6636428   -0.1320129  0.00   -0.0382033   -0.0403884    0.0021427
h    -0.2714743   -1.5033960    0.0412990  0.00    0.0108535    0.0129223   -0.0005768
c     3.6487634    1.0630496   -0.3578307  0.00   -0.0021946    0.0063291    0.0372645
c     4.0409810    2.2600942    0.5416795  0.00    0.0171480   -0.0412818   -0.0530508
h     3.8162135    1.3425738   -1.4216032  0.00    0.0010886   -0.0002956   -0.0020921
h     4.3218710    0.2028233   -0.1459759  0.00   -0.0020165    0.0007182    0.0037400
c     4.1060226    1.8104568    2.0044323  0.00    0.0269466    0.0975389    0.1461937
n     3.0942442    3.4064623    0.3896486  0.00   -0.1811397   -0.0906946   -0.1217459
h     5.0604901    2.5958041    0.2723028  0.00   -0.0099283    0.0064233    0.0013927
h     3.6631984    4.2799608    0.2567103  0.00   -0.0314836   -0.0167852   -0.0065599
h     2.4658400    3.1610739   -0.5266422  0.00    0.0733549    0.2659775    0.2639168
h    -2.4142273    3.0315468   -0.1511279  0.00   -0.0018729    0.0009386   -0.0000177
h    -2.1698916    0.5681750   -0.0464178  0.00   -0.0035507   -0.0000728   -0.0000026
h    -0.4311339    4.4739526   -0.2784495  0.00    0.0002579    0.0019236   -0.0002258
h     1.8886855    3.6452948   -0.2826500  0.00   -0.0491070   -0.3629083   -0.2198066
h     2.3458865   -1.5811834   -0.1378817  0.00   -0.0142699   -0.0128291    0.0004740
o     4.4752538    2.6100745    2.9856251  0.00   -0.0295886   -0.0745857   -0.0909146
o     3.8665092    0.4635180    2.2373975  0.00    0.0327157   -0.0077702   -0.0608398
h     2.9003682    0.4151227    2.5821366  0.00   -0.0302270    0.0074963   -0.0025350
    27
 Energy =       0.3611666674
c    -1.4113531    2.6453463   -0.2753749  0.00   -0.0201760    0.0181732    0.0012819
c    -1.3160001    1.2752513   -0.1611256  0.00   -0.0353867   -0.0155589    0.0008422
c    -0.0670763    0.7146757   -0.1348535  0.00   -0.0365632   -0.0588338   -0.0010039
c    -0.2784787    3.4249052   -0.3674356  0.00   -0.0082441    0.0297886    0.0014072
c     0.9812028    2.8534461   -0.3554106  0.00    0.1286810    0.1843449    0.0898363
c     1.0662799    1.4614198   -0.2171121  0.00    0.0483091    0.0598042    0.0004921
n     0.2680206   -0.6492363    0.0180520  0.00    0.0529960    0.0300514   -0.0003095
c     2.1595851    0.6009439   -0.1551665  0.00    0.0656465   -0.0329070   -0.0028935
c     1.6811931   -0.6693275   -0.0335828  0.00   -0.0319137   -0.0365509    0.0019695
h    -0.3783420   -1.4545943    0.1285755  0.00    0.0085818    0.0100500   -0.0003485
c     3.6207430    0.9791078   -0.3078583  0.00   -0.0018838    0.0042593    0.0316021
c     4.0564842    2.2015718    0.5380079  0.00    0.0140127   -0.0338867   -0.0469201
h     3.8046401    1.2075610   -1.3823504  0.00    0.0015597    0.0001502   -0.0031286
h     4.2616671    0.1024471   -0.0593303  0.00   -0.0011242   -0.0007645    0.0028511
c     4.1649444    1.8210639    2.0156880  0.00    0.0225887    0.0837325    0.1235121
n     3.1215493    3.3485140    0.3729793  0.00   -0.1562443   -0.0823255   -0.1025672
h     5.0717712    2.5126185    0.2184491  0.00   -0.0072059    0.0060179    0.0005265
h     3.6976357    4.2299528    0.3176478  0.00   -0.0232723   -0.0103403   -0.0050316
h     2.5171599    3.1196883   -0.5811482  0.00    0.0639524    0.2316275    0.2279051
h    -2.3929413    3.1178618   -0.2854844  0.00   -0.0022874    0.0013609   -0.0000244
h    -2.2061909    0.6561371   -0.0805436  0.00   -0.0033643   -0.0005052    0.0000519
h    -0.3761085    4.5080930   -0.4372026  0.00    0.0000015    0.0028038   -0.0002484
h     1.9334997    3.6426962   -0.3522277  0.00   -0.0440436   -0.3138560   -0.1922055
h     2.2552421   -1.5967861    0.0066772  0.00   -0.0115463   -0.0121646    0.0004679
o     4.5440218    2.7003383    2.9418145  0.00   -0.0238110   -0.0596425   -0.0746186
o     3.9419161    0.4889936    2.3378744  0.00    0.0285803   -0.0105851   -0.0516064
h     2.9933611    0.4535433    2.7256820  0.00   -0.0278427    0.0057567   -0.0018399
    27
 Energy =       0.3576165804
c    -1.4120834    2.6914117   -0.3234607  0.00   -0.0190860    0.0173700    0.0011843
c    -1.3388557    1.3239961   -0.1758580  0.00   -0.0331871   -0.0148791    0.0008312
c    -0.1008406    0.7447925   -0.1274175  0.00   -0.0341142   -0.0544233   -0.0010816
c    -0.2669033    3.4504039   -0.4278318  0.00   -0.0077948    0.0282746    0.0012939
c     0.9829948    2.8600053   -0.3952430  0.00    0.1187568    0.1721911    0.0832679
c     1.0436933    1.4704421   -0.2192733  0.00    0.0446664    0.0555452    0.0005727
n     0.2069707   -0.6212256    0.0664975  0.00    0.0496079    0.0271552   -0.0001322
c     2.1208742    0.5934801   -0.1240058  0.00    0.0613955   -0.0308700   -0.0021712
c     1.6212006   -0.6648828    0.0250476  0.00   -0.0295726   -0.0347125    0.0018976
h    -0.4555613   -1.4120137    0.1937647  0.00    0.0076244    0.0088635   -0.0002455
c     3.5902522    0.9328497   -0.2881487  0.00   -0.0020598    0.0037170    0.0285544
c     4.0629350    2.1654427    0.5255215  0.00    0.0125103   -0.0306376   -0.0445418
h     3.7712585    1.1354828   -1.3685324  0.00    0.0016272    0.0002114   -0.0032338
h     4.2138813    0.0456475   -0.0327194  0.00   -0.0008507   -0.0010470    0.0022767
c     4.2389853    1.8120321    2.0035417  0.00    0.0213677    0.0794383    0.1145572
n     3.1214029    3.3069838    0.3819351  0.00   -0.1460114   -0.0797504   -0.0943298
h     5.0634910    2.4725655    0.1543152  0.00   -0.0053681    0.0057778   -0.0000608
h     3.6889819    4.1985774    0.3929617  0.00   -0.0190376   -0.0062417   -0.0040237
h     2.5430687    3.0915644   -0.6020738  0.00    0.0598787    0.2163865    0.2125467
h    -2.3861071    3.1789464   -0.3498509  0.00   -0.0023614    0.0014606   -0.0000318
h    -2.2390023    0.7208245   -0.0847518  0.00   -0.0032971   -0.0006737    0.0000766
h    -0.3471909    4.5333550   -0.5223334  0.00   -0.0000531    0.0030853   -0.0002670
h     1.9565148    3.6419040   -0.3957420  0.00   -0.0423248   -0.2923780   -0.1809361
h     2.1821898   -1.5995772    0.0847434  0.00   -0.0105870   -0.0116335    0.0004496
o     4.6157482    2.7312655    2.8986922  0.00   -0.0218599   -0.0542667   -0.0685258
o     4.0844136    0.4782407    2.3621902  0.00    0.0277293   -0.0130107   -0.0468992
h     3.1521142    0.4137181    2.7832723  0.00   -0.0275985    0.0050478   -0.0010287
    27
 Energy =       0.3592991436
c    -1.4170808    2.7235707   -0.3499152  0.00   -0.0188442    0.0172152    0.0011458
c    -1.3591541    1.3579903   -0.1817616  0.00   -0.0326524   -0.0147471    0.0008367
c    -0.1282592    0.7661660   -0.1197220  0.00   -0.0334973   -0.0532185   -0.0011107
c    -0.2634385    3.4684966   -0.4622244  0.00   -0.0076752    0.0279523    0.0012437
c     0.9797836    2.8651316   -0.4173313  0.00    0.1158609    0.1689313    0.0813935
c     1.0243529    1.4774392   -0.2176758  0.00    0.0436923    0.0544169    0.0006057
n     0.1616943   -0.6000082    0.1001282  0.00    0.0487381    0.0262949   -0.0000565
c     2.0909849    0.5887700   -0.1013787  0.00    0.0603402   -0.0303410   -0.0018231
c     1.5757272   -0.6611497    0.0643072  0.00   -0.0289359   -0.0343067    0.0019127
h    -0.5117101   -1.3801244    0.2383764  0.00    0.0073003    0.0084619   -0.0002058
c     3.5654898    0.9014697   -0.2728849  0.00   -0.0024678    0.0035285    0.0272942
c     4.0650669    2.1433621    0.5131688  0.00    0.0118827   -0.0292700   -0.0444781
h     3.7428265    1.0837491   -1.3577309  0.00    0.0016866    0.0002434   -0.0033765
h     4.1774082    0.0075184   -0.0130872  0.00   -0.0007110   -0.0012290    0.0018922
c     4.3092164    1.8091237    1.9871350  0.00    0.0211547    0.0799764    0.1119657
n     3.1105851    3.2758350    0.3964672  0.00   -0.1437808   -0.0797882   -0.0920108
h     5.0469904    2.4551315    0.0952914  0.00   -0.0041224    0.0058370   -0.0005672
h     3.6650827    4.1754144    0.4574968  0.00   -0.0171778   -0.0040367   -0.0034421
h     2.5549095    3.0720478   -0.6086144  0.00    0.0587723    0.2124340    0.2084255
h    -2.3857296    3.2212128   -0.3861462  0.00   -0.0024122    0.0015123   -0.0000372
h    -2.2661036    0.7660511   -0.0839128  0.00   -0.0033152   -0.0007488    0.0000890
h    -0.3317002    4.5509079   -0.5721707  0.00   -0.0000677    0.0032253   -0.0002804
h     1.9679368    3.6382767   -0.4212713  0.00   -0.0421827   -0.2866681   -0.1783348
h     2.1256593   -1.6019352    0.1346207  0.00   -0.0103043   -0.0115489    0.0004446
o     4.6659684    2.7595054    2.8605460  0.00   -0.0212848   -0.0521412   -0.0666785
o     4.2370526    0.4711456    2.3635757  0.00    0.0286969   -0.0168441   -0.0445768
h     3.3108673    0.3611344    2.7899546  0.00   -0.0286935    0.0048591   -0.0002706
    27
 Energy =       0.3558242250
c    -1.4054418    2.7112510   -0.3416380  0.00   -0.0187371    0.0171456    0.0011303
c    -1.3413188    1.3444817   -0.1856409  0.00   -0.0324379   -0.0146876    0.0008373
c    -0.1077705    0.7576037   -0.1306649  0.00   -0.0332722   -0.0527705   -0.0011157
c    -0.2552522    3.4622304   -0.4480972  0.00   -0.0076202    0.0278097    0.0012238
c     0.9906218    2.8641392   -0.4091131  0.00    0.1148671    0.1677258    0.0807402
c     1.0411578    1.4750511   -0.2238863  0.00    0.0433798    0.0540371    0.0006166
n     0.1893707   -0.6098130    0.0732481  0.00    0.0484393    0.0259902   -0.0000281
c     2.1118555    0.5916414   -0.1191735  0.00    0.0599391   -0.0301528   -0.0016364
c     1.6039988   -0.6624197    0.0366086  0.00   -0.0287221   -0.0341272    0.0019274
h    -0.4793522   -1.3954221    0.2034903  0.00    0.0071888    0.0083230   -0.0001968
c     3.5843809    0.9183372   -0.2823220  0.00   -0.0029415    0.0034470    0.0264625
c     4.0657296    2.1495985    0.5299086  0.00    0.0116326   -0.0283777   -0.0448814
h     3.7683350    1.1175653   -1.3631485  0.00    0.0017160    0.0002697   -0.0035132
h     4.2012814    0.0267362   -0.0251774  0.00   -0.0006131   -0.0013172    0.0016365
c     4.2421643    1.7983804    2.0111022  0.00    0.0212448    0.0814534    0.1108238
n     3.1293073    3.2953009    0.3837195  0.00   -0.1437378   -0.0797669   -0.0913442
h     5.0694257    2.4505495    0.1553460  0.00   -0.0029758    0.0059789   -0.0009776
h     3.6999568    4.1870990    0.4087740  0.00   -0.0162731   -0.0027550   -0.0032224
h     2.5581921    3.0814964   -0.6085184  0.00    0.0583412    0.2108802    0.2067686
h    -2.3763035    3.2048999   -0.3730497  0.00   -0.0024123    0.0015205   -0.0000385
h    -2.2455072    0.7475311   -0.0927876  0.00   -0.0033114   -0.0007693    0.0000922
h    -0.3284383    4.5452336   -0.5491242  0.00   -0.0000694    0.0032566   -0.0002832
h     1.9727003    3.6422925   -0.4110397  0.00   -0.0421248   -0.2846093   -0.1772840
h     2.1600099   -1.5997748    0.1033406  0.00   -0.0102063   -0.0115005    0.0004351
o     4.6309183    2.7229385    2.8997533  0.00   -0.0208757   -0.0505363   -0.0657940
o     4.0822906    0.4629039    2.3807874  0.00    0.0302902   -0.0213283   -0.0431140
h     3.1521142    0.4064009    2.8125435  0.00   -0.0307083    0.0048609    0.0007353
    27
 Energy =       0.3518509694
c    -1.3838623    2.7233063   -0.3560026  0.00   -0.0183053    0.0167422    0.0010982
c    -1.3255441    1.3555704   -0.2091627  0.00   -0.0316515   -0.0143687    0.0008246
c    -0.0950261    0.7637345   -0.1542130  0.00   -0.0324537   -0.0514386   -0.0010866
c    -0.2305468    3.4705499   -0.4531225  0.00   -0.0074114    0.0271661    0.0011836
c     1.0127892    2.8678540   -0.4125880  0.00    0.1121450    0.1636766    0.0787851
c     1.0561507    1.4773681   -0.2376705  0.00    0.0423501    0.0527133    0.0006055
n     0.1957028   -0.6068663    0.0380053  0.00    0.0472304    0.0252988   -0.0000156
c     2.1228135    0.5909674   -0.1336061  0.00    0.0583314   -0.0294498   -0.0015221
c     1.6110600   -0.6622434    0.0126578  0.00   -0.0280069   -0.0332928    0.0019056
h    -0.4762988   -1.3918768    0.1560374  0.00    0.0069247    0.0080174   -0.0001835
c     3.5985549    0.9166549   -0.2737756  0.00   -0.0032546    0.0034635    0.0252490
c     4.0659296    2.1376604    0.5611462  0.00    0.0115084   -0.0273455   -0.0443973
h     3.8016431    1.1245767   -1.3496123  0.00    0.0017033    0.0003009   -0.0036468
h     4.2090415    0.0228205   -0.0084339  0.00   -0.0004680   -0.0013501    0.0015092
c     4.1704903    1.7766302    2.0482566  0.00    0.0207839    0.0807229    0.1079549