    24
 Energy =       0.1402942711
c     0.0448833    2.3534058   -1.3813971  0.00   -0.0492504    0.0743837   -0.0493006
c     0.1418476    2.9248573   -0.1206726  0.00   -0.0488553    0.0972414   -0.0125499
c     0.7555652    2.2402731    0.9181560  0.00   -0.0006029    0.0526743    0.0794006
c     0.5800579    1.0803682   -1.5985351  0.00   -0.0066998   -0.0260226   -0.0654514
c     1.2047783    0.3610782   -0.5608861  0.00    0.0893535   -0.0847718    0.0468704
c     1.2772621    0.9610456    0.7017654  0.00    0.0248652   -0.0316586    0.0380960
o    -0.3596449    4.1638607    0.1435223  0.00   -0.0053270   -0.0143119   -0.0392047
h    -0.7857423    4.5034896   -0.6604687  0.00    0.0397899   -0.0560607    0.0425256
h     1.7275121    0.4624698    1.5506282  0.00   -0.0074596    0.0125675    0.0060299
h     0.4997167    0.6426498   -2.5929302  0.00   -0.0014121   -0.0096259   -0.0020993
h    -0.4370006    2.8749235   -2.2021886  0.00   -0.0003934   -0.0021503   -0.0018785
h     0.8245662    2.6993933    1.9006814  0.00    0.0029975   -0.0023924    0.0036877
c     1.7669373   -1.0073413   -0.8964724  0.00   -0.0076822   -0.0439218   -0.0569202
c     0.8861134   -2.0194266   -1.6556448  0.00    0.0706354    0.1025930    0.0491797
h     2.1212937   -1.4658931    0.0371405  0.00   -0.0053764    0.0076440   -0.0120085
h     2.6645729   -0.8285312   -1.5058794  0.00   -0.0159755   -0.0044912    0.0037876
c     1.7481012   -3.2276699   -2.0845864  0.00   -0.0340257   -0.2898889   -0.2637776
o     1.5179317   -3.9787875   -3.0189800  0.00    0.0596649    0.1802818    0.2201758
o     2.8094516   -3.3865268   -1.2478409  0.00   -0.0545943    0.0628884    0.0185706
h     2.6387698   -4.2373642   -0.7696890  0.00   -0.0113740    0.0359534   -0.0109344
n    -0.2697763   -2.5678537   -0.8742070  0.00   -0.0685534   -0.0413007    0.0086805
h     0.4960411   -1.5757973   -2.5789902  0.00   -0.0063962   -0.0031059    0.0208380
h    -0.1377783   -2.3090138    0.1103184  0.00    0.0010670    0.0017071   -0.0363624
h    -1.1177682   -2.0693246   -1.1533357  0.00    0.0356050   -0.0182316    0.0126454
    24
 Energy =       0.1037452409
c    -0.0235159    2.3106122   -1.3413095  0.00   -0.0298316    0.0461932   -0.0298735
c     0.0525865    2.8617746   -0.0833498  0.00   -0.0289692    0.0592079   -0.0086779
c     0.6753996    2.1803057    0.9324229  0.00   -0.0001325    0.0328538    0.0480771
c     0.5282568    1.0652762   -1.5763186  0.00   -0.0043889   -0.0161517   -0.0393756
c     1.1525155    0.3542920   -0.5562118  0.00    0.0527460   -0.0502374    0.0294241
c     1.2197731    0.9312160    0.7007463  0.00    0.0151262   -0.0195014    0.0229222
o    -0.4934175    4.0926953    0.2014731  0.00   -0.0035666   -0.0087904   -0.0218854
h    -0.9157232    4.4820044   -0.6028466  0.00    0.0240118   -0.0340073    0.0246676
h     1.7017838    0.4258738    1.5304788  0.00   -0.0040948    0.0071694    0.0038374
h     0.4699892    0.6523741   -2.5808296  0.00   -0.0009449   -0.0058674   -0.0016988
h    -0.5121817    2.8403073   -2.1525258  0.00   -0.0002946   -0.0012495   -0.0011698
h     0.7318331    2.6295804    1.9195785  0.00    0.0017855   -0.0013009    0.0023553
c     1.7995097   -0.9812840   -0.8750965  0.00   -0.0047582   -0.0296495   -0.0334044
c     0.9729139   -2.0024068   -1.6874643  0.00    0.0442910    0.0610294    0.0283963
h     2.1262149   -1.4581050    0.0666216  0.00   -0.0030941    0.0044018   -0.0068961
h     2.7275540   -0.7599149   -1.4367981  0.00   -0.0077105   -0.0024898    0.0014236
c     1.8548722   -3.1923795   -2.0806827  0.00   -0.0224075   -0.1783798   -0.1595422
o     1.5963853   -3.9663674   -3.0734662  0.00    0.0360502    0.1113446    0.1345083
o     2.9682048   -3.3689741   -1.2997576  0.00   -0.0223175    0.0566188   -0.0004430
h     2.7440967   -4.1485171   -0.6965084  0.00   -0.0150107    0.0068166    0.0040600
n    -0.2240731   -2.5135396   -0.9576478  0.00   -0.0421991   -0.0281356    0.0059382
h     0.6490955   -1.5625413   -2.6471249  0.00   -0.0042412   -0.0020373    0.0102957
h    -0.1500127   -2.2812648    0.0496819  0.00    0.0002952    0.0017101   -0.0188787
h    -1.0543692   -1.9967322   -1.2935571  0.00    0.0196560   -0.0095476    0.0059397
    24
 Energy =       0.0964863495
c    -0.0795245    2.2850773   -1.3157845  0.00   -0.0223912    0.0350256   -0.0224411
c    -0.0184846    2.8203346   -0.0546319  0.00   -0.0216308    0.0446237   -0.0066606
c     0.6086580    2.1369170    0.9495555  0.00   -0.0000297    0.0251776    0.0362256
c     0.4902779    1.0573263   -1.5655307  0.00   -0.0033283   -0.0123535   -0.0294901
c     1.1191207    0.3485501   -0.5561978  0.00    0.0391066   -0.0373034    0.0224292
c     1.1736165    0.9066736    0.7039881  0.00    0.0114153   -0.0147201    0.0172867
o    -0.5858508    4.0444533    0.2439571  0.00   -0.0025943   -0.0067187   -0.0152923
h    -0.9927195    4.4643496   -0.5612273  0.00    0.0179481   -0.0252588    0.0178621
h     1.6700003    0.3981662    1.5241639  0.00   -0.0029398    0.0052252    0.0029583
h     0.4477041    0.6605213   -2.5767421  0.00   -0.0007244   -0.0045004   -0.0014545
h    -0.5722269    2.8203258   -2.1207281  0.00   -0.0002012   -0.0008820   -0.0008353
h     0.6544362    2.5754515    1.9419028  0.00    0.0013750   -0.0008955    0.0019353
c     1.8181621   -0.9595274   -0.8797888  0.00   -0.0035617   -0.0230970   -0.0246730
c     1.0288473   -1.9961041   -1.7139051  0.00    0.0330545    0.0455271    0.0208275
h     2.1492623   -1.4411502    0.0602059  0.00   -0.0023893    0.0030549   -0.0051485
h     2.7481161   -0.7011214   -1.4271717  0.00   -0.0051155   -0.0017017    0.0008896
c     1.9398449   -3.1632216   -2.1016386  0.00   -0.0178735   -0.1351425   -0.1201383
o     1.6782442   -3.9620355   -3.1066275  0.00    0.0271603    0.0834638    0.1016112
o     3.0796801   -3.3237755   -1.3468577  0.00   -0.0070801    0.0618216   -0.0192229
h     2.8210066   -3.9897640   -0.6087076  0.00   -0.0197472   -0.0127857    0.0213622
n    -0.1702528   -2.5183227   -1.0029395  0.00   -0.0316702   -0.0214459    0.0041028
h     0.7180991   -1.5556591   -2.6802821  0.00   -0.0030793   -0.0015800    0.0075426
h    -0.1206641   -2.2956101    0.0110128  0.00   -0.0000132    0.0014208   -0.0137901
h    -1.0076616   -2.0175698   -1.3565171  0.00    0.0143101   -0.0069550    0.0041137
    24
 Energy =       0.0941405845
c    -0.1513349    2.2602503   -1.3539131  0.00   -0.0203024    0.0318002   -0.0203648
c    -0.1158608    2.8006301   -0.0948795  0.00   -0.0195842    0.0403767   -0.0061927
c     0.5091982    2.1312546    0.9183012  0.00   -0.0001364    0.0231841    0.0329272
c     0.4459316    1.0453319   -1.5939741  0.00   -0.0029927   -0.0111948   -0.0267167
c     1.0812459    0.3573353   -0.5776772  0.00    0.0345672   -0.0330766    0.0197713
c     1.1052638    0.9157328    0.6817853  0.00    0.0102936   -0.0131607    0.0157761
o    -0.7058710    4.0194263    0.1899614  0.00   -0.0011470   -0.0075295   -0.0091350
h    -1.0452543    4.4656297   -0.6381245  0.00    0.0148754   -0.0208848    0.0119085
h     1.6081425    0.4212236    1.5069840  0.00   -0.0025606    0.0046591    0.0027989
h     0.4274103    0.6431789   -2.6046648  0.00   -0.0005735   -0.0043637   -0.0016373
h    -0.6458128    2.7834077   -2.1657823  0.00   -0.0002346   -0.0007336   -0.0008298
h     0.5336670    2.5734259    1.9098538  0.00    0.0012246   -0.0006653    0.0019540
c     1.8384832   -0.9183088   -0.8958405  0.00   -0.0026974   -0.0196966   -0.0231881
c     1.0682867   -2.0164635   -1.6709208  0.00    0.0312028    0.0420653    0.0178476
h     2.2413269   -1.3582304    0.0410365  0.00   -0.0005790    0.0009326   -0.0022306
h     2.7305968   -0.6218971   -1.4909682  0.00   -0.0025863   -0.0001164   -0.0001517
c     2.0286316   -3.1409439   -2.0676236  0.00   -0.0178277   -0.1222112   -0.1086484
o     1.7945599   -3.9573216   -3.0756451  0.00    0.0248775    0.0747348    0.0910841
o     3.1955332   -3.2441031   -1.3372140  0.00   -0.0030465    0.0562892   -0.0175887
h     2.9797597   -3.9007717   -0.5783843  0.00   -0.0182254   -0.0127765    0.0206662
n    -0.0720855   -2.5817344   -0.8952395  0.00   -0.0293645   -0.0247077    0.0062360
h     0.6908941   -1.6114514   -2.6335645  0.00   -0.0039693    0.0000512    0.0045547
h     0.0106746   -2.3311960    0.1118700  0.00    0.0001550    0.0013260   -0.0107370
h    -0.9556951   -2.1401202   -1.2258681  0.00    0.0086315   -0.0043017    0.0018962
    24
 Energy =       0.0942227187
c    -0.1879874    2.2488184   -1.3295991  0.00   -0.0189745    0.0296066   -0.0191996
c    -0.1674186    2.7833547   -0.0687175  0.00   -0.0183609    0.0377159   -0.0058846
c     0.4371217    2.1053622    0.9499888  0.00    0.0000007    0.0215691    0.0310938
c     0.4115566    1.0360128   -1.5683660  0.00   -0.0028479   -0.0104400   -0.0250356
c     1.0338690    0.3436046   -0.5482095  0.00    0.0321661   -0.0307481    0.0187655
c     1.0374058    0.8930130    0.7146585  0.00    0.0096552   -0.0121957    0.0149740
o    -0.7451056    4.0104927    0.2095907  0.00    0.0009666   -0.0111372   -0.0009667
h    -0.9916322    4.5021811   -0.6334217  0.00    0.0117960   -0.0150599    0.0036629
h     1.5322362    0.3952836    1.5429628  0.00   -0.0023765    0.0043633    0.0026745
h     0.4107800    0.6438996   -2.5828797  0.00   -0.0005434   -0.0041325   -0.0017552
h    -0.6687787    2.7786910   -2.1454777  0.00   -0.0002716   -0.0006865   -0.0009291
h     0.4495952    2.5431372    1.9436997  0.00    0.0011659   -0.0006071    0.0019229
c     1.8190607   -0.9162421   -0.8625630  0.00   -0.0030002   -0.0169368   -0.0207861
c     1.0993543   -2.0122502   -1.6917613  0.00    0.0291500    0.0399780    0.0148287
h     2.1943779   -1.3714040    0.0789617  0.00   -0.0004435    0.0010002   -0.0014311
h     2.7293176   -0.5906787   -1.4166558  0.00   -0.0012308    0.0002965   -0.0008131
c     2.1030756   -3.0925485   -2.1100128  0.00   -0.0191344   -0.1147093   -0.1031598
o     1.8882189   -3.9152832   -3.1231418  0.00    0.0236944    0.0696862    0.0850006
o     3.3003517   -3.1393027   -1.4170644  0.00    0.0013224    0.0531121   -0.0172310
h     3.1385129   -3.8007377   -0.6490979  0.00   -0.0175065   -0.0135937    0.0211615
n    -0.0389817   -2.6347406   -0.9554281  0.00   -0.0291718   -0.0247823    0.0056667
h     0.7296293   -1.5875106   -2.6488860  0.00   -0.0034809    0.0001295    0.0038771
h     0.0138478   -2.4163366    0.0623932  0.00   -0.0001420    0.0014931   -0.0083619
h    -0.9307158   -2.2125305   -1.2914653  0.00    0.0075678   -0.0039216    0.0019257
    24
 Energy =       0.0930971458
c    -0.2235188    2.2338582   -1.3202542  0.00   -0.0183395    0.0286149   -0.0186921
c    -0.2107620    2.7611268   -0.0563622  0.00   -0.0174428    0.0360037   -0.0057128
c     0.4183396    2.0934887    0.9541762  0.00    0.0000845    0.0207734    0.0302359
c     0.3997711    1.0352236   -1.5679171  0.00   -0.0026841   -0.0103198   -0.0243815
c     1.0398393    0.3503315   -0.5543135  0.00    0.0312033   -0.0299800    0.0182375
c     1.0416885    0.8948232    0.7101272  0.00    0.0095157   -0.0121211    0.0145263
o    -0.8294406    3.9665943    0.2356635  0.00    0.0018987   -0.0120114    0.0029272
h    -1.1503854    4.4352071   -0.5989158  0.00    0.0095574   -0.0117287   -0.0002324
h     1.5518725    0.4032352    1.5329665  0.00   -0.0022098    0.0041123    0.0026789
h     0.4011597    0.6473296   -2.5840767  0.00   -0.0005187   -0.0040255   -0.0017168
h    -0.7213954    2.7562929   -2.1308542  0.00   -0.0003719   -0.0005631   -0.0010518
h     0.4251523    2.5258183    1.9503168  0.00    0.0011028   -0.0005304    0.0018893
c     1.8435816   -0.8953860   -0.8780286  0.00   -0.0028944   -0.0165067   -0.0201835
c     1.1270127   -2.0034711   -1.6936692  0.00    0.0283463    0.0388297    0.0143283
h     2.2409487   -1.3429000    0.0585014  0.00   -0.0003016    0.0008086   -0.0011911
h     2.7399136   -0.5563001   -1.4470559  0.00   -0.0009519    0.0003982   -0.0009122
c     2.1376323   -3.0727607   -2.1217395  0.00   -0.0185655   -0.1112170   -0.1000175
o     1.9210885   -3.8951350   -3.1374118  0.00    0.0229713    0.0675409    0.0823882
o     3.3414171   -3.1119408   -1.4391133  0.00    0.0014310    0.0515264   -0.0167310
h     3.1896941   -3.7711309   -0.6678577  0.00   -0.0169882   -0.0132399    0.0205800
n     0.0053375   -2.6356613   -0.9406796  0.00   -0.0283327   -0.0243551    0.0056690
h     0.7400458   -1.5857994   -2.6475402  0.00   -0.0034357    0.0002088    0.0036094
h     0.0653118   -2.4081275    0.0749984  0.00   -0.0001142    0.0014587   -0.0079862
h    -0.8966129   -2.2304314   -1.2714527  0.00    0.0070401   -0.0036770    0.0017390
    24
 Energy =       0.0927645652
c    -0.2834916    2.2090780   -1.2976313  0.00   -0.0175808    0.0274763   -0.0179451
c    -0.2825590    2.7258357   -0.0297141  0.00   -0.0163890    0.0340620   -0.0054801
c     0.3680167    2.0675459    0.9728415  0.00    0.0000595    0.0199791    0.0290218
c     0.3672441    1.0277987   -1.5557862  0.00   -0.0024698   -0.0101184   -0.0234548
c     1.0247571    0.3503266   -0.5491071  0.00    0.0297736   -0.0286586    0.0175262
c     1.0187353    0.8860205    0.7184656  0.00    0.0092807   -0.0119338    0.0138884
o    -0.9407182    3.9084967    0.2759549  0.00    0.0019182   -0.0113767    0.0044383
h    -1.3091385    4.3611465   -0.5493683  0.00    0.0081720   -0.0098993   -0.0016872
h     1.5447378    0.4011719    1.5355478  0.00   -0.0020013    0.0037983    0.0026469
h     0.3761154    0.6486950   -2.5751421  0.00   -0.0004688   -0.0039062   -0.0017062
h    -0.7966677    2.7252406   -2.1028437  0.00   -0.0004524   -0.0004280   -0.0011054
h     0.3658976    2.4920571    1.9723814  0.00    0.0010115   -0.0004117    0.0018647
c     1.8613628   -0.8710573   -0.8839334  0.00   -0.0026913   -0.0158753   -0.0192094
c     1.1716291   -1.9918327   -1.7060809  0.00    0.0270729    0.0378121    0.0132988
h     2.2747854   -1.3152859    0.0472770  0.00   -0.0001914    0.0006222   -0.0010663
h     2.7462436   -0.5023766   -1.4536360  0.00   -0.0005014    0.0006030   -0.0010768
c     2.2103705   -3.0244701   -2.1589275  0.00   -0.0187834   -0.1068023   -0.0964642
o     1.9992884   -3.8519620   -3.1750803  0.00    0.0220826    0.0646139    0.0788368
o     3.4347133   -3.0225530   -1.5084374  0.00    0.0036137    0.0499366   -0.0167056
h     3.3147236   -3.6599344   -0.7135232  0.00   -0.0164672   -0.0137614    0.0209888
n     0.0756341   -2.6642319   -0.9494289  0.00   -0.0272761   -0.0242986    0.0062246
h     0.7632206   -1.5742696   -2.6514300  0.00   -0.0033300    0.0004225    0.0032421
h     0.1354012   -2.4440119    0.0680641  0.00   -0.0002375    0.0013612   -0.0075640
h    -0.8426100   -2.2871426   -1.2709540  0.00    0.0058556   -0.0032169    0.0014877
    24
 Energy =       0.0934393108
c    -0.3446160    2.1825424   -1.2660398  0.00   -0.0172953    0.0270470   -0.0176163
c    -0.3522946    2.6885119    0.0059988  0.00   -0.0159121    0.0331913   -0.0053892
c     0.3152233    2.0363052    1.0011302  0.00    0.0000060    0.0197046    0.0285173
c     0.3283687    1.0163425   -1.5349048  0.00   -0.0023623   -0.0100495   -0.0230662
c     1.0008519    0.3434378   -0.5351478  0.00    0.0290435   -0.0279044    0.0173164
c     0.9883005    0.8697476    0.7361227  0.00    0.0092190   -0.0119132    0.0136018
o    -1.0396234    3.8520229    0.3243245  0.00    0.0017643   -0.0108444    0.0049941
h    -1.4366694    4.2950427   -0.4934743  0.00    0.0076021   -0.0091700   -0.0021659
h     1.5280230    0.3902429    1.5475279  0.00   -0.0018723    0.0036211    0.0026562
h     0.3436060    0.6476284   -2.5578542  0.00   -0.0004305   -0.0038682   -0.0017480
h    -0.8700049    2.6948486   -2.0659338  0.00   -0.0005082   -0.0003430   -0.0011392
h     0.3066449    2.4527771    2.0040520  0.00    0.0009607   -0.0003369    0.0018732
c     1.8693940   -0.8527105   -0.8823006  0.00   -0.0027295   -0.0152515   -0.0184444
c     1.2149125   -1.9795135   -1.7264901  0.00    0.0262614    0.0381258    0.0121149
h     2.2899886   -1.2999510    0.0440037  0.00   -0.0001384    0.0005557   -0.0010141
h     2.7471781   -0.4503161   -1.4416141  0.00    0.0000347    0.0008784   -0.0013402
c     2.2872520   -2.9642282   -2.2134639  0.00   -0.0203346   -0.1053917   -0.0959310
o     2.0824040   -3.7999116   -3.2256989  0.00    0.0216995    0.0633187    0.0772072
o     3.5359952   -2.9044400   -1.6068658  0.00    0.0075993    0.0504847   -0.0183532
h     3.4542437   -3.5011813   -0.7744026  0.00   -0.0164216   -0.0157065    0.0236291
n     0.1463663   -2.7055983   -0.9778395  0.00   -0.0272623   -0.0253087    0.0069711
h     0.7859277   -1.5549221   -2.6597393  0.00   -0.0032225    0.0007151    0.0029008
h     0.2037508   -2.5071274    0.0444944  0.00   -0.0005190    0.0013120   -0.0069527
h    -0.7875312   -2.3552647   -1.2863768  0.00    0.0048181   -0.0028663    0.0013784
    24
 Energy =       0.0915689028
c    -0.3061500    2.1985440   -1.3081514  0.00   -0.0166797    0.0260630   -0.0169757
c    -0.3152315    2.7140194   -0.0401749  0.00   -0.0153042    0.0319117   -0.0051877
c     0.3436060    2.0645589    0.9620439  0.00   -0.0000053    0.0189870    0.0274909
c     0.3605535    1.0267978   -1.5661456  0.00   -0.0022794   -0.0096527   -0.0222319
c     1.0248277    0.3582097   -0.5592528  0.00    0.0278963   -0.0267212    0.0168143
c     1.0102635    0.8925708    0.7080071  0.00    0.0089136   -0.0115154    0.0131056
o    -0.9943569    3.8860934    0.2660573  0.00    0.0016401   -0.0103222    0.0048870
h    -1.3835157    4.3276378   -0.5565685  0.00    0.0072825   -0.0087709   -0.0021351
h     1.5420811    0.4136962    1.5251328  0.00   -0.0017709    0.0034540    0.0025867
h     0.3763352    0.6474970   -2.5855320  0.00   -0.0003906   -0.0037619   -0.0017557
h    -0.8254372    2.7083224   -2.1136177  0.00   -0.0005106   -0.0003078   -0.0011230
h     0.3335251    2.4881623    1.9619225  0.00    0.0009220   -0.0003079    0.0018321
c     1.8772824   -0.8530284   -0.8921308  0.00   -0.0030286   -0.0137253   -0.0172268
c     1.1929167   -1.9904346   -1.6975511  0.00    0.0249677    0.0377898    0.0103433
h     2.3053528   -1.2844253    0.0389102  0.00   -0.0000959    0.0005499   -0.0007687
h     2.7531538   -0.4783322   -1.4738529  0.00    0.0005527    0.0010779   -0.0016350
c     2.2387596   -3.0228720   -2.1415496  0.00   -0.0218312   -0.1021216   -0.0940479
o     2.0323321   -3.8541723   -3.1600827  0.00    0.0209203    0.0609605    0.0742500
o     3.4647462   -3.0226693   -1.4844931  0.00    0.0117676    0.0498173   -0.0191303
h     3.3431929   -3.6599344   -0.6853183  0.00   -0.0161915   -0.0173284    0.0256295
n     0.1030850   -2.6605668   -0.9268358  0.00   -0.0271365   -0.0260175    0.0070452
h     0.7790637   -1.5852185   -2.6470368  0.00   -0.0029590    0.0010427    0.0023385
h     0.1614047   -2.4236999    0.0882951  0.00   -0.0008231    0.0014319   -0.0054083
h    -0.8200991   -2.2964707   -1.2525669  0.00    0.0041436   -0.0025328    0.0013031
    24
 Energy =       0.0888268684
c    -0.2774384    2.2068244   -1.3531339  0.00   -0.0151996    0.0237333   -0.0154718
c    -0.2949568    2.7291515   -0.0888131  0.00   -0.0139194    0.0290359   -0.0047032
c     0.3582129    2.0862555    0.9199844  0.00    0.0000069    0.0172825    0.0250611
c     0.3919513    1.0359065   -1.6009412  0.00   -0.0020989   -0.0087432   -0.0202754
c     1.0501027    0.3753799   -0.5870902  0.00    0.0253377   -0.0242718    0.0154253
c     1.0272118    0.9150333    0.6764498  0.00    0.0081455   -0.0105189    0.0119503
o    -0.9771671    3.9034003    0.2062036  0.00    0.0014703   -0.0093405    0.0045099
h    -1.3694148    4.3378126   -0.6191295  0.00    0.0065988   -0.0079529   -0.0019908
h     1.5530132    0.4389200    1.4992539  0.00   -0.0015875    0.0031234    0.0023825
h     0.4133076    0.6480498   -2.6172227  0.00   -0.0003310   -0.0034732   -0.0016731
h    -0.7927228    2.7116581   -2.1641990  0.00   -0.0004824   -0.0002631   -0.0010512
h     0.3410393    2.5150348    1.9174537  0.00    0.0008420   -0.0002667    0.0017073
c     1.8945147   -0.8449197   -0.9040522  0.00   -0.0031521   -0.0112057   -0.0152175
c     1.1832275   -1.9974860   -1.6635874  0.00    0.0223171    0.0354489    0.0077437
h     2.3360796   -1.2553684    0.0311238  0.00    0.0000017    0.0004880   -0.0003259
h     2.7630805   -0.4945781   -1.5115925  0.00    0.0010290    0.0011962   -0.0018419
c     2.2028186   -3.0735196   -2.0600576  0.00   -0.0221935   -0.0936308   -0.0873375
o     2.0019224   -3.8979243   -3.0922017  0.00    0.0188875    0.0555373    0.0673443
o     3.3987145   -3.1319921   -1.3490676  0.00    0.0157025    0.0473395   -0.0193152
h     3.2425381   -3.8186875   -0.5965276  0.00   -0.0155158   -0.0188538    0.0270189
n     0.0777094   -2.6090907   -0.8675231  0.00   -0.0254502   -0.0259446    0.0060609
h     0.7812611   -1.6182173   -2.6298941  0.00   -0.0025419    0.0013122    0.0015524
h     0.1300215   -2.3182605    0.1358476  0.00   -0.0010537    0.0018632   -0.0024151
h    -0.8373354   -2.2490969   -1.2217754  0.00    0.0031870   -0.0018952    0.0008622
    24
 Energy =       0.0856695215
c    -0.2557116    2.2093815   -1.3976328  0.00   -0.0130141    0.0203130   -0.0132790
c    -0.2888004    2.7360468   -0.1366032  0.00   -0.0118654    0.0248384   -0.0039656
c     0.3588777    2.1017814    0.8791263  0.00    0.0000323    0.0148150    0.0214964
c     0.4231081    1.0440199   -1.6351761  0.00   -0.0018243   -0.0074763   -0.0174246
c     1.0746007    0.3934804   -0.6137659  0.00    0.0216081   -0.0208335    0.0132508
c     1.0367184    0.9358354    0.6463716  0.00    0.0070118   -0.0090668    0.0102704
o    -0.9820218    3.9082773    0.1470848  0.00    0.0012351   -0.0079199    0.0040047
h    -1.3829366    4.3325672   -0.6799141  0.00    0.0055553   -0.0067186   -0.0018100
h     1.5563209    0.4634036    1.4754532  0.00   -0.0013304    0.0026520    0.0020772
h     0.4554795    0.6501031   -2.6489036  0.00   -0.0002604   -0.0030341   -0.0015298
h    -0.7668537    2.7081524   -2.2149417  0.00   -0.0004336   -0.0002076   -0.0009419
h     0.3289872    2.5338887    1.8747345  0.00    0.0007204   -0.0001916    0.0015421
c     1.9171038   -0.8319843   -0.9122471  0.00   -0.0029275   -0.0083545   -0.0127587
c     1.1842324   -2.0004314   -1.6259329  0.00    0.0185101    0.0312275    0.0048184
h     2.3722143   -1.2201985    0.0269575  0.00    0.0001077    0.0003893    0.0001264
h     2.7768393   -0.5026605   -1.5433535  0.00    0.0012923    0.0012086   -0.0018543
c     2.1803341   -3.1122347   -1.9742772  0.00   -0.0212268   -0.0807311   -0.0758715
o     1.9970002   -3.9228806   -3.0308060  0.00    0.0156964    0.0475336    0.0567925
o     3.3389613   -3.2259444   -1.2075856  0.00    0.0192360    0.0449600   -0.0198047
h     3.1597277   -3.9774407   -0.5231008  0.00   -0.0149394   -0.0214480    0.0284846
n     0.0678106   -2.5566551   -0.8068491  0.00   -0.0206877   -0.0261548    0.0034794
h     0.7920740   -1.6490910   -2.6077832  0.00   -0.0020699    0.0014135    0.0007572
h     0.0969036   -2.1914296    0.1765996  0.00   -0.0010425    0.0032570    0.0029761
h    -0.8432782   -2.2317017   -1.2079467  0.00    0.0006164   -0.0004710   -0.0008361
    24
 Energy =       0.0837990533
c    -0.2691764    2.1924188   -1.4442638  0.00   -0.0111971    0.0174617   -0.0115195
c    -0.3279624    2.7296513   -0.1894648  0.00   -0.0100464    0.0212099   -0.0032775
c     0.3168572    2.1159620    0.8389945  0.00    0.0000210    0.0128209    0.0185906
c     0.4312679    1.0377229   -1.6628430  0.00   -0.0015488   -0.0065420   -0.0151506
c     1.0786055    0.4085463   -0.6278724  0.00    0.0183659   -0.0181274    0.0112666
c     1.0159223    0.9607812    0.6256831  0.00    0.0061330   -0.0079597    0.0089581
o    -1.0457829    3.8935594    0.0740051  0.00    0.0008793   -0.0063829    0.0038599
h    -1.4568397    4.2982022   -0.7585747  0.00    0.0044849   -0.0054703   -0.0018468
h     1.5320871    0.5029567    1.4654683  0.00   -0.0010386    0.0021766    0.0019143
h     0.4828584    0.6341745   -2.6720141  0.00   -0.0002124   -0.0027020   -0.0015482
h    -0.7778367    2.6757848   -2.2723852  0.00   -0.0004609   -0.0000912   -0.0009545
h     0.2665067    2.5563816    1.8301787  0.00    0.0005921   -0.0000404    0.0015508
c     1.9396261   -0.8106949   -0.8970738  0.00   -0.0023604   -0.0066742   -0.0110145
c     1.2226552   -2.0010673   -1.5906799  0.00    0.0147689    0.0273966    0.0036128
h     2.3903559   -1.1771015    0.0537665  0.00    0.0002381    0.0002136    0.0004074
h     2.8007035   -0.4855626   -1.5275192  0.00    0.0011306    0.0010255   -0.0015881
c     2.2269089   -3.1213224   -1.8788393  0.00   -0.0197785   -0.0689117   -0.0641628
o     2.1037666   -3.9268301   -2.9583184  0.00    0.0129140    0.0393422    0.0460984
o     3.3414104   -3.2482847   -1.0488325  0.00    0.0219128    0.0432048   -0.0186702
h     3.1588989   -4.0557448   -0.4319605  0.00   -0.0148417   -0.0230457    0.0279839
n     0.0920156   -2.5327623   -0.7772179  0.00   -0.0048833   -0.0331394   -0.0019757
h     0.8527384   -1.6774886   -2.5915157  0.00   -0.0018903    0.0014603   -0.0001559
h     0.0388648   -2.0623296    0.1695280  0.00   -0.0010754    0.0096557    0.0164236
h    -0.8167596   -2.3126677   -1.2687410  0.00   -0.0121067    0.0031191   -0.0088022
    24
 Energy =       0.0812221783
c    -0.2047360    2.2246341   -1.4323618  0.00   -0.0093764    0.0144316   -0.0097059
c    -0.2686716    2.7431573   -0.1711629  0.00   -0.0083631    0.0174976   -0.0027827
c     0.3579241    2.1058164    0.8527570  0.00    0.0001372    0.0105192    0.0155491
c     0.4836401    1.0671895   -1.6620151  0.00   -0.0014835   -0.0052272   -0.0127425
c     1.1112293    0.4145910   -0.6314598  0.00    0.0149475   -0.0147347    0.0094126
c     1.0437370    0.9464416    0.6289103  0.00    0.0051945   -0.0066384    0.0075750
o    -0.9715828    3.9151518    0.1027703  0.00    0.0007327   -0.0051919    0.0033952
h    -1.3743289    4.3384267   -0.7251113  0.00    0.0035485   -0.0043265   -0.0017903
h     1.5435932    0.4656082    1.4661513  0.00   -0.0006680    0.0016216    0.0019041
h     0.5396382    0.6785546   -2.6766674  0.00   -0.0002080   -0.0021415   -0.0014414
h    -0.6988798    2.7277484   -2.2576845  0.00   -0.0005223    0.0000545   -0.0010400
h     0.3032913    2.5317682    1.8499292  0.00    0.0005159   -0.0000138    0.0014300
c     1.9422420   -0.8241215   -0.9080028  0.00   -0.0013503   -0.0050390   -0.0082858
c     1.1734481   -1.9936025   -1.5822242  0.00    0.0116836    0.0229767    0.0022447
h     2.4027272   -1.2004852    0.0345061  0.00    0.0003613    0.0002429    0.0004812
h     2.7983547   -0.5243112   -1.5575290  0.00    0.0014033    0.0009442   -0.0015209
c     2.1341970   -3.1397565   -1.9066720  0.00   -0.0173062   -0.0556339   -0.0516480
o     1.9877352   -3.8819325   -3.0388954  0.00    0.0095418    0.0308125    0.0336725
o     3.2365692   -3.3520133   -1.0769242  0.00    0.0223935    0.0409078   -0.0171914
h     3.0525645   -4.2144979   -0.5398955  0.00   -0.0132482   -0.0250199    0.0277543
n     0.0549337   -2.4944073   -0.7359949  0.00   -0.0047152   -0.0279028   -0.0015639
h     0.7810849   -1.6566571   -2.5705134  0.00   -0.0018265    0.0010249   -0.0005359
h     0.0299494   -2.0151210    0.2057020  0.00   -0.0010605    0.0082303    0.0142440
h    -0.8609686   -2.2678968   -1.2081041  0.00   -0.0103315    0.0026059   -0.0074139
    24
 Energy =       0.0797739168
c    -0.1380574    2.2610605   -1.3966857  0.00   -0.0078113    0.0117662   -0.0082930
c    -0.2085188    2.7513860   -0.1254988  0.00   -0.0069039    0.0142481   -0.0023618
c     0.3960370    2.0812467    0.8897325  0.00    0.0002949    0.0084346    0.0130392
c     0.5355303    1.1008054   -1.6450175  0.00   -0.0014853   -0.0040182   -0.0108046
c     1.1392276    0.4152081   -0.6231200  0.00    0.0120166   -0.0118954    0.0077009
c     1.0658395    0.9175976    0.6476181  0.00    0.0044180   -0.0055158    0.0065430
o    -0.8942798    3.9304333    0.1670042  0.00    0.0006225   -0.0041055    0.0032127
h    -1.2860456    4.3791119   -0.6534085  0.00    0.0025900   -0.0031499   -0.0019550
h     1.5466137    0.4067916    1.4789206  0.00   -0.0002526    0.0010271    0.0020776
h     0.5973825    0.7351820   -2.6678954  0.00   -0.0002208   -0.0016576   -0.0015216
h    -0.6144067    2.7913156   -2.2158790  0.00   -0.0006637    0.0002839   -0.0013013
h     0.3362840    2.4853402    1.8957402  0.00    0.0004564    0.0000393    0.0014807
c     1.9389412   -0.8406655   -0.9163003  0.00   -0.0005159   -0.0037630   -0.0058725
c     1.1229993   -1.9802766   -1.5870322  0.00    0.0089710    0.0192244    0.0020376
h     2.4042357   -1.2383816    0.0153451  0.00    0.0005458    0.0001115    0.0006143
h     2.7920060   -0.5584477   -1.5773829  0.00    0.0013957    0.0007979   -0.0013028
c     2.0477242   -3.1341524   -1.9790039  0.00   -0.0146387   -0.0430761   -0.0386874
o     1.8832759   -3.7875016   -3.1737781  0.00    0.0063637    0.0220562    0.0200985
o     3.1433233   -3.4346245   -1.1665334  0.00    0.0221780    0.0362269   -0.0135208
h     2.9491913   -4.3322263   -0.6986487  0.00   -0.0112207   -0.0242410    0.0253464
n     0.0318267   -2.4790504   -0.7066995  0.00   -0.0038761   -0.0231632   -0.0004363
h     0.6965177   -1.6119089   -2.5510417  0.00   -0.0020949    0.0009986   -0.0016241
h     0.0084775   -1.9729170    0.2192448  0.00   -0.0006834    0.0069450    0.0122777
h    -0.8964335   -2.2910413   -1.1701719  0.00   -0.0094854    0.0024261   -0.0067473
    24
 Energy =       0.0795146711
c    -0.1266475    2.2711688   -1.3706372  0.00   -0.0062710    0.0093280   -0.0069830
c    -0.2160382    2.7358288   -0.0916841  0.00   -0.0055477    0.0114936   -0.0017667