    27
 Energy =       0.3268129645
c    -1.4235396    2.6054793   -0.0667700  0.00   -0.0461018    0.0385773    0.0022386
c    -1.3072796    1.2134697   -0.1072300  0.00   -0.0852896   -0.0325546    0.0017589
c    -0.0178900    0.6711998   -0.1697000  0.00   -0.0893188   -0.1887972   -0.0001702
c    -0.2940599    3.4190890   -0.0891300  0.00   -0.0218558    0.0690130    0.0017577
c     0.9872197    2.8590292   -0.1560400  0.00    0.0322355    0.0674035   -0.0299770
c     1.1340797    1.4562096   -0.1970299  0.00    0.0559138    0.0528120   -0.0013045
n     0.3879399   -0.6395298   -0.2140799  0.00    0.1424980    0.1106411   -0.0038331
c     2.2666594    0.5727398   -0.2659299  0.00    0.1577600   -0.0868044   -0.0072947
c     1.7555995   -0.7123598   -0.2706899  0.00   -0.0966019   -0.0962586   -0.0015286
h    -0.2400399   -1.4313496   -0.2047299  0.00    0.0370502    0.0479615   -0.0003222
c     3.7030089    1.0223397   -0.3320099  0.00   -0.0141638    0.0427969   -0.0209512
c     4.2197688    1.4064496   -1.7267995  0.00    0.1771802    0.0600141    0.0897977
h     4.3261788    0.2093419    0.0639454  0.00   -0.0098031    0.0109012   -0.0020234
h     3.8370289    1.8640295    0.3610799  0.00   -0.0046737   -0.0108777   -0.0101982
c     3.6319390    2.7753292   -2.1168494  0.00   -0.3817520    0.0895349   -0.0813919
n     3.8331589    0.4251339   -2.8019292  0.00   -0.0563863   -0.0192782   -0.0858611
h     5.3112285    1.5100896   -1.7329195  0.00   -0.0038674    0.1855391   -0.0458500
h     3.3525690   -0.3535799   -2.3395993  0.00    0.0049798    0.0408541    0.0147917
h     3.1006291    0.8621858   -3.3722390  0.00    0.0313601    0.0130987    0.0423914
h    -2.4108593    3.0588691   -0.0157800  0.00   -0.0007584    0.0001401    0.0003725
h    -2.1896094    0.5822398   -0.0890100  0.00   -0.0035497    0.0037710    0.0002805
h    -0.4052699    4.5000487   -0.0535400  0.00    0.0003174    0.0001470    0.0013617
h     1.8590495    3.5066790   -0.1715100  0.00    0.0068499   -0.0028509   -0.0196255
h     2.2327294   -1.6813195   -0.3062999  0.00   -0.0405272   -0.0111917    0.0020220
o     2.4489393    3.0163391   -2.2910193  0.00    0.2591379   -0.0649236    0.0900256
o     4.6103187    3.7115289   -2.2467394  0.00    0.0382707   -0.0760929    0.0171298
h     5.4563884    3.2240991   -2.0701494  0.00   -0.0889042   -0.2435757    0.0464034
    27
 Energy =       0.2724893527
c    -1.3598053    2.6867995   -0.0195765  0.00   -0.0329535    0.0270386    0.0015555
c    -1.2723521    1.3032519   -0.0633830  0.00   -0.0608596   -0.0237159    0.0011430
c    -0.0100963    0.7374133   -0.1197641  0.00   -0.0613108   -0.1315937    0.0018335
c    -0.2173469    3.4703000   -0.0464500  0.00   -0.0160660    0.0490416    0.0013585
c     1.0414418    2.8830022   -0.1143713  0.00    0.0226422    0.0484097   -0.0205765
c     1.1411954    1.4914809   -0.1433730  0.00    0.0391733    0.0374890   -0.0007100
n     0.3383358   -0.6002024   -0.2170807  0.00    0.0999107    0.0756944   -0.0057921
c     2.2389829    0.6092249   -0.2168993  0.00    0.1114127   -0.0615873   -0.0043057
c     1.7254347   -0.6644718   -0.2242260  0.00   -0.0673238   -0.0673153    0.0002286
h    -0.3138815   -1.3862577   -0.2484789  0.00    0.0251191    0.0328948   -0.0010048
c     3.6873369    1.0157051   -0.3298812  0.00   -0.0102642    0.0291825   -0.0139671
c     4.1671715    1.3328770   -1.7617410  0.00    0.1293210    0.0469879    0.0644583
h     4.3027132    0.1954826    0.0751049  0.00   -0.0070259    0.0075486   -0.0014681
h     3.8693688    1.8847731    0.3266318  0.00   -0.0029007   -0.0060046   -0.0061348
c     3.6201399    2.6900816   -2.2143792  0.00   -0.2713566    0.0629182   -0.0581889
n     3.7830472    0.2903979   -2.7689067  0.00   -0.0358044   -0.0190843   -0.0609523
h     5.2601568    1.4287545   -1.7832671  0.00   -0.0032361    0.1390261   -0.0347138
h     3.2711933   -0.4624676   -2.2850248  0.00    0.0025665    0.0275548    0.0123824
h     3.0915354    0.7034326   -3.4212191  0.00    0.0181585    0.0133895    0.0261794
h    -2.3374533    3.1616759    0.0247243  0.00   -0.0008437    0.0001863    0.0002806
h    -2.1663553    0.6879070   -0.0605116  0.00   -0.0027562    0.0024085    0.0001459
h    -0.3038115    4.5542987   -0.0264710  0.00    0.0001612    0.0005503    0.0009782
h     1.9350875    3.5026072   -0.1692237  0.00    0.0069668   -0.0014503   -0.0153975
h     2.2346170   -1.6177891   -0.2764606  0.00   -0.0285069   -0.0081684    0.0014204
o     2.3879342    2.9444043   -2.3879985  0.00    0.1828745   -0.0464616    0.0650634
o     4.5985847    3.6289487   -2.4024583  0.00    0.0175831   -0.0452554    0.0052773
h     5.4527105    3.1821506   -2.1080134  0.00   -0.0546811   -0.1896839    0.0409067
    27
 Energy =       0.2468252100
c    -1.3666613    2.5716341    0.0481544  0.00   -0.0254269    0.0212178    0.0011014
c    -1.2555143    1.1962291   -0.0346831  0.00   -0.0468506   -0.0185140    0.0009301
c     0.0082478    0.6550515   -0.1119416  0.00   -0.0478478   -0.1002064    0.0022116
c    -0.2400092    3.3709517    0.0474257  0.00   -0.0120576    0.0381319    0.0007170
c     1.0207286    2.8062391   -0.0360782  0.00    0.0167853    0.0377902   -0.0152620
c     1.1362304    1.4280046   -0.1222145  0.00    0.0290715    0.0287730   -0.0007230
n     0.3741776   -0.6844305   -0.2594620  0.00    0.0756152    0.0571720   -0.0046149
c     2.2438450    0.5893490   -0.2438915  0.00    0.0862511   -0.0469584   -0.0022655
c     1.7733422   -0.6931105   -0.2944386  0.00   -0.0514388   -0.0515621    0.0006495
h    -0.2559924   -1.4954824   -0.3055803  0.00    0.0188269    0.0241918   -0.0010022
c     3.6846960    1.0323409   -0.3659565  0.00   -0.0091752    0.0219267   -0.0100954
c     4.1384611    1.4418299   -1.7899040  0.00    0.1015726    0.0385732    0.0481185
h     4.3273476    0.1991820   -0.0223266  0.00   -0.0042640    0.0039362   -0.0005658
h     3.8654812    1.8666585    0.3397413  0.00   -0.0023437   -0.0033724   -0.0033875
c     3.5946667    2.8191124   -2.1790169  0.00   -0.2075970    0.0482854   -0.0450640
n     3.7795808    0.4369866   -2.8390682  0.00   -0.0260631   -0.0139000   -0.0497082
h     5.2337375    1.5505552   -1.7951335  0.00   -0.0020325    0.1100974   -0.0269440
h     3.2869821   -0.3621088   -2.4017380  0.00    0.0003526    0.0182879    0.0105478
h     3.0843376    0.8615023   -3.4856336  0.00    0.0138585    0.0105268    0.0197840
h    -2.3518842    3.0293235    0.1064678  0.00   -0.0008587    0.0003899    0.0002271
h    -2.1378039    0.5641453   -0.0499743  0.00   -0.0023670    0.0015509    0.0000831
h    -0.3422913    4.4530054    0.1041243  0.00    0.0001183    0.0012655    0.0007616
h     1.9053909    3.4391696   -0.0557021  0.00    0.0056177   -0.0005677   -0.0110133
h     2.3337384   -1.6160162   -0.3988314  0.00   -0.0201798   -0.0086131    0.0008214
o     2.3333478    3.0758265   -2.3445630  0.00    0.1403444   -0.0351835    0.0489033
o     4.5539594    3.7877019   -2.3414253  0.00    0.0055023   -0.0280891    0.0020037
h     5.4377437    3.3301299   -2.1510484  0.00   -0.0354138   -0.1551498    0.0337857
    27
 Energy =       0.2333178703
c    -1.3830321    2.4742849    0.0958979  0.00   -0.0207016    0.0177347    0.0008860
c    -1.2513033    1.1079476   -0.0451083  0.00   -0.0373122   -0.0158693    0.0007954
c     0.0153441    0.5893485   -0.1384055  0.00   -0.0385746   -0.0776508    0.0032805
c    -0.2694749    3.2865985    0.1395987  0.00   -0.0090473    0.0313595    0.0003491
c     0.9947152    2.7428264    0.0433616  0.00    0.0129807    0.0316403   -0.0118155
c     1.1255274    1.3773043   -0.1103445  0.00    0.0226526    0.0228509   -0.0006632
n     0.3963223   -0.7433318   -0.3668133  0.00    0.0607016    0.0424723   -0.0050743
c     2.2419173    0.5744552   -0.2721947  0.00    0.0694196   -0.0365963   -0.0011648
c     1.8026873   -0.7118275   -0.3842251  0.00   -0.0413005   -0.0415882    0.0013536
h    -0.2179321   -1.5685634   -0.4643334  0.00    0.0136881    0.0170470   -0.0013565
c     3.6782537    1.0473006   -0.3771715  0.00   -0.0077552    0.0169411   -0.0075251
c     4.1317607    1.5264976   -1.7849431  0.00    0.0823210    0.0325608    0.0381123
h     4.3358924    0.2094766   -0.0692107  0.00   -0.0030881    0.0024403   -0.0002788
h     3.8472701    1.8540944    0.3653600  0.00   -0.0018535   -0.0019059   -0.0018954
c     3.5859509    2.9147850   -2.1305861  0.00   -0.1637532    0.0381432   -0.0366155
n     3.8095096    0.5521060   -2.8709395  0.00   -0.0198636   -0.0107064   -0.0415784
h     5.2287089    1.6515390   -1.7662784  0.00   -0.0008740    0.0900268   -0.0218189
h     3.3242133   -0.2776929   -2.4791010  0.00   -0.0008145    0.0126057    0.0088936
h     3.1257986    0.9855964   -3.5274881  0.00    0.0108226    0.0083547    0.0153141
h    -2.3749755    2.9157876    0.1650721  0.00   -0.0008439    0.0005440    0.0002022
h    -2.1236275    0.4632184   -0.0990871  0.00   -0.0024394    0.0004457   -0.0000197
h    -0.3859914    4.3646621    0.2435682  0.00    0.0001352    0.0023032    0.0006920
h     1.8714648    3.3865170    0.0653467  0.00    0.0049846    0.0003068   -0.0083463
h     2.3980589   -1.6086007   -0.5297512  0.00   -0.0153080   -0.0084091    0.0005088
o     2.3021591    3.1775094   -2.2563375  0.00    0.1105971   -0.0271354    0.0387476
o     4.5292623    3.9034005   -2.2870094  0.00    0.0026546   -0.0208136    0.0013027
h     5.4274059    3.4585411   -2.1415751  0.00   -0.0274283   -0.1271019    0.0277144
    27
 Energy =       0.2160833025
c    -1.3640948    2.4047854    0.2074110  0.00   -0.0129303    0.0107710    0.0002703
c    -1.2161551    1.0475014    0.0593773  0.00   -0.0237927   -0.0098688    0.0000734
c     0.0465409    0.5506718   -0.0794721  0.00   -0.0220879   -0.0463727    0.0006962
c    -0.2633593    3.2283690    0.2222189  0.00   -0.0059438    0.0195429    0.0001444
c     0.9990162    2.7039213    0.0809156  0.00    0.0091634    0.0189189   -0.0074447
c     1.1365064    1.3512325   -0.0914588  0.00    0.0139508    0.0147070   -0.0002360
n     0.4302979   -0.7937398   -0.2719763  0.00    0.0299779    0.0257171   -0.0002853
c     2.2503286    0.5823413   -0.2997964  0.00    0.0438712   -0.0226732    0.0001909
c     1.8434087   -0.7088540   -0.3957403  0.00   -0.0192467   -0.0232307   -0.0007206
h    -0.1722962   -1.6412366   -0.3055803  0.00    0.0062656    0.0073253   -0.0007162
c     3.6798766    1.0712388   -0.4510447  0.00   -0.0045134    0.0107115   -0.0042761
c     4.0826681    1.5717139   -1.8692876  0.00    0.0519772    0.0218403    0.0225930
h     4.3592036    0.2358670   -0.1770532  0.00   -0.0012980    0.0010265   -0.0000005
h     3.8704211    1.8704027    0.2964257  0.00   -0.0011535   -0.0010988   -0.0007978
c     3.5604196    2.9739665   -2.1830887  0.00   -0.1001441    0.0229074   -0.0234987
n     3.7451602    0.6069192   -2.9524264  0.00   -0.0110195   -0.0065492   -0.0252627
h     5.1835752    1.6880832   -1.8698144  0.00    0.0000091    0.0614539   -0.0143908
h     3.2348505   -0.2190196   -2.5794181  0.00   -0.0007467    0.0072588    0.0051928
h     3.0867755    1.0546668   -3.6306568  0.00    0.0061154    0.0060682    0.0087846
h    -2.3600371    2.8308519    0.3134292  0.00   -0.0013753    0.0004615    0.0001507
h    -2.0786846    0.3871148    0.0433599  0.00   -0.0023919   -0.0001869   -0.0001547
h    -0.3909780    4.3031705    0.3395212  0.00   -0.0001082    0.0014724    0.0005336
h     1.8676483    3.3573049    0.0868065  0.00    0.0033442    0.0000164   -0.0049263
h     2.4746938   -1.5760272   -0.5765976  0.00   -0.0081049   -0.0060393   -0.0003166
o     2.2488108    3.2535075   -2.2821278  0.00    0.0667033   -0.0159116    0.0251224
o     4.4982375    3.9735457   -2.3513409  0.00   -0.0011379   -0.0112365    0.0005160
h     5.4130513    3.5454817   -2.2652829  0.00   -0.0153832   -0.0870313    0.0187587
    27
 Energy =       0.2125090518
c    -1.3137116    2.4772877    0.2768510  0.00   -0.0119777    0.0090178    0.0002847
c    -1.1894134    1.1159743    0.1572468  0.00   -0.0209994   -0.0091133   -0.0000224
c     0.0598901    0.5979648   -0.0043766  0.00   -0.0189558   -0.0394764    0.0003887
c    -0.2011697    3.2843281    0.2408977  0.00   -0.0046802    0.0175192    0.0002070
c     1.0482945    2.7384708    0.0750593  0.00    0.0083622    0.0168714   -0.0060971
c     1.1591349    1.3809129   -0.0669439  0.00    0.0123924    0.0128786   -0.0001162
n     0.4153749   -0.7603380   -0.1610285  0.00    0.0245638    0.0213797    0.0000675
c     2.2526430    0.5920647   -0.2881423  0.00    0.0375821   -0.0188935    0.0005911
c     1.8265090   -0.6951850   -0.3379825  0.00   -0.0157551   -0.0203872   -0.0008073
h    -0.2018579   -1.6002746   -0.1468272  0.00    0.0041051    0.0046433   -0.0005293
c     3.6854871    1.0511286   -0.4995954  0.00   -0.0031239    0.0089362   -0.0030595
c     4.0458990    1.5087002   -1.9446657  0.00    0.0446298    0.0202654    0.0196051
h     4.3600497    0.2103669   -0.2290786  0.00   -0.0009876    0.0008668   -0.0000307
h     3.9165893    1.8657953    0.2212580  0.00   -0.0006841   -0.0000880    0.0001906
c     3.5439960    2.9142276   -2.2725914  0.00   -0.0856444    0.0198649   -0.0200191
n     3.6578546    0.5223720   -2.9915678  0.00   -0.0088485   -0.0060616   -0.0241211
h     5.1492416    1.6028067   -1.9858103  0.00    0.0009744    0.0534313   -0.0126483
h     3.1227844   -0.2751572   -2.5885581  0.00   -0.0015695    0.0046085    0.0046911
h     3.0055746    0.9705727   -3.6762475  0.00    0.0051249    0.0052421    0.0075042
h    -2.3003188    2.9202015    0.4011227  0.00   -0.0015899    0.0004105    0.0001617
h    -2.0612762    0.4670998    0.1839926  0.00   -0.0028897   -0.0008349   -0.0001198
h    -0.3098066    4.3637168    0.3351537  0.00    0.0000309    0.0017652    0.0004886
h     1.9266532    3.3794020    0.0364800  0.00    0.0037951    0.0007700   -0.0041965
h     2.4439610   -1.5723719   -0.5201302  0.00   -0.0068604   -0.0053475   -0.0003306
o     2.2282422    3.2079486   -2.3662652  0.00    0.0569910   -0.0135915    0.0213418
o     4.4898090    3.9063366   -2.4558015  0.00   -0.0008255   -0.0094702    0.0003810
h     5.4054515    3.4794288   -2.3751472  0.00   -0.0131602   -0.0752066    0.0161947
    27
 Energy =       0.2090531751
c    -1.2517775    2.5143172    0.3972144  0.00   -0.0104415    0.0069510    0.0002425
c    -1.1453830    1.1531047    0.2805923  0.00   -0.0176869   -0.0072871   -0.0000385
c     0.0901726    0.6219484    0.0777895  0.00   -0.0152711   -0.0318002    0.0001537
c    -0.1330337    3.3083046    0.3181151  0.00   -0.0039159    0.0145845    0.0002321
c     1.1029244    2.7487497    0.1096322  0.00    0.0074609    0.0134461   -0.0047466
c     1.1923183    1.3917108   -0.0302014  0.00    0.0101341    0.0105410    0.0000381
n     0.4227221   -0.7434622   -0.0786457  0.00    0.0180056    0.0173051    0.0005782
c     2.2658247    0.5938264   -0.2918211  0.00    0.0298683   -0.0153579    0.0009933
c     1.8283158   -0.6887035   -0.3165813  0.00   -0.0113928   -0.0163240   -0.0008492
h    -0.2029476   -1.5775320   -0.0315115  0.00    0.0026251    0.0030070   -0.0003280
c     3.6941443    1.0335806   -0.5754633  0.00   -0.0013327    0.0071447   -0.0017126
c     3.9904370    1.4744451   -2.0423265  0.00    0.0355577    0.0176923    0.0159514
h     4.3719732    0.1868166   -0.3305027  0.00   -0.0003131    0.0005854    0.0000074
h     3.9702163    1.8516042    0.1271368  0.00   -0.0001912    0.0005936    0.0010615
c     3.5045658    2.8886334   -2.3567495  0.00   -0.0673143    0.0155233   -0.0164398
n     3.5416587    0.4855412   -3.0621971  0.00   -0.0068636   -0.0056554   -0.0215881
h     5.0942212    1.5459444   -2.1356671  0.00    0.0023375    0.0437478   -0.0105518
h     2.9892027   -0.2892695   -2.6372096  0.00   -0.0018553    0.0027218    0.0034785
h     2.8876116    0.9433374   -3.7399419  0.00    0.0038721    0.0041367    0.0059291
h    -2.2291257    2.9680497    0.5540713  0.00   -0.0019421    0.0004576    0.0002074
h    -2.0221078    0.5130029    0.3427457  0.00   -0.0029704   -0.0009756   -0.0000571
h    -0.2268823    4.3890677    0.4103355  0.00    0.0000140    0.0015463    0.0004002
h     1.9865174    3.3797951    0.0347316  0.00    0.0037554    0.0009590   -0.0033223
h     2.4349190   -1.5682162   -0.5246414  0.00   -0.0050628   -0.0045100   -0.0003989
o     2.1821143    3.2034812   -2.3994332  0.00    0.0436716   -0.0103727    0.0173051
o     4.4542811    3.8748371   -2.5672334  0.00   -0.0007197   -0.0072232    0.0002254
h     5.3730028    3.4508658   -2.5149357  0.00   -0.0100291   -0.0614371    0.0132290
    27
 Energy =       0.2086398686
c    -1.1974294    2.4987158    0.5231966  0.00   -0.0101860    0.0065331    0.0002821
c    -1.0941832    1.1390415    0.3918977  0.00   -0.0170926   -0.0065657    0.0000568
c     0.1346282    0.6100193    0.1475867  0.00   -0.0145444   -0.0295579    0.0002217
c    -0.0813564    3.2930658    0.4184409  0.00   -0.0041056    0.0139318    0.0003144
c     1.1475868    2.7355010    0.1669181  0.00    0.0073629    0.0123333   -0.0043108
c     1.2318914    1.3808367    0.0093246  0.00    0.0091279    0.0099401    0.0002004
n     0.4616209   -0.7542736   -0.0333951  0.00    0.0155752    0.0162314    0.0008530
c     2.2947575    0.5878354   -0.3039011  0.00    0.0273631   -0.0149222    0.0013465
c     1.8581835   -0.6945401   -0.3258786  0.00   -0.0095965   -0.0149727   -0.0008228
h    -0.1616339   -1.5894727    0.0294198  0.00    0.0022683    0.0026652   -0.0002745
c     3.7081792    1.0323423   -0.6569963  0.00   -0.0001509    0.0069143   -0.0005085
c     3.9306761    1.4853896   -2.1362450  0.00    0.0331723    0.0171629    0.0149215
h     4.3995753    0.1846155   -0.4527320  0.00    0.0005317    0.0000536    0.0001857
h     4.0184904    1.8453318    0.0378223  0.00    0.0000271    0.0007878    0.0016341
c     3.4421974    2.9074874   -2.4138621  0.00   -0.0598043    0.0137115   -0.0158088
n     3.4252844    0.5091395   -3.1427707  0.00   -0.0058120   -0.0063868   -0.0213615
h     5.0305384    1.5480945   -2.2866510  0.00    0.0037754    0.0406384   -0.0101070
h     2.8800020   -0.2611830   -2.7006942  0.00   -0.0019004    0.0022608    0.0028582
h     2.7475040    0.9796548   -3.7893621  0.00    0.0025805    0.0041590    0.0045712
h    -2.1700486    2.9510190    0.7128244  0.00   -0.0023388    0.0006291    0.0002870
h    -1.9687298    0.4982377    0.4743786  0.00   -0.0030222   -0.0009346   -0.0000211
h    -0.1723191    4.3729019    0.5234007  0.00   -0.0000940    0.0015291    0.0003937
h     2.0289756    3.3669441    0.0708270  0.00    0.0037427    0.0009542   -0.0029883
h     2.4575211   -1.5692091   -0.5756108  0.00   -0.0039598   -0.0048120   -0.0006085
o     2.1183667    3.2370401   -2.3724356  0.00    0.0362625   -0.0084826    0.0161667
o     4.3876487    3.8915749   -2.6568835  0.00   -0.0009064   -0.0062389    0.0001633
h     5.3079584    3.4676704   -2.6413172  0.00   -0.0082758   -0.0575621    0.0123555
    27
 Energy =       0.2065201548
c    -1.2427681    2.5642237    0.4049019  0.00   -0.0095838    0.0062088    0.0003544
c    -1.1525089    1.2019849    0.2978862  0.00   -0.0159575   -0.0059378    0.0001528
c     0.0740331    0.6548904    0.0873937  0.00   -0.0137342   -0.0263824    0.0003489
c    -0.1160598    3.3436625    0.3082072  0.00   -0.0041957    0.0130659    0.0004116
c     1.1112532    2.7677391    0.0928494  0.00    0.0067959    0.0113779   -0.0038231
c     1.1834451    1.4093832   -0.0347362  0.00    0.0074989    0.0092080    0.0003871
n     0.3883722   -0.7177863   -0.0557855  0.00    0.0131527    0.0145044    0.0009175
c     2.2466665    0.5967820   -0.2908913  0.00    0.0238088   -0.0141948    0.0017120
c     1.7964008   -0.6803593   -0.2994299  0.00   -0.0078296   -0.0133971   -0.0006734
h    -0.2479063   -1.5438398    0.0025757  0.00    0.0018897    0.0022540   -0.0002341
c     3.6861355    1.0108185   -0.5727981  0.00    0.0009932    0.0067719    0.0013057
c     3.9957771    1.4328899   -2.0461501  0.00    0.0302035    0.0156420    0.0129880
h     4.3525431    0.1553224   -0.3158942  0.00    0.0017378   -0.0010436    0.0006454
h     3.9722754    1.8308358    0.1244937  0.00    0.0000986    0.0007336    0.0020027
c     3.5344400    2.8528662   -2.3761684  0.00   -0.0489382    0.0112582   -0.0142340
n     3.5388270    0.4403130   -3.0600470  0.00   -0.0025632   -0.0069338   -0.0194714
h     5.1043025    1.4833675   -2.1317930  0.00    0.0054188    0.0365549   -0.0093952
h     2.9603727   -0.3159237   -2.6338958  0.00   -0.0022897    0.0011661    0.0029401
h     2.9062572    0.9027259   -3.7600458  0.00   -0.0000698    0.0052936    0.0013773
h    -2.2137651    3.0307204    0.5679616  0.00   -0.0025321    0.0008026    0.0003386
h    -2.0355893    0.5724335    0.3745007  0.00   -0.0028738   -0.0008850    0.0000005
h    -0.1969253    4.4262693    0.3923224  0.00   -0.0002087    0.0016664    0.0003962
h     2.0014498    3.3875523    0.0049496  0.00    0.0034686    0.0009769   -0.0026014
h     2.3987906   -1.5681670   -0.4952538  0.00   -0.0024649   -0.0055332   -0.0008421
o     2.2053591    3.1836430   -2.4479341  0.00    0.0252586   -0.0056827    0.0137651
o     4.4981446    3.8293336   -2.5846313  0.00   -0.0006260   -0.0050445    0.0000739
h     5.4165630    3.4020996   -2.5352856  0.00   -0.0064579   -0.0524503    0.0111568
    27
 Energy =       0.2026400317
c    -1.2510156    2.6733371    0.3326192  0.00   -0.0067131    0.0041581    0.0003655
c    -1.1971744    1.3099212    0.2441795  0.00   -0.0106329   -0.0042206    0.0001763
c     0.0110282    0.7275948    0.0440938  0.00   -0.0089464   -0.0162628    0.0003085
c    -0.1046958    3.4193171    0.2269710  0.00   -0.0028773    0.0090060    0.0004004
c     1.1049881    2.8072625    0.0255797  0.00    0.0046237    0.0079408   -0.0026354
c     1.1388095    1.4476559   -0.0773585  0.00    0.0042760    0.0060788    0.0003919
n     0.2847658   -0.6588784   -0.0668951  0.00    0.0077013    0.0084838    0.0006091
c     2.1805536    0.6039939   -0.2910358  0.00    0.0139390   -0.0091538    0.0014403
c     1.7000521   -0.6598679   -0.2790340  0.00   -0.0042470   -0.0087650   -0.0004136
h    -0.3764856   -1.4663747   -0.0065375  0.00    0.0006663    0.0008289   -0.0001051
c     3.6447510    0.9633014   -0.5127072  0.00    0.0013290    0.0047672    0.0025264
c     4.0380972    1.3416751   -1.9771981  0.00    0.0184796    0.0087950    0.0071302
h     4.2699257    0.0911619   -0.2063682  0.00    0.0024368   -0.0022247    0.0010664
h     3.9269420    1.7881025    0.1797333  0.00    0.0000679    0.0004131    0.0014856
c     3.6542927    2.7734952   -2.3575979  0.00   -0.0269106    0.0062678   -0.0081692
n     3.5972019    0.3419014   -2.9869164  0.00    0.0078459   -0.0044028   -0.0094805
h     5.1512681    1.3433356   -2.0024639  0.00    0.0058001    0.0241027   -0.0063048
h     2.9397847   -0.3661172   -2.5830900  0.00   -0.0056995   -0.0041116    0.0054067
h     3.0513116    0.8148132   -3.7576828  0.00   -0.0050459    0.0083697   -0.0063249
h    -2.2088883    3.1680857    0.4875184  0.00   -0.0020895    0.0007340    0.0003002
h    -2.0959544    0.7048864    0.3292379  0.00   -0.0021954   -0.0008817    0.0000332
h    -0.1560918    4.5048753    0.2951299  0.00   -0.0002034    0.0016459    0.0003054
h     2.0116997    3.4011292   -0.0650712  0.00    0.0024837    0.0010219   -0.0016447
h     2.2922316   -1.5644321   -0.4252080  0.00   -0.0005995   -0.0046660   -0.0007713
o     2.3339914    3.1424339   -2.5320423  0.00    0.0090459   -0.0012106    0.0072393
o     4.6568978    3.7206789   -2.5433066  0.00    0.0007565   -0.0018002   -0.0003651
h     5.5675987    3.2804926   -2.4772473  0.00   -0.0032912   -0.0349139    0.0070295
    27
 Energy =       0.2026465321
c    -1.2428644    2.7137484    0.3313811  0.00   -0.0061759    0.0037970    0.0003501
c    -1.2071003    1.3500414    0.2447290  0.00   -0.0096880   -0.0038819    0.0001705
c    -0.0075239    0.7516985    0.0443558  0.00   -0.0080663   -0.0146554    0.0002803
c    -0.0869855    3.4440255    0.2242142  0.00   -0.0026076    0.0082513    0.0003725
c     1.1139331    2.8157064    0.0231166  0.00    0.0042323    0.0072150   -0.0023611
c     1.1291547    1.4563106   -0.0783018  0.00    0.0038997    0.0054883    0.0003207
n     0.2469002   -0.6389314   -0.0631773  0.00    0.0068682    0.0075195    0.0005514
c     2.1588706    0.5991179   -0.2887977  0.00    0.0125211   -0.0081810    0.0013036
c     1.6624693   -0.6581885   -0.2732908  0.00   -0.0037685   -0.0080096   -0.0003353
h    -0.4252074   -1.4376178   -0.0025195  0.00    0.0004966    0.0006240   -0.0000853
c     3.6278585    0.9358677   -0.5107335  0.00    0.0011983    0.0042293    0.0023536
c     4.0332948    1.3031712   -1.9749264  0.00    0.0162940    0.0074884    0.0072199
h     4.2378054    0.0545093   -0.2004462  0.00    0.0022848   -0.0021406    0.0009778
h     3.9226206    1.7571216    0.1806914  0.00    0.0001053    0.0004511    0.0013812
c     3.7236301    2.7560718   -2.3473938  0.00   -0.0239243    0.0050027   -0.0068309
n     3.5470961    0.3295289   -2.9902146  0.00    0.0134990   -0.0039643   -0.0081266
h     5.1451366    1.2500701   -1.9999213  0.00    0.0064525    0.0212870   -0.0054923
h     2.8171493   -0.3211617   -2.6058073  0.00   -0.0099736   -0.0083923    0.0071575
h     3.0665233    0.8378406   -3.7845902  0.00   -0.0067330    0.0103227   -0.0091425
h    -2.1938293    3.2213159    0.4867845  0.00   -0.0019807    0.0007096    0.0002864
h    -2.1135011    0.7569335    0.3318320  0.00   -0.0020650   -0.0008566    0.0000383
h    -0.1236126    4.5301778    0.2921519  0.00   -0.0001897    0.0015964    0.0002821
h     2.0288471    3.3970077   -0.0646797  0.00    0.0023513    0.0010037   -0.0014894
h     2.2440601   -1.5696218   -0.4183611  0.00   -0.0004799   -0.0042770   -0.0007082
o     2.4206204    3.1956064   -2.5080474  0.00    0.0049252   -0.0000153    0.0061299
o     4.7741663    3.6522019   -2.5432578  0.00    0.0015762    0.0011865   -0.0008637
h     5.6663733    3.1712288   -2.4874883  0.00   -0.0010518   -0.0317986    0.0062593
    27
 Energy =       0.2014577302
c    -1.2330278    2.7403844    0.3199831  0.00   -0.0056196    0.0034425    0.0003212
c    -1.2045303    1.3768110    0.2350580  0.00   -0.0087941   -0.0035322    0.0001560
c    -0.0090977    0.7720047    0.0331853  0.00   -0.0073026   -0.0132586    0.0002540
c    -0.0739117    3.4642297    0.2092905  0.00   -0.0023682    0.0074963    0.0003453
c     1.1229084    2.8293860    0.0076366  0.00    0.0037621    0.0065088   -0.0019938
c     1.1306424    1.4699956   -0.0909762  0.00    0.0035469    0.0049833    0.0002514
n     0.2375558   -0.6204840   -0.0699093  0.00    0.0062243    0.0067747    0.0004915
c     2.1559388    0.6075204   -0.2966849  0.00    0.0110145   -0.0071466    0.0013262
c     1.6535432   -0.6468767   -0.2768995  0.00   -0.0036653   -0.0072019    0.0000567
h    -0.4388611   -1.4154200   -0.0071716  0.00    0.0004261    0.0005422   -0.0000729
c     3.6293035    0.9366537   -0.5002467  0.00    0.0013531    0.0041299    0.0025772
c     4.0493147    1.2931364   -1.9612292  0.00    0.0150715    0.0071298    0.0077945
h     4.2337561    0.0563871   -0.1772360  0.00    0.0021372   -0.0020256    0.0008650
h     3.9177365    1.7631017    0.1874801  0.00    0.0001024    0.0004316    0.0012946
c     3.6750471    2.7247547   -2.3664335  0.00   -0.0205239    0.0037007   -0.0051397
n     3.6204931    0.2780878   -2.9632548  0.00    0.0222020   -0.0025143   -0.0077422
h     5.1647519    1.2879218   -1.9647422  0.00    0.0072379    0.0189466   -0.0046438
h     2.9759024   -0.4518636   -2.5526549  0.00   -0.0158493   -0.0158230    0.0096451
h     3.0574783    0.7429619   -3.7345556  0.00   -0.0098588    0.0132874   -0.0133711
h    -2.1809495    3.2531032    0.4758935  0.00   -0.0018098    0.0006505    0.0002613
h    -2.1136457    0.7885872    0.3248098  0.00   -0.0018863   -0.0007869    0.0000359
h    -0.1050043    4.5506206    0.2738805  0.00   -0.0001716    0.0014651    0.0002542
h     2.0400115    3.4060378   -0.0876863  0.00    0.0022029    0.0009687   -0.0014013
h     2.2326557   -1.5619879   -0.4060983  0.00   -0.0003308   -0.0040153   -0.0006504
o     2.3522173    3.0901901   -2.5724808  0.00   -0.0002111    0.0012294    0.0047465
o     4.6802585    3.6760255   -2.5471888  0.00    0.0017679    0.0041144   -0.0013408
h     5.5953987    3.2425115   -2.4744666  0.00    0.0013426   -0.0294977    0.0056796
    27
 Energy =       0.1992293643
c    -1.2024239    2.8367681    0.3037213  0.00   -0.0041309    0.0024265    0.0002860
c    -1.2089032    1.4738029    0.2205008  0.00   -0.0061184   -0.0025895    0.0001446
c    -0.0316802    0.8386742    0.0153531  0.00   -0.0047328   -0.0086415    0.0001754
c    -0.0263108    3.5299723    0.1875277  0.00   -0.0016039    0.0053947    0.0002761
c     1.1520239    2.8644030   -0.0153157  0.00    0.0027579    0.0045494   -0.0011058
c     1.1237532    1.5061516   -0.1096583  0.00    0.0024798    0.0031838    0.0001277
n     0.1776832   -0.5612418   -0.0818859  0.00    0.0037949    0.0039510    0.0003068
c     2.1262580    0.6194377   -0.3053008  0.00    0.0068579   -0.0043061    0.0010963
c     1.5944239   -0.6213860   -0.2810894  0.00   -0.0024813   -0.0048503    0.0004338
h    -0.5191356   -1.3389331   -0.0185434  0.00   -0.0001205   -0.0000819   -0.0000092
c     3.6107086    0.9108254   -0.4784708  0.00    0.0013719    0.0035455    0.0025520
c     4.0670457    1.2278048   -1.9353490  0.00    0.0107530    0.0051035    0.0055915
h     4.1887548    0.0254162   -0.1234483  0.00    0.0018844   -0.0019792    0.0007470
h     3.9018248    1.7463235    0.1965920  0.00   -0.0000008    0.0003834    0.0009570
c     3.6726180    2.6384279   -2.3954142  0.00   -0.0124555    0.0026091   -0.0026978