    27
 Energy =       5.1573272523
c    -1.4235396    2.6054793   -0.0667700  0.00   -0.0466603    0.0383716    0.0029770
c    -1.3072796    1.2134697   -0.1072300  0.00   -0.0851606   -0.0325677    0.0022317
c    -0.0178900    0.6711998   -0.1697000  0.00   -0.0901885   -0.1885034   -0.0021116
c    -0.2940599    3.4190890   -0.0891300  0.00   -0.0203665    0.0687977    0.0032542
c     0.9872197    2.8590292   -0.1560400  0.00    0.4785326    0.1855642    0.1447360
c     1.1340797    1.4562096   -0.1970299  0.00    0.0650581    0.0628630    0.0057936
n     0.3879399   -0.6395298   -0.2140799  0.00    0.1459366    0.1122791   -0.0000336
c     2.2666594    0.5727398   -0.2659299  0.00    0.1556974   -0.0919366   -0.0221246
c     1.7555995   -0.7123598   -0.2706899  0.00   -0.1004006   -0.0971920    0.0044718
h    -0.2400399   -1.4313496   -0.2047299  0.00    0.0367052    0.0480803   -0.0014931
c     3.7030089    1.0223397   -0.3320099  0.00    0.0030679   -0.0012839    0.0792730
c     4.0547688    2.2615794    0.5049969  0.00    0.0467770   -0.1012251   -0.1142156
h     3.9407589    1.2278196   -1.3843196  0.00    0.0004381   -0.0066477    0.0113798
h     4.3455988    0.1801669   -0.0411573  0.00   -0.0127989    0.0120346    0.0087171
c     4.1070688    1.8611695    1.9910894  0.00    0.0652656    0.2170844    0.3229704
n     3.0543991    3.3796390    0.3726399  0.00  -39.5019713    4.1178789  -17.8128435
h     5.0442386    2.6531392    0.2410219  0.00   -0.0254583    0.0121739    0.0059049
h     2.6236993    3.5084390    1.2940596  0.00   -0.1778146   -0.0463088   -0.4133227
h     3.5785090    4.2489388    0.2226519  0.00   -0.0686855   -0.0574690   -0.0040852
h    -2.4108593    3.0588691   -0.0157800  0.00   -0.0008759    0.0003002   -0.0001286
h    -2.1896094    0.5822398   -0.0890100  0.00   -0.0035846    0.0036936   -0.0001552
h    -0.4052699    4.5000487   -0.0535400  0.00    0.0008622    0.0001829    0.0000656
h     1.8590495    3.5066790   -0.1715100  0.00   39.2794831   -4.1230000   18.1413807
h     2.2327294   -1.6813195   -0.3062999  0.00   -0.0407635   -0.0122698    0.0010933
o     4.4286787    2.5928493    2.9125692  0.00   -0.0888986   -0.1716665   -0.2221686
o     3.7415389    0.5622178    2.1634194  0.00   -0.0052783    0.0281588   -0.1092962
h     4.5221787    0.1321040    2.5995593  0.00   -0.0089177    0.0226074   -0.0322705
    27
 Energy =       4.1212990480
c    -1.4112164    2.5901856   -0.0879003  0.00   -0.0345919    0.0284498    0.0028209
c    -1.2879442    1.2082740   -0.1238461  0.00   -0.0634661   -0.0243607    0.0021108
c    -0.0103241    0.6736428   -0.1985285  0.00   -0.0668016   -0.1400872   -0.0018175
c    -0.2907871    3.4033507   -0.1290549  0.00   -0.0150290    0.0512343    0.0030647
c     0.9821787    2.8496482   -0.2077038  0.00    0.3684601    0.1418263    0.1105491
c     1.1257085    1.4575079   -0.2318512  0.00    0.0481804    0.0475564    0.0049069
n     0.3792022   -0.6549700   -0.2119350  0.00    0.1080871    0.0828319    0.0004405
c     2.2513350    0.5951712   -0.2692291  0.00    0.1160558   -0.0684916   -0.0171915
c     1.7627720   -0.6879149   -0.2645687  0.00   -0.0753140   -0.0711775    0.0027828
h    -0.2449346   -1.4610209   -0.1908977  0.00    0.0275196    0.0356353   -0.0012791
c     3.7057615    1.0108410   -0.3060022  0.00    0.0027662   -0.0013722    0.0607770
c     4.0765217    2.2592189    0.5104643  0.00    0.0354291   -0.0756422   -0.0861394
h     3.9802642    1.1817045   -1.3605308  0.00    0.0007621   -0.0046877    0.0070716
h     4.3158971    0.1581883    0.0408537  0.00   -0.0088808    0.0075530    0.0091060
c     4.1424980    1.8850924    1.9993251  0.00    0.0672584    0.1860169    0.2258564
n     3.0796249    3.3724822    0.3559596  0.00  -30.7535470    3.2029389  -13.8756893
h     5.0717781    2.6329704    0.2231690  0.00   -0.0187398    0.0093813    0.0038318
h     2.6314040    3.4697512    1.2919164  0.00   -0.1370559   -0.0375172   -0.3141349
h     3.6070778    4.2558244    0.2706350  0.00   -0.0512851   -0.0410219   -0.0026250
h    -2.3995492    3.0385470   -0.0144586  0.00   -0.0009283    0.0001595    0.0008316
h    -2.1646675    0.5700791   -0.0805928  0.00   -0.0029230    0.0024654    0.0004788
h    -0.4049707    4.4837173   -0.0837703  0.00    0.0005373    0.0001262    0.0006522
h     1.8607957    3.5019626   -0.1982108  0.00   30.5809713   -3.2088455   14.1238239
h     2.2903005   -1.6323622   -0.2788617  0.00   -0.0294181   -0.0100414    0.0002010
o     4.4483177    2.7134251    2.9042711  0.00   -0.0668685   -0.1280500   -0.1610179
o     3.5827858    0.6537898    2.2830919  0.00   -0.0689584    0.0156862   -0.0868148
h     4.3993464    0.0817900    2.5253077  0.00    0.0377804   -0.0005665   -0.0125966
    27
 Energy =       3.5827722254
c    -1.4262911    2.5769612   -0.1683947  0.00   -0.0292331    0.0242921    0.0021199
c    -1.2961274    1.1991973   -0.1742319  0.00   -0.0535353   -0.0206504    0.0015695
c    -0.0213135    0.6697131   -0.2152233  0.00   -0.0564565   -0.1170576   -0.0023426
c    -0.3103152    3.3915775   -0.1961006  0.00   -0.0131003    0.0432706    0.0023431
c     0.9622953    2.8427965   -0.2363587  0.00    0.3147509    0.1202196    0.0937741
c     1.1054780    1.4556329   -0.2420697  0.00    0.0407308    0.0405160    0.0038346
n     0.3665054   -0.6659910   -0.1749746  0.00    0.0917374    0.0684158    0.0008287
c     2.2288368    0.6072545   -0.2432357  0.00    0.0985128   -0.0579294   -0.0143771
c     1.7577217   -0.6768941   -0.2137558  0.00   -0.0635350   -0.0599727    0.0021619
h    -0.2520942   -1.4811224   -0.1394231  0.00    0.0233131    0.0297493   -0.0006856
c     3.6812346    1.0236043   -0.3010486  0.00    0.0021135   -0.0008827    0.0513451
c     4.0638198    2.2596325    0.5248783  0.00    0.0296167   -0.0627941   -0.0725835
h     3.9356032    1.2118691   -1.3589801  0.00    0.0010936   -0.0040689    0.0058989
h     4.3024559    0.1671401    0.0225642  0.00   -0.0071783    0.0060216    0.0085811
c     4.1680397    1.8800402    2.0061497  0.00    0.0595228    0.1624372    0.1879687
n     3.0700871    3.3691525    0.3758381  0.00  -26.3158298    2.7389132  -11.8740446
h     5.0590991    2.6265127    0.2201859  0.00   -0.0156391    0.0080265    0.0034336
h     2.6294589    3.4844301    1.3146631  0.00   -0.1179873   -0.0320798   -0.2684404
h     3.6044220    4.2504040    0.2646816  0.00   -0.0430479   -0.0341944   -0.0023015
h    -2.4181124    3.0224149   -0.1274057  0.00   -0.0011838    0.0003103    0.0002256
h    -2.1696863    0.5566241   -0.1347307  0.00   -0.0023640    0.0019855    0.0001665
h    -0.4294503    4.4720991   -0.1674019  0.00    0.0003903    0.0001860    0.0001300
h     1.8365263    3.5005085   -0.1848058  0.00   26.1691582   -2.7451718   12.0864488
h     2.3120587   -1.6070236   -0.1992443  0.00   -0.0241765   -0.0090938    0.0005876
o     4.4540720    2.7398240    2.9172246  0.00   -0.0569285   -0.1068577   -0.1353996
o     3.7135861    0.6081519    2.3141901  0.00   -0.0784597    0.0162207   -0.0770793
h     4.5512659    0.1263867    2.6840608  0.00    0.0477149   -0.0098111   -0.0041633
    27
 Energy =       3.1604834184
c    -1.4487362    2.5474030   -0.1910132  0.00   -0.0251075    0.0206917    0.0016902
c    -1.3064566    1.1739441   -0.1856884  0.00   -0.0459913   -0.0179407    0.0012355
c    -0.0315122    0.6563227   -0.2070233  0.00   -0.0482183   -0.1007351   -0.0021171
c    -0.3410928    3.3702668   -0.2114969  0.00   -0.0113576    0.0370464    0.0019008
c     0.9336974    2.8334168   -0.2336159  0.00    0.2726235    0.1035220    0.0812742
c     1.0836981    1.4503680   -0.2277789  0.00    0.0351416    0.0348337    0.0031450
n     0.3615248   -0.6827997   -0.1663462  0.00    0.0785021    0.0586460    0.0005034
c     2.2092290    0.6188787   -0.2177546  0.00    0.0845158   -0.0497279   -0.0121085
c     1.7583394   -0.6681619   -0.1868418  0.00   -0.0541243   -0.0512724    0.0019211
h    -0.2475264   -1.5094417   -0.1385759  0.00    0.0201951    0.0251746   -0.0006564
c     3.6570465    1.0431435   -0.3063245  0.00    0.0014748   -0.0002145    0.0440186
c     4.0528238    2.2687474    0.5257529  0.00    0.0251120   -0.0528788   -0.0625155
h     3.8804609    1.2519851   -1.3688450  0.00    0.0012414   -0.0033113    0.0045709
h     4.2957051    0.1864068   -0.0145856  0.00   -0.0055887    0.0048295    0.0075799
c     4.2045690    1.8881963    1.9999260  0.00    0.0535203    0.1457349    0.1591105
n     3.0553590    3.3699454    0.3893679  0.00  -22.8593878    2.3766606  -10.3137962
h     5.0429209    2.6349374    0.1966764  0.00   -0.0132285    0.0071720    0.0029665
h     2.6294268    3.5099277    1.3298517  0.00   -0.1027831   -0.0274799   -0.2328882
h     3.5912140    4.2500957    0.2433115  0.00   -0.0364867   -0.0285138   -0.0022854
h    -2.4452209    2.9836629   -0.1678592  0.00   -0.0012586    0.0000702   -0.0000120
h    -2.1739234    0.5224818   -0.1563602  0.00   -0.0020183    0.0013946   -0.0000086
h    -0.4705574    4.4498118   -0.1940000  0.00    0.0001381    0.0001140   -0.0000450
h     1.8085852    3.5033775   -0.1776821  0.00   22.7318605   -2.3834679   10.4982506
h     2.3374291   -1.5838141   -0.1757253  0.00   -0.0202752   -0.0080280    0.0006769
o     4.4698845    2.7752786    2.9134872  0.00   -0.0492038   -0.0906480   -0.1159331
o     3.8622692    0.5823472    2.3254884  0.00   -0.0787312    0.0104432   -0.0670501
h     4.7100190    0.1841689    2.7707061  0.00    0.0494357   -0.0121149    0.0005721
    27
 Energy =       2.7503026613
c    -1.4691792    2.5257544   -0.2158874  0.00   -0.0211326    0.0172958    0.0013193
c    -1.3190354    1.1563156   -0.1936651  0.00   -0.0386893   -0.0153075    0.0009078
c    -0.0457210    0.6465789   -0.1946321  0.00   -0.0403298   -0.0849687   -0.0020177
c    -0.3674184    3.3533062   -0.2337721  0.00   -0.0097027    0.0310519    0.0015478
c     0.9075807    2.8240863   -0.2374489  0.00    0.2316191    0.0875843    0.0692020
c     1.0605914    1.4447088   -0.2143080  0.00    0.0296863    0.0292662    0.0025464
n     0.3478898   -0.6963189   -0.1415898  0.00    0.0660239    0.0491567    0.0003089
c     2.1858674    0.6255999   -0.1905812  0.00    0.0710511   -0.0419342   -0.0099867
c     1.7495197   -0.6625186   -0.1519763  0.00   -0.0453017   -0.0430412    0.0015655
h    -0.2557510   -1.5306299   -0.1116076  0.00    0.0172242    0.0209368   -0.0007030
c     3.6316587    1.0496055   -0.3080649  0.00    0.0009203    0.0001651    0.0368953
c     4.0469744    2.2705400    0.5201516  0.00    0.0206432   -0.0433745   -0.0528943
h     3.8288731    1.2672714   -1.3751100  0.00    0.0012572   -0.0026856    0.0036238
h     4.2803911    0.1917015   -0.0394245  0.00   -0.0043515    0.0039434    0.0064081
c     4.2501710    1.9000047    1.9898654  0.00    0.0473123    0.1277496    0.1319906
n     3.0478147    3.3656091    0.3925580  0.00  -19.5156346    2.0266363   -8.8047644
h     5.0308092    2.6315396    0.1609428  0.00   -0.0107973    0.0063723    0.0024460
h     2.6358097    3.5287986    1.3350542  0.00   -0.0879993   -0.0229825   -0.1984376
h     3.5849871    4.2437645    0.2178941  0.00   -0.0304699   -0.0234130   -0.0021669
h    -2.4685587    2.9558944   -0.2104787  0.00   -0.0012738   -0.0001262   -0.0002003
h    -2.1822039    0.4989133   -0.1692771  0.00   -0.0016343    0.0008998   -0.0001982
h    -0.5033960    4.4321908   -0.2312584  0.00   -0.0000950    0.0000722   -0.0001441
h     1.7860109    3.5013735   -0.1817364  0.00   19.4069531   -2.0337193    8.9620768
h     2.3482948   -1.5662049   -0.1418624  0.00   -0.0166581   -0.0068547    0.0006649
o     4.4818906    2.8216117    2.9010210  0.00   -0.0417952   -0.0741401   -0.0970565
o     4.0210223    0.5720395    2.3365929  0.00   -0.0769275    0.0043851   -0.0582809
h     4.8642831    0.2593609    2.8556523  0.00    0.0501019   -0.0129678    0.0053474
    27
 Energy =       2.2204993051
c    -1.4861700    2.5066494   -0.2586587  0.00   -0.0160686    0.0127876    0.0008776
c    -1.3249330    1.1428103   -0.2182960  0.00   -0.0291984   -0.0118031    0.0006179
c    -0.0535819    0.6449755   -0.1925743  0.00   -0.0300443   -0.0642250   -0.0017067
c    -0.3926189    3.3414258   -0.2634683  0.00   -0.0076255    0.0231390    0.0009968
c     0.8831145    2.8237106   -0.2395982  0.00    0.1793840    0.0668858    0.0532202
c     1.0400642    1.4495948   -0.2071367  0.00    0.0224481    0.0220447    0.0017326
n     0.3426000   -0.7023464   -0.1257833  0.00    0.0494156    0.0366167    0.0002552
c     2.1654671    0.6490218   -0.1722325  0.00    0.0531477   -0.0314877   -0.0070249
c     1.7504969   -0.6414482   -0.1251046  0.00   -0.0339282   -0.0322890    0.0012980
h    -0.2534744   -1.5470908   -0.0954703  0.00    0.0131495    0.0153280   -0.0004664
c     3.6058961    1.0821901   -0.3246444  0.00   -0.0002823    0.0006190    0.0281178
c     4.0378608    2.2704847    0.5401403  0.00    0.0151170   -0.0310869   -0.0393816
h     3.7643004    1.3463957   -1.3900825  0.00    0.0012785   -0.0020255    0.0012712
h     4.2722458    0.2184280   -0.1136418  0.00   -0.0021127    0.0016587    0.0053467
c     4.2669770    1.8623741    1.9952453  0.00    0.0387720    0.1069412    0.0958475
n     3.0474768    3.3695780    0.4278135  0.00  -15.2500257    1.5799123   -6.8806761
h     5.0247159    2.6253059    0.1767316  0.00   -0.0082082    0.0050142    0.0016538
h     2.6546228    3.5598076    1.3737145  0.00   -0.0695307   -0.0171380   -0.1548907
h     3.5905513    4.2406852    0.2176547  0.00   -0.0226608   -0.0168869   -0.0022631
h    -2.4894069    2.9275549   -0.2770761  0.00   -0.0014046   -0.0003845   -0.0004436
h    -2.1818823    0.4767813   -0.2034943  0.00   -0.0012745    0.0002480   -0.0002935
h    -0.5380293    4.4189402   -0.2712604  0.00   -0.0003940   -0.0001247   -0.0004209
h     1.7617247    3.5089172   -0.1576548  0.00   15.1657360   -1.5874205    7.0033148
h     2.3757174   -1.5283444   -0.1145950  0.00   -0.0120383   -0.0054636    0.0008374
o     4.4491205    2.7778907    2.9525330  0.00   -0.0313678   -0.0526504   -0.0712755
o     4.1797755    0.5029030    2.3074368  0.00   -0.0737666   -0.0080240   -0.0494516
h     4.9865448    0.2837019    2.9265539  0.00    0.0514830   -0.0101853    0.0129068
    27
 Energy =       1.7693345017
c    -1.4886304    2.5387742   -0.3187986  0.00   -0.0121806    0.0090718    0.0004417
c    -1.3392848    1.1771268   -0.2641109  0.00   -0.0217320   -0.0087273    0.0003522
c    -0.0773640    0.6704186   -0.2001085  0.00   -0.0211938   -0.0471253   -0.0012303
c    -0.3893067    3.3627440   -0.2969998  0.00   -0.0059604    0.0169466    0.0005043
c     0.8777422    2.8338568   -0.2355532  0.00    0.1361930    0.0504211    0.0399761
c     1.0175982    1.4634628   -0.1961112  0.00    0.0168252    0.0160401    0.0011237
n     0.2999171   -0.6859213   -0.1293647  0.00    0.0356994    0.0265187   -0.0000486
c     2.1317814    0.6626937   -0.1457779  0.00    0.0387510   -0.0230572   -0.0049503
c     1.7140323   -0.6241599   -0.1011975  0.00   -0.0242961   -0.0236088    0.0012800
h    -0.3059187   -1.5282372   -0.1113694  0.00    0.0094777    0.0109087   -0.0004392
c     3.5750670    1.0819323   -0.3209598  0.00   -0.0010405    0.0005402    0.0203743
c     4.0429484    2.2397018    0.5683484  0.00    0.0112429   -0.0219105   -0.0282264
h     3.7104408    1.3760046   -1.3826305  0.00    0.0009873   -0.0018167    0.0004694
h     4.2379107    0.2042233   -0.1537224  0.00   -0.0009456    0.0003278    0.0042391
c     4.2928084    1.7982567    2.0115094  0.00    0.0310615    0.0857463    0.0673536
n     3.0773302    3.3601331    0.4715370  0.00  -11.6655561    1.2074691   -5.2644595
h     5.0360014    2.5730226    0.1965955  0.00   -0.0057958    0.0037648    0.0011231
h     2.6991191    3.5628392    1.4225493  0.00   -0.0535282   -0.0126564   -0.1180373
h     3.6339196    4.2204925    0.2468002  0.00   -0.0169810   -0.0122935   -0.0019400
h    -2.4876654    2.9676289   -0.3709554  0.00   -0.0017025   -0.0002989   -0.0007817
h    -2.2012920    0.5171120   -0.2728529  0.00   -0.0012697   -0.0001177   -0.0005154
h    -0.5245831    4.4414874   -0.3147496  0.00   -0.0005113   -0.0001410   -0.0006523
h     1.7648807    3.5028546   -0.1260325  0.00   11.6015191   -1.2141555    5.3576758
h     2.3461422   -1.5071213   -0.0921574  0.00   -0.0087548   -0.0040617    0.0009721
o     4.4044685    2.7035185    3.0133894  0.00   -0.0234287   -0.0337774   -0.0494647
o     4.3385286    0.4250295    2.2863014  0.00   -0.0635980   -0.0175127   -0.0410915
h     5.0925842    0.2730223    2.9834727  0.00    0.0467180   -0.0064946    0.0159519
    27
 Energy =       1.3803385656
c    -1.4902961    2.5600620   -0.3748804  0.00   -0.0088696    0.0060893    0.0000182
c    -1.3469878    1.2009260   -0.3040259  0.00   -0.0154217   -0.0061521    0.0000894
c    -0.0923704    0.6913482   -0.2039812  0.00   -0.0141413   -0.0330449   -0.0009148
c    -0.3898036    3.3788529   -0.3282819  0.00   -0.0044883    0.0117602    0.0000663
c     0.8704231    2.8452033   -0.2311883  0.00    0.0992344    0.0361481    0.0286813
c     1.0005241    1.4785999   -0.1864132  0.00    0.0120471    0.0110695    0.0006514
n     0.2746337   -0.6706659   -0.1231147  0.00    0.0247456    0.0182220    0.0000034
c     2.1082281    0.6821411   -0.1268557  0.00    0.0267609   -0.0160396   -0.0031326
c     1.6933884   -0.6031003   -0.0809788  0.00   -0.0167821   -0.0164382    0.0011649
h    -0.3352902   -1.5134119   -0.1093804  0.00    0.0066235    0.0074182   -0.0002437
c     3.5507102    1.0974361   -0.3270200  0.00   -0.0017382    0.0004153    0.0142218
c     4.0473754    2.2176431    0.5952996  0.00    0.0080887   -0.0145350   -0.0192665
h     3.6598061    1.4321787   -1.3808367  0.00    0.0007084   -0.0013630   -0.0005884
h     4.2141436    0.2101528   -0.2116739  0.00    0.0001213   -0.0008709    0.0032490
c     4.3028336    1.7269717    2.0240600  0.00    0.0244884    0.0658455    0.0412104
n     3.1050723    3.3585120    0.5180478  0.00   -8.6216860    0.8919751   -3.8930802
h     5.0476585    2.5352568    0.2256842  0.00   -0.0039593    0.0027881    0.0008107
h     2.7369924    3.5586397    1.4761895  0.00   -0.0396530   -0.0092438   -0.0861903
h     3.6727452    4.2122814    0.2937762  0.00   -0.0125644   -0.0086919   -0.0014730
h    -2.4860067    2.9919060   -0.4588485  0.00   -0.0017594   -0.0002776   -0.0011056
h    -2.2102655    0.5430171   -0.3319456  0.00   -0.0010911   -0.0003436   -0.0006717
h    -0.5199329    4.4580172   -0.3553654  0.00   -0.0005781   -0.0002045   -0.0008748
h     1.7616859    3.5053495   -0.0931558  0.00    8.5751027   -0.8966796    3.9606771
h     2.3346452   -1.4803020   -0.0750328  0.00   -0.0059998   -0.0028925    0.0010884
o     4.2933961    2.5957767    3.0888632  0.00   -0.0181162   -0.0127414   -0.0260050
o     4.4972817    0.3508904    2.2375336  0.00   -0.0520842   -0.0300933   -0.0367737
h     5.1785854    0.2472140    3.0105761  0.00    0.0410117   -0.0021192    0.0183879
    27
 Energy =       1.2045088927
c    -1.4857270    2.5865369   -0.3794762  0.00   -0.0074268    0.0049982   -0.0000942
c    -1.3520703    1.2269963   -0.3151299  0.00   -0.0128305   -0.0052087   -0.0000240
c    -0.1030680    0.7086955   -0.2094968  0.00   -0.0116651   -0.0273582   -0.0007858
c    -0.3802901    3.3966746   -0.3222735  0.00   -0.0037392    0.0097944   -0.0000085
c     0.8740042    2.8529939   -0.2214111  0.00    0.0833132    0.0303882    0.0241283
c     0.9932298    1.4875307   -0.1827276  0.00    0.0100756    0.0092283    0.0005134
n     0.2528852   -0.6581235   -0.1413729  0.00    0.0205757    0.0149808   -0.0000967
c     2.0945314    0.6867747   -0.1274282  0.00    0.0222383   -0.0131959   -0.0025774
c     1.6738094   -0.5961628   -0.0941510  0.00   -0.0138959   -0.0136696    0.0009996
h    -0.3633250   -1.4977080   -0.1371162  0.00    0.0054648    0.0060370   -0.0003202
c     3.5396204    1.0935599   -0.3310261  0.00   -0.0015351    0.0002394    0.0117635
c     4.0531370    2.1952068    0.6044975  0.00    0.0073422   -0.0116125   -0.0156385
h     3.6455579    1.4427565   -1.3805251  0.00    0.0006130   -0.0011273   -0.0005381
h     4.1971215    0.1999832   -0.2303195  0.00    0.0002264   -0.0008157    0.0028651
c     4.3072706    1.6919158    2.0269843  0.00    0.0172672    0.0459879    0.0244291
n     3.1322036    3.3530463    0.5387720  0.00   -7.2795624    0.7530307   -3.2870491
h     5.0591671    2.4986055    0.2365493  0.00   -0.0031975    0.0024228    0.0007762
h     2.7774587    3.5625112    1.5004104  0.00   -0.0336506   -0.0076818   -0.0725016
h     3.7106063    4.1969471    0.3032139  0.00   -0.0104507   -0.0070685   -0.0012629
h    -2.4776000    3.0258805   -0.4674374  0.00   -0.0015121   -0.0002797   -0.0010664
h    -2.2192844    0.5748900   -0.3535514  0.00   -0.0009477   -0.0003933   -0.0007158
h    -0.5018413    4.4769923   -0.3451188  0.00   -0.0005140   -0.0001522   -0.0007776
h     1.7713860    3.5021274   -0.0805662  0.00    7.2402791   -0.7571199    3.3441836
h     2.3138745   -1.4745909   -0.0999672  0.00   -0.0049192   -0.0024735    0.0009210
o     4.4521492    2.5837804    3.0765293  0.00   -0.0130347    0.0008545   -0.0115620
o     4.4351575    0.3102501    2.2511405  0.00   -0.0437953   -0.0275836   -0.0324251
h     5.0792115    0.1828263    3.0480493  0.00    0.0352813   -0.0022218    0.0168641
    27
 Energy =       1.0092225386
c    -1.4786640    2.6425719   -0.2897572  0.00   -0.0061875    0.0040975   -0.0001640
c    -1.3591911    1.2810623   -0.2500042  0.00   -0.0104019   -0.0039753   -0.0001264
c    -0.1149001    0.7472567   -0.1840855  0.00   -0.0091374   -0.0209587   -0.0005977
c    -0.3623984    3.4380783   -0.2491966  0.00   -0.0034877    0.0079589   -0.0000810
c     0.8858473    2.8764408   -0.1902155  0.00    0.0658734    0.0238075    0.0191982
c     0.9875417    1.5128300   -0.1753439  0.00    0.0077295    0.0072387    0.0004421
n     0.2285565   -0.6260841   -0.1508976  0.00    0.0153763    0.0113048   -0.0000058
c     2.0811798    0.7066422   -0.1676324  0.00    0.0178001   -0.0104792   -0.0015473
c     1.6542239   -0.5734373   -0.1472036  0.00   -0.0097859   -0.0106844    0.0007414
h    -0.3960404   -1.4608220   -0.1430659  0.00    0.0041688    0.0045929   -0.0002888
c     3.5217694    1.1151045   -0.4005525  0.00   -0.0027233   -0.0004519    0.0090158
c     4.0673997    2.1589256    0.5851349  0.00    0.0066683   -0.0086966   -0.0116865
h     3.5971891    1.5241949   -1.4331351  0.00    0.0003561   -0.0001937   -0.0026406
h     4.1775795    0.2129185   -0.3678716  0.00    0.0015340   -0.0024443    0.0021517
c     4.2979350    1.5831031    1.9855720  0.00    0.0134602    0.0345377    0.0184010
n     3.1854436    3.3512043    0.5604806  0.00   -5.8084619    0.6029858   -2.6233370
h     5.0861096    2.4429242    0.2348216  0.00   -0.0020064    0.0022039    0.0007647
h     2.8413095    3.5444210    1.5301661  0.00   -0.0272565   -0.0057073   -0.0575415
h     3.7840056    4.1844467    0.3389422  0.00   -0.0083559   -0.0050416   -0.0010123
h    -2.4672286    3.0954148   -0.3438679  0.00   -0.0017906    0.0000754   -0.0008839
h    -2.2346099    0.6394547   -0.2758461  0.00   -0.0009251   -0.0003503   -0.0006120
h    -0.4701294    4.5203680   -0.2521293  0.00   -0.0005614    0.0001786   -0.0005987
h     1.8009279    3.5026208   -0.0699273  0.00    5.7772876   -0.6044673    2.6679045
h     2.2918804   -1.4535947   -0.1903823  0.00   -0.0032528   -0.0024250    0.0006397
o     4.4724935    2.4250273    3.0749451  0.00   -0.0095203    0.0023988   -0.0064780
o     4.4072563    0.1933092    2.1538880  0.00   -0.0366142   -0.0236094   -0.0283397
h     4.9936894    0.0265147    2.9842152  0.00    0.0302144   -0.0018955    0.0166818
    27
 Energy =       0.7948154010
c    -1.4746223    2.6897829   -0.1895304  0.00   -0.0046731    0.0031232   -0.0002082
c    -1.3658943    1.3272839   -0.1792504  0.00   -0.0076014   -0.0025834   -0.0001991
c    -0.1259676    0.7822342   -0.1594054  0.00   -0.0061972   -0.0139852   -0.0003594
c    -0.3505603    3.4737941   -0.1673264  0.00   -0.0030974    0.0058226   -0.0001303
c     0.8916749    2.8985105   -0.1562993  0.00    0.0468476    0.0165236    0.0137270
c     0.9795112    1.5380309   -0.1690671  0.00    0.0052397    0.0049782    0.0003694
n     0.2078439   -0.5960130   -0.1655955  0.00    0.0099866    0.0072508    0.0000576
c     2.0663120    0.7312690   -0.2116068  0.00    0.0126999   -0.0074637   -0.0006088
c     1.6366264   -0.5468617   -0.2059542  0.00   -0.0056727   -0.0074028    0.0004518
h    -0.4222302   -1.4280979   -0.1559274  0.00    0.0028113    0.0030653   -0.0002519
c     3.5012760    1.1458947   -0.4719201  0.00   -0.0034893   -0.0009231    0.0059601
c     4.0824081    2.1268819    0.5608299  0.00    0.0058611   -0.0059780   -0.0074608
h     3.5469138    1.6156436   -1.4818634  0.00    0.0001021    0.0006826   -0.0041002
h     4.1531501    0.2394065   -0.5110751  0.00    0.0024855   -0.0036627    0.0012853
c     4.2996192    1.4780890    1.9328899  0.00    0.0090798    0.0224870    0.0116901
n     3.2397632    3.3498643    0.5899114  0.00   -4.2160015    0.4402171   -1.9052490
h     5.1098316    2.3922385    0.2196710  0.00   -0.0009962    0.0016613    0.0007117
h     2.9064984    3.5151521    1.5702990  0.00   -0.0201714   -0.0037755   -0.0406135
h     3.8582615    4.1745131    0.3922478  0.00   -0.0060196   -0.0027273   -0.0007052
h    -2.4601223    3.1527917   -0.2043589  0.00   -0.0019708    0.0004331   -0.0006475
h    -2.2471883    0.6935708   -0.1910105  0.00   -0.0008175   -0.0002523   -0.0004793
h    -0.4470163    4.5572013   -0.1461238  0.00   -0.0006007    0.0004734   -0.0003924
h     1.8208207    3.5048893   -0.0563460  0.00    4.1937122   -0.4393217    1.9359982
h     2.2736868   -1.4255812   -0.2872940  0.00   -0.0016373   -0.0021708    0.0003327
o     4.5102399    2.2662741    3.0591870  0.00   -0.0057670    0.0034978   -0.0015890
o     4.3882576    0.0832638    2.0431366  0.00   -0.0285030   -0.0179575   -0.0245279
h     4.9000824   -0.1291298    2.9088334  0.00    0.0243904   -0.0020120    0.0169386
    27
 Energy =       0.6178565448
c    -1.4856793    2.7021773   -0.0744847  0.00   -0.0035160    0.0023553   -0.0001975
c    -1.3738799    1.3404156   -0.0939948  0.00   -0.0055357   -0.0013837   -0.0002066
c    -0.1335268    0.7984709   -0.1262835  0.00   -0.0038627   -0.0087487   -0.0001850
c    -0.3629543    3.4874136   -0.0757758  0.00   -0.0027404    0.0041566   -0.0001213
c     0.8782924    2.9134906   -0.1181832  0.00    0.0318581    0.0105764    0.0092091
c     0.9668268    1.5570128   -0.1588295  0.00    0.0033618    0.0032038    0.0003226
n     0.2043145   -0.5796988   -0.1706816  0.00    0.0056673    0.0042609    0.0001173
c     2.0538768    0.7611581   -0.2534826  0.00    0.0085816   -0.0051886    0.0000910
c     1.6333734   -0.5190789   -0.2587799  0.00   -0.0025108   -0.0047947    0.0002090
h    -0.4219574   -1.4157400   -0.1561088  0.00    0.0017587    0.0018818   -0.0002088
c     3.4776926    1.1955044   -0.5470086  0.00   -0.0032592   -0.0007928    0.0037951
c     4.0948826    2.1194845    0.5196112  0.00    0.0049879   -0.0048279   -0.0049840
h     3.4857758    1.7210098   -1.5312018  0.00   -0.0000253    0.0013432   -0.0049150
h     4.1298774    0.2943775   -0.6600819  0.00    0.0031514   -0.0043585    0.0004651
c     4.3358051    1.4025454    1.8549623  0.00    0.0056380    0.0137727    0.0067944
n     3.2716905    3.3538422    0.6253446  0.00   -2.9283160    0.3073901   -1.3262671
h     5.1181321    2.3853507    0.1655715  0.00   -0.0003269    0.0007272    0.0003775
h     2.9391244    3.4578893    1.6180040  0.00   -0.0147177   -0.0024719   -0.0242845
h     3.9004034    4.1833032    0.4822143  0.00   -0.0034472    0.0006259   -0.0005200
h    -2.4718304    3.1636695   -0.0456057  0.00   -0.0021314    0.0007064   -0.0004265
h    -2.2537697    0.7048370   -0.0871340  0.00   -0.0007662   -0.0001471   -0.0003555
h    -0.4593962    4.5701843   -0.0295921  0.00   -0.0006323    0.0006058   -0.0002256
h     1.8123095    3.5131060   -0.0390593  0.00    2.9124815   -0.3056302    1.3439798
h     2.2762127   -1.3898307   -0.3777891  0.00   -0.0004320   -0.0018973    0.0000908
o     4.5883243    2.1368049    3.0112708  0.00   -0.0029037    0.0039172    0.0019462
o     4.4138837    0.0057355    1.9045970  0.00   -0.0204125   -0.0133048   -0.0195334
h     4.8613718   -0.2525384    2.7895525  0.00    0.0180497   -0.0019769    0.0150329
    27
 Energy =       0.4613380266
c    -1.4780762    2.7142855    0.0339095  0.00   -0.0028097    0.0012572   -0.0000847
c    -1.3653732    1.3538632   -0.0083750  0.00   -0.0039961   -0.0003390   -0.0001042
c    -0.1272692    0.8152257   -0.1004156  0.00   -0.0014422   -0.0048633   -0.0000967
c    -0.3572594    3.5008513   -0.0062300  0.00   -0.0021414    0.0026955   -0.0000233
c     0.8809766    2.9292882   -0.1079036  0.00    0.0192777    0.0053914    0.0054859
c     0.9683202    1.5759217   -0.1663127  0.00    0.0025348    0.0016876    0.0002530
n     0.2107533   -0.5626869   -0.1711468  0.00    0.0021347    0.0020974    0.0001880
c     2.0519439    0.7876586   -0.3049192  0.00    0.0055695   -0.0032116    0.0003304
c     1.6375821   -0.4936014   -0.3074108  0.00    0.0000159   -0.0025521   -0.0000305
h    -0.4129091   -1.4013588   -0.1442033  0.00    0.0008415    0.0008467   -0.0001269
c     3.4703129    1.2338063   -0.6076983  0.00   -0.0030872   -0.0007606    0.0019003
c     4.1064511    2.0992929    0.4969764  0.00    0.0030230   -0.0020877   -0.0026065
h     3.4631985    1.8086140   -1.5631564  0.00   -0.0001449    0.0014787   -0.0040516
h     4.1166019    0.3384530   -0.7759888  0.00    0.0024234   -0.0034574   -0.0000108
c     4.2958442    1.3304737    1.8118735  0.00    0.0032221    0.0060937    0.0032500