    27
 Energy =       0.3379365972
c    -1.4235396    2.6054793   -0.0667700  0.00   -0.0462623    0.0383209    0.0028000
c    -1.3072796    1.2134697   -0.1072300  0.00   -0.0852219   -0.0325721    0.0020541
c    -0.0178900    0.6711998   -0.1697000  0.00   -0.0885993   -0.1879399   -0.0012478
c    -0.2940599    3.4190890   -0.0891300  0.00   -0.0230517    0.0691004    0.0029898
c     0.9872197    2.8590292   -0.1560400  0.00    0.0105833    0.0642505    0.0011001
c     1.1340797    1.4562096   -0.1970299  0.00    0.0533689    0.0515469    0.0020535
n     0.3879399   -0.6395298   -0.2140799  0.00    0.1436551    0.1091000   -0.0028308
c     2.2666594    0.5727398   -0.2659299  0.00    0.1400911   -0.0570337   -0.0204265
c     1.7555995   -0.7123598   -0.2706899  0.00   -0.0951322   -0.0974603    0.0040608
h    -0.2400399   -1.4313496   -0.2047299  0.00    0.0367554    0.0478353   -0.0007107
c     3.7030089    1.0223397   -0.3320099  0.00    0.0141930    0.0068462    0.0180876
c     4.7465686   -0.0024900    0.1378100  0.00   -0.0645536    0.0039583   -0.0000261
h     3.7978489    1.9290294    0.2803699  0.00    0.0018457   -0.0130644   -0.0117723
h     3.9233889    1.3348996   -1.3618196  0.00   -0.0031951   -0.0027109    0.0137066
c     6.0911583    0.7171698    0.3515799  0.00    0.1176137    0.2930212    0.1563241
n     4.9813086   -1.1161597   -0.8485798  0.00    0.1042121   -0.0324672   -0.0513152
h     4.4627987   -0.4486599    1.0982597  0.00    0.0034979   -0.0022857   -0.0208810
h     4.3153288   -0.9829797   -1.6165895  0.00    0.0167114    0.0154751    0.0332052
h     5.8957383   -0.9560407   -1.2856796  0.00    0.1855925    0.2286293    0.2012677
h    -2.4108593    3.0588691   -0.0157800  0.00   -0.0008119    0.0002420   -0.0000003
h    -2.1896094    0.5822398   -0.0890100  0.00   -0.0036288    0.0037567    0.0000281
h    -0.4052699    4.5000487   -0.0535400  0.00    0.0008488    0.0001705    0.0002199
h     1.8590495    3.5066790   -0.1715100  0.00   -0.0007889    0.0026764    0.0005959
h     2.2327294   -1.6813195   -0.3062999  0.00   -0.0414368   -0.0102950    0.0017973
o     6.2733082    1.6803095    1.0775897  0.00   -0.0428733   -0.2356655   -0.1683396
o     7.0804880    0.1383800   -0.3810899  0.00   -0.2968147   -0.2426686   -0.1726255
h     7.4254579    0.8636228   -0.9638627  0.00   -0.0365983   -0.0207665    0.0098852
    27
 Energy =       0.2911107182
c    -1.3687386    2.6431858   -0.0654426  0.00   -0.0329437    0.0270778    0.0019652
c    -1.2671992    1.2609234   -0.1095246  0.00   -0.0608351   -0.0234821    0.0014045
c     0.0008373    0.7078045   -0.1691718  0.00   -0.0620979   -0.1330403   -0.0000161
c    -0.2346520    3.4374744   -0.0874021  0.00   -0.0167232    0.0491782    0.0021075
c     1.0293035    2.8633168   -0.1557949  0.00    0.0074959    0.0460640    0.0007458
c     1.1456114    1.4731116   -0.1950036  0.00    0.0375153    0.0370316    0.0014288
n     0.3645694   -0.6258486   -0.2468721  0.00    0.1020956    0.0762785   -0.0031898
c     2.2542168    0.6022735   -0.2735412  0.00    0.0991533   -0.0413134   -0.0125236
c     1.7501063   -0.6756019   -0.2933742  0.00   -0.0682140   -0.0685435    0.0034618
h    -0.2761650   -1.4206169   -0.2565346  0.00    0.0260293    0.0339383   -0.0008320
c     3.7006074    1.0266581   -0.3976471  0.00    0.0077325    0.0027966    0.0146811
c     4.7104874    0.0047823    0.1674281  0.00   -0.0460437    0.0024332    0.0020633
h     3.8280546    1.9984380    0.1216168  0.00    0.0012113   -0.0026373   -0.0062024
h     3.9219856    1.2205127   -1.4669653  0.00   -0.0005442   -0.0010268    0.0026532
c     6.0649310    0.6806820    0.4067973  0.00    0.0831768    0.2124968    0.1094120
n     4.9372250   -1.1516162   -0.7606457  0.00    0.0795112   -0.0246219   -0.0330787
h     4.3754163   -0.3823349    1.1457831  0.00    0.0013088   -0.0025856   -0.0124007
h     4.2569642   -1.1076401   -1.5381537  0.00    0.0074158    0.0097902    0.0190178
h     5.8616934   -1.0187426   -1.2056508  0.00    0.1431796    0.1750839    0.1506296
h    -2.3507451    3.1079684   -0.0155405  0.00   -0.0006673    0.0001790    0.0000039
h    -2.1545938    0.6366053   -0.1001521  0.00   -0.0026264    0.0025870   -0.0000117
h    -0.3318408    4.5199719   -0.0522207  0.00    0.0005643    0.0002252    0.0001596
h     1.9116511    3.4962535   -0.1753768  0.00   -0.0003106    0.0019294    0.0003978
h     2.2635982   -1.6261434   -0.3562077  0.00   -0.0279920   -0.0078339    0.0007669
o     6.2449964    1.6727615    1.1729029  0.00   -0.0298863   -0.1686806   -0.1210780
o     7.0916578    0.0802219   -0.2755286  0.00   -0.2265535   -0.2209260   -0.0954690
h     7.3011528    0.7355141   -1.0392687  0.00   -0.0209518    0.0176017   -0.0260966
    27
 Energy =       0.2718182396
c    -1.3887037    2.5692845   -0.0353240  0.00   -0.0281797    0.0232471    0.0016892
c    -1.2696208    1.1916589   -0.0878102  0.00   -0.0521007   -0.0201141    0.0012578
c     0.0006621    0.6556689   -0.1442361  0.00   -0.0533334   -0.1135571    0.0003007
c    -0.2661651    3.3758985   -0.0473934  0.00   -0.0142003    0.0421698    0.0017798
c     1.0006352    2.8180635   -0.1122487  0.00    0.0066748    0.0393939    0.0005887
c     1.1288133    1.4349166   -0.1580080  0.00    0.0318668    0.0320033    0.0011674
n     0.3800068   -0.6795468   -0.2401752  0.00    0.0867001    0.0650772   -0.0031092
c     2.2464136    0.5933337   -0.2345210  0.00    0.0847827   -0.0354193   -0.0099663
c     1.7741165   -0.6915442   -0.2683100  0.00   -0.0582727   -0.0583319    0.0032026
h    -0.2444423   -1.4918239   -0.2677850  0.00    0.0219034    0.0283853   -0.0008261
c     3.6823175    1.0577309   -0.3491984  0.00    0.0044310    0.0023638    0.0131544
c     4.7335788    0.0253681    0.1263265  0.00   -0.0385239    0.0027134    0.0032502
h     3.7915677    1.9927814    0.2443539  0.00    0.0005437    0.0008438   -0.0036670
h     3.8832250    1.3381699   -1.4075503  0.00    0.0003631    0.0003134   -0.0013229
c     6.0793691    0.7186026    0.3494129  0.00    0.0690461    0.1820364    0.0948623
n     4.9404522   -1.0816965   -0.8635838  0.00    0.0704972   -0.0240455   -0.0285680
h     4.4434603   -0.4129469    1.1014482  0.00    0.0006013   -0.0030143   -0.0085088
h     4.2544991   -0.9898919   -1.6364897  0.00    0.0054748    0.0080928    0.0142550
h     5.8635288   -0.9324702   -1.3153970  0.00    0.1246574    0.1517839    0.1296676
h    -2.3766538    3.0216584    0.0118428  0.00   -0.0006642    0.0002012    0.0000095
h    -2.1484867    0.5552431   -0.0894653  0.00   -0.0023880    0.0021154   -0.0000103
h    -0.3763896    4.4570615   -0.0070885  0.00    0.0004897    0.0002981    0.0001385
h     1.8764863    3.4602569   -0.1246378  0.00   -0.0001710    0.0016759    0.0003362
h     2.3237419   -1.6222321   -0.3363034  0.00   -0.0235264   -0.0073443    0.0007125
o     6.2441293    1.7240289    1.1314698  0.00   -0.0255908   -0.1439989   -0.1033926
o     7.1112989    0.1780741   -0.3801217  0.00   -0.1940831   -0.1960381   -0.0798507
h     7.3432912    0.8942672   -1.0806979  0.00   -0.0169978    0.0191488   -0.0271504
    27
 Energy =       0.2578103340
c    -1.4008993    2.5137829   -0.0436691  0.00   -0.0246039    0.0201195    0.0014985
c    -1.2703771    1.1410781   -0.1286917  0.00   -0.0451068   -0.0179677    0.0012235
c     0.0009907    0.6165786   -0.1701047  0.00   -0.0454421   -0.0957632    0.0015016
c    -0.2854426    3.3272346   -0.0138673  0.00   -0.0117820    0.0368388    0.0014726
c     0.9832442    2.7802123   -0.0632755  0.00    0.0061470    0.0343563    0.0003897
c     1.1182698    1.4031801   -0.1366869  0.00    0.0276821    0.0282678    0.0009531
n     0.3887180   -0.7165161   -0.3305093  0.00    0.0717700    0.0544583   -0.0042402
c     2.2414814    0.5822297   -0.2032975  0.00    0.0738124   -0.0302542   -0.0082816
c     1.7900656   -0.7055610   -0.2784854  0.00   -0.0472180   -0.0492849    0.0037641
h    -0.2268336   -1.5370181   -0.4265381  0.00    0.0165603    0.0213688   -0.0013720
c     3.6721489    1.0749447   -0.2821327  0.00    0.0031916    0.0016732    0.0115015
c     4.7490245    0.0409857    0.1347414  0.00   -0.0333336    0.0024343    0.0036070
h     3.7616113    1.9766391    0.3676011  0.00    0.0003266    0.0026529   -0.0020116
h     3.8719906    1.4199858   -1.3236012  0.00    0.0008663    0.0009632   -0.0030965
c     6.0881537    0.7501158    0.3412745  0.00    0.0578412    0.1574974    0.0828927
n     4.9400880   -1.0325034   -0.8921203  0.00    0.0611862   -0.0221195   -0.0241608
h     4.4896595   -0.4276095    1.1062450  0.00    0.0002772   -0.0029217   -0.0065025
h     4.2360449   -0.9246416   -1.6487919  0.00    0.0042422    0.0070251    0.0116784
h     5.8501546   -0.8569015   -1.3677656  0.00    0.1098981    0.1325967    0.1120064
h    -2.3931537    2.9579018   -0.0088980  0.00   -0.0007413    0.0001339    0.0000124
h    -2.1440428    0.4977398   -0.1742489  0.00   -0.0028486    0.0011349   -0.0000605
h    -0.4039203    4.4067335    0.0483970  0.00    0.0005353    0.0005674    0.0001292
h     1.8555734    3.4278254   -0.0415688  0.00    0.0003513    0.0018346    0.0002986
h     2.3642200   -1.6221328   -0.3414199  0.00   -0.0201021   -0.0066576    0.0006815
o     6.2426781    1.7644037    1.1381363  0.00   -0.0220645   -0.1239765   -0.0891759
o     7.1197532    0.2624229   -0.4309118  0.00   -0.1685835   -0.1784049   -0.0655058
h     7.3919305    1.0388046   -1.0513019  0.00   -0.0128615    0.0234272   -0.0292033
    27
 Energy =       0.2502709050
c    -1.4021696    2.5047028   -0.0179266  0.00   -0.0231142    0.0187225    0.0014005
c    -1.2689632    1.1317636   -0.0746363  0.00   -0.0420602   -0.0171946    0.0010501
c     0.0013638    0.6106550   -0.1287635  0.00   -0.0416705   -0.0871957    0.0012203
c    -0.2891395    3.3212103   -0.0243213  0.00   -0.0106217    0.0345780    0.0014069
c     0.9787585    2.7769741   -0.0865799  0.00    0.0059156    0.0322410    0.0004201
c     1.1146136    1.4007567   -0.1354561  0.00    0.0259815    0.0266912    0.0009269
n     0.3878645   -0.7312561   -0.2320775  0.00    0.0644812    0.0492530   -0.0035913
c     2.2374329    0.5862025   -0.2091797  0.00    0.0691604   -0.0276599   -0.0076268
c     1.7936724   -0.7046730   -0.2501369  0.00   -0.0414767   -0.0449928    0.0032730
h    -0.2266617   -1.5607882   -0.2677850  0.00    0.0135911    0.0174680   -0.0012852
c     3.6651140    1.0827248   -0.3165283  0.00    0.0031831    0.0017063    0.0107523
c     4.7469863    0.0496869    0.0903402  0.00   -0.0309248    0.0022958    0.0034100
h     3.7632714    1.9864711    0.3291341  0.00    0.0003232    0.0024933   -0.0018267
h     3.8482658    1.4239588   -1.3621733  0.00    0.0008500    0.0009221   -0.0030225
c     6.0852010    0.7562605    0.3001478  0.00    0.0535208    0.1464154    0.0770267
n     4.9307477   -1.0187277   -0.9417236  0.00    0.0566436   -0.0207341   -0.0221757
h     4.4925047   -0.4233383    1.0614673  0.00    0.0002361   -0.0027243   -0.0060271
h     4.2351482   -0.8978351   -1.7054416  0.00    0.0036780    0.0065818    0.0106919
h     5.8522901   -0.8605439   -1.4049832  0.00    0.1030103    0.1237134    0.1042075
h    -2.3950396    2.9465322    0.0273732  0.00   -0.0007870    0.0000761    0.0000104
h    -2.1411464    0.4838868   -0.0821843  0.00   -0.0032227    0.0005407   -0.0000679
h    -0.4094427    4.4016049    0.0184804  0.00    0.0005845    0.0007432    0.0001281
h     1.8500576    3.4268943   -0.0949282  0.00    0.0006870    0.0020158    0.0002793
h     2.3775714   -1.6149406   -0.3198618  0.00   -0.0185993   -0.0062502    0.0005562
o     6.2386308    1.7691392    1.1093338  0.00   -0.0204623   -0.1152489   -0.0828033
o     7.1258572    0.2637262   -0.4574129  0.00   -0.1575536   -0.1678191   -0.0598402
h     7.4383424    1.0488672   -1.0456681  0.00   -0.0113532    0.0233619   -0.0284934
    27
 Energy =       0.2336352754
c    -1.4097181    2.4614617    0.0161932  0.00   -0.0184569    0.0148447    0.0011027
c    -1.2650539    1.0920644   -0.0133033  0.00   -0.0333747   -0.0140199    0.0006382
c     0.0037576    0.5819528   -0.0789082  0.00   -0.0326000   -0.0674085    0.0001714
c    -0.3054792    3.2850058   -0.0247018  0.00   -0.0080375    0.0276463    0.0012023
c     0.9617485    2.7503132   -0.0985004  0.00    0.0049560    0.0257439    0.0004678
c     1.1033787    1.3794168   -0.1231405  0.00    0.0206575    0.0215597    0.0008339
n     0.3964212   -0.7668927   -0.1291560  0.00    0.0489680    0.0377119   -0.0016824
c     2.2275962    0.5845713   -0.2023946  0.00    0.0551153   -0.0212745   -0.0057700
c     1.8065660   -0.7108453   -0.2108355  0.00   -0.0310122   -0.0347628    0.0018412
h    -0.2088337   -1.6089613   -0.1090318  0.00    0.0092053    0.0115984   -0.0007496
c     3.6471951    1.0997986   -0.3369912  0.00    0.0022261    0.0018569    0.0087237
c     4.7507970    0.0709289    0.0245115  0.00   -0.0238678    0.0019038    0.0031904
h     3.7498440    1.9894404    0.3274296  0.00    0.0001110    0.0021930   -0.0012685
h     3.8017151    1.4653124   -1.3790983  0.00    0.0007789    0.0009642   -0.0030328
c     6.0828865    0.7845457    0.2307767  0.00    0.0422963    0.1157895    0.0600021
n     4.9155193   -0.9724344   -1.0326039  0.00    0.0454342   -0.0170212   -0.0177062
h     4.5208348   -0.4236393    0.9926100  0.00    0.0000822   -0.0023620   -0.0042616
h     4.2186020   -0.8310054   -1.7940558  0.00    0.0026517    0.0051786    0.0080505
h     5.8428265   -0.8221342   -1.4947059  0.00    0.0844743    0.1007242    0.0842805
h    -2.4054101    2.8957043    0.0710025  0.00   -0.0007319    0.0000348    0.0000068
h    -2.1304208    0.4352857    0.0147406  0.00   -0.0030897   -0.0000548   -0.0000493
h    -0.4336608    4.3651789   -0.0010703  0.00    0.0005446    0.0008264    0.0001106
h     1.8284819    3.4056066   -0.1358132  0.00    0.0009036    0.0018756    0.0002161
h     2.4154647   -1.6052373   -0.2863564  0.00   -0.0144441   -0.0052241    0.0002920
o     6.2278523    1.7970911    1.0706245  0.00   -0.0163870   -0.0909066   -0.0648946
o     7.1373857    0.3150689   -0.5253155  0.00   -0.1350942   -0.1525953   -0.0393263
h     7.5508347    1.1423175   -0.9933972  0.00   -0.0013089    0.0351779   -0.0323891
    27
 Energy =       0.2135289728
c    -1.4228943    2.3790770    0.0408914  0.00   -0.0108777    0.0088722    0.0006471
c    -1.2558681    1.0173433    0.0298989  0.00   -0.0197254   -0.0083848    0.0001868
c     0.0123930    0.5279265   -0.0415506  0.00   -0.0194394   -0.0393412   -0.0004859
c    -0.3346979    3.2154676   -0.0227416  0.00   -0.0044066    0.0164708    0.0008254
c     0.9336073    2.6992358   -0.1013017  0.00    0.0032973    0.0152199    0.0004218
c     1.0887429    1.3379871   -0.1077057  0.00    0.0119537    0.0130870    0.0006461
n     0.4194362   -0.8243042   -0.0654262  0.00    0.0279062    0.0216136   -0.0002881
c     2.2179351    0.5766164   -0.1842745  0.00    0.0325579   -0.0120440   -0.0029130
c     1.8350751   -0.7249403   -0.1696034  0.00   -0.0183394   -0.0201760    0.0006182
h    -0.1698469   -1.6816572   -0.0208835  0.00    0.0050342    0.0060166   -0.0002909
c     3.6251800    1.1265702   -0.3304586  0.00    0.0002361    0.0016800    0.0054606
c     4.7632814    0.1101225   -0.0376188  0.00   -0.0133816    0.0011179    0.0028659
h     3.7222819    1.9875817    0.3725960  0.00   -0.0002979    0.0022377   -0.0001118
h     3.7486640    1.5398815   -1.3592295  0.00    0.0007340    0.0012111   -0.0032839
c     6.0822906    0.8443275    0.1649475  0.00    0.0242241    0.0687442    0.0342046
n     4.9043713   -0.8918840   -1.1327939  0.00    0.0283040   -0.0118086   -0.0095330
h     4.5704493   -0.4184089    0.9231967  0.00   -0.0002009   -0.0019545   -0.0013297
h     4.1764688   -0.7495946   -1.8685542  0.00    0.0006456    0.0032815    0.0036536
h     5.8179508   -0.7193056   -1.6253632  0.00    0.0587156    0.0672049    0.0539917
h    -2.4245446    2.7986029    0.1001777  0.00   -0.0005672    0.0000790    0.0000062
h    -2.1084698    0.3460955    0.0787726  0.00   -0.0021358   -0.0002825   -0.0000299
h    -0.4786017    4.2938546   -0.0134313  0.00    0.0003585    0.0007287    0.0000765
h     1.7912412    3.3647023   -0.1570473  0.00    0.0007768    0.0012159    0.0001189
h     2.4833923   -1.5940950   -0.2373416  0.00   -0.0079797   -0.0038139    0.0000858
o     6.2047170    1.8574643    1.0513255  0.00   -0.0105396   -0.0527485   -0.0366276
o     7.1559201    0.4401777   -0.6093835  0.00   -0.1011055   -0.1274071   -0.0187476
h     7.6726564    1.3010706   -0.8985883  0.00    0.0142526    0.0491803   -0.0301681
    27
 Energy =       0.2028063207
c    -1.4395637    2.2937026    0.0489215  0.00   -0.0068357    0.0054829    0.0004197
c    -1.2454818    0.9385122    0.0678586  0.00   -0.0119472   -0.0055295   -0.0000194
c     0.0267302    0.4729572   -0.0088908  0.00   -0.0118675   -0.0232761   -0.0007190
c    -0.3699957    3.1472845   -0.0486000  0.00   -0.0021755    0.0103888    0.0005848
c     0.9035837    2.6535004   -0.1312888  0.00    0.0023145    0.0095649    0.0003724
c     1.0807890    1.2994465   -0.1075108  0.00    0.0072482    0.0080739    0.0005138
n     0.4555110   -0.8767515    0.0002333  0.00    0.0161178    0.0120784    0.0002569
c     2.2195838    0.5671760   -0.1772216  0.00    0.0195542   -0.0063898   -0.0016632
c     1.8717630   -0.7406608   -0.1238213  0.00   -0.0109784   -0.0123558    0.0000340
h    -0.1163499   -1.7468488    0.0741904  0.00    0.0024742    0.0026096   -0.0000352
c     3.6136509    1.1472993   -0.3472989  0.00    0.0001800    0.0016000    0.0033066
c     4.7802961    0.1584916   -0.0726532  0.00   -0.0082048    0.0005466    0.0016405
h     3.7021045    2.0089114    0.3554295  0.00   -0.0001554    0.0013850   -0.0000574
h     3.7120915    1.5626005   -1.3769189  0.00    0.0004937    0.0008521   -0.0022311
c     6.0802191    0.9254761    0.1343334  0.00    0.0128975    0.0415145    0.0206964
n     4.9282465   -0.8281511   -1.1770866  0.00    0.0180075   -0.0115654    0.0057701
h     4.6073856   -0.3811154    0.8861684  0.00   -0.0002394   -0.0013385   -0.0005735
h     4.1318629   -0.7628332   -1.8608044  0.00   -0.0083889    0.0031815   -0.0039725
h     5.7940200   -0.5814210   -1.7361406  0.00    0.0479722    0.0472777    0.0303208
h    -2.4483565    2.6952352    0.1119249  0.00   -0.0005402    0.0001193    0.0000126
h    -2.0830195    0.2512524    0.1452430  0.00   -0.0017478   -0.0006377    0.0000081
h    -0.5341406    4.2229585   -0.0627471  0.00    0.0002598    0.0009527    0.0000445
h     1.7482362    3.3328682   -0.2134805  0.00    0.0008582    0.0011120    0.0000430
h     2.5497485   -1.5895720   -0.1720567  0.00   -0.0043816   -0.0029470   -0.0000483
o     6.1708945    1.9322222    1.0563040  0.00   -0.0069203   -0.0303799   -0.0204464
o     7.1683094    0.5975502   -0.6610908  0.00   -0.0682831   -0.0927721   -0.0124475
h     7.7230126    1.4598237   -0.8244872  0.00    0.0142880    0.0404521   -0.0218104
    27
 Energy =       0.1956694192
c    -1.4591557    2.2333328    0.0101872  0.00   -0.0039812    0.0032738    0.0002757
c    -1.2430985    0.8839140    0.0399752  0.00   -0.0068673   -0.0032093    0.0000146
c     0.0338458    0.4386348   -0.0266652  0.00   -0.0068319   -0.0131216   -0.0004014
c    -0.4036127    3.1014347   -0.0872111  0.00   -0.0012558    0.0060613    0.0003709
c     0.8761134    2.6270300   -0.1569329  0.00    0.0015243    0.0054655    0.0002157
c     1.0717868    1.2789770   -0.1225559  0.00    0.0039366    0.0046322    0.0002995
n     0.4806037   -0.9069625   -0.0068134  0.00    0.0086310    0.0066367    0.0001184
c     2.2198787    0.5700759   -0.1736485  0.00    0.0109438   -0.0037958   -0.0008276
c     1.8984618   -0.7420012   -0.1122386  0.00   -0.0059083   -0.0069717   -0.0000099
h    -0.0787351   -1.7866654    0.0637801  0.00    0.0012979    0.0012676   -0.0000134
c     3.6074065    1.1752579   -0.3155734  0.00    0.0001423    0.0006883    0.0019503
c     4.7854003    0.1892687   -0.0830853  0.00   -0.0045524    0.0001565    0.0012777
h     3.6829523    2.0061902    0.4259400  0.00   -0.0001346    0.0017639    0.0007593
h     3.7031345    1.6356461   -1.3262681  0.00    0.0004679    0.0009789   -0.0022865
c     6.0800449    0.9588618    0.1537616  0.00    0.0064491    0.0229619    0.0100464
n     4.9215058   -0.7639670   -1.2171415  0.00    0.0107450   -0.0073192    0.0027143
h     4.6210302   -0.3801243    0.8604722  0.00   -0.0002938   -0.0010875    0.0001720
h     4.1262762   -0.6798136   -1.8971434  0.00   -0.0049069    0.0016284   -0.0025877
h     5.7875381   -0.5227543   -1.7728013  0.00    0.0300750    0.0296866    0.0190989
h    -2.4745124    2.6192815    0.0642275  0.00   -0.0004765    0.0001610    0.0000189
h    -2.0691473    0.1836730    0.1171998  0.00   -0.0011131   -0.0004440    0.0000173
h    -0.5844448    4.1741058   -0.1102836  0.00    0.0001114    0.0007245    0.0000266
h     1.7115696    3.3175345   -0.2369458  0.00    0.0006065    0.0006714    0.0000027
h     2.5990098   -1.5740713   -0.1409196  0.00   -0.0020136   -0.0020453   -0.0000218
o     6.1537768    1.9354455    1.1246918  0.00   -0.0039139   -0.0158089   -0.0094506
o     7.1898562    0.6741792   -0.6297651  0.00   -0.0483646   -0.0681631   -0.0070990
h     7.7936465    1.5134316   -0.6657341  0.00    0.0156828    0.0352078   -0.0146813
    27
 Energy =       0.1922517768
c    -1.4688095    2.1986807   -0.0544344  0.00   -0.0026712    0.0022863    0.0002038
c    -1.2409673    0.8527910   -0.0072607  0.00   -0.0045255   -0.0021264    0.0000307
c     0.0390729    0.4183093   -0.0557178  0.00   -0.0044685   -0.0084198   -0.0002770
c    -0.4203379    3.0741217   -0.1501819  0.00   -0.0009616    0.0040526    0.0002712
c     0.8633266    2.6101050   -0.1999191  0.00    0.0010936    0.0035763    0.0001443
c     1.0691518    1.2655405   -0.1486533  0.00    0.0024347    0.0029914    0.0001966
n     0.4954349   -0.9243318   -0.0156319  0.00    0.0054351    0.0041225    0.0000790
c     2.2225558    0.5684857   -0.1756871  0.00    0.0070653   -0.0025426   -0.0005648
c     1.9140733   -0.7451914   -0.1018872  0.00   -0.0035731   -0.0045483   -0.0000326
h    -0.0578248   -1.8082641    0.0561106  0.00    0.0008206    0.0007692   -0.0000090
c     3.6076873    1.1850693   -0.2955947  0.00    0.0003128    0.0003249    0.0011928
c     4.7888391    0.2027956   -0.0674122  0.00   -0.0034930   -0.0001222    0.0007102
h     3.6705367    2.0045690    0.4593391  0.00   -0.0000743    0.0013164    0.0006350
h     3.7104479    1.6602947   -1.2979902  0.00    0.0003506    0.0006702   -0.0016332
c     6.0738384    0.9755377    0.2152906  0.00    0.0027091    0.0141423    0.0048427
n     4.9426865   -0.7248024   -1.2195909  0.00    0.0065904   -0.0061611    0.0031081
h     4.6131578   -0.3876220    0.8612550  0.00   -0.0003629   -0.0008984    0.0004300
h     4.1268814   -0.6729786   -1.8776858  0.00   -0.0045724    0.0014377   -0.0024216
h     5.7828753   -0.4402067   -1.7938173  0.00    0.0224658    0.0206923    0.0116525
h    -2.4880035    2.5762542   -0.0155256  0.00   -0.0004506    0.0001923    0.0000199
h    -2.0611472    0.1460620    0.0691412  0.00   -0.0007549   -0.0003066    0.0000156
h    -0.6102140    4.1447588   -0.1871070  0.00    0.0000146    0.0006053    0.0000187
h     1.6940491    3.3063217   -0.2772678  0.00    0.0004274    0.0004492   -0.0000050
h     2.6253864   -1.5688320   -0.1076826  0.00   -0.0009932   -0.0015543   -0.0000091
o     6.1297641    1.8906319    1.2550449  0.00   -0.0028327   -0.0068238   -0.0014509
o     7.1932174    0.7661429   -0.5816440  0.00   -0.0354069   -0.0554574   -0.0075962
h     7.8154532    1.5856724   -0.5069809  0.00    0.0154209    0.0313323   -0.0095518
    27
 Energy =       0.1908268633
c    -1.4755744    2.1796298   -0.1345228  0.00   -0.0022399    0.0019420    0.0001719
c    -1.2419856    0.8358080   -0.0711455  0.00   -0.0037256   -0.0016825    0.0000381
c     0.0401902    0.4070408   -0.0972194  0.00   -0.0035626   -0.0066414   -0.0002247
c    -0.4300556    3.0587658   -0.2236450  0.00   -0.0009552    0.0033253    0.0002275
c     0.8561296    2.6003467   -0.2499997  0.00    0.0009945    0.0028396    0.0001115
c     1.0671040    1.2577724   -0.1828136  0.00    0.0018724    0.0023564    0.0001556
n     0.5013922   -0.9334831   -0.0373239  0.00    0.0041977    0.0031575    0.0000657
c     2.2236219    0.5667240   -0.1842609  0.00    0.0056571   -0.0021078   -0.0004708
c     1.9207728   -0.7474611   -0.1019611  0.00   -0.0026156   -0.0036185   -0.0000319
h    -0.0492429   -1.8192915    0.0336523  0.00    0.0006457    0.0005987   -0.0000079
c     3.6083091    1.1887321   -0.2836535  0.00    0.0001332    0.0001797    0.0008731
c     4.7890665    0.2128810   -0.0269597  0.00   -0.0031031   -0.0000370    0.0007725
h     3.6535875    2.0132296    0.4669988  0.00   -0.0001160    0.0011623    0.0006431
h     3.7273591    1.6575352   -1.2870370  0.00    0.0002792    0.0005649   -0.0014528
c     6.0615224    0.9912140    0.2976077  0.00    0.0019192    0.0109939    0.0037622
n     4.9779807   -0.7082063   -1.1788728  0.00    0.0054364   -0.0059137    0.0029348
h     4.5917644   -0.3822880    0.8944055  0.00   -0.0003734   -0.0007572    0.0006171
h     4.1561011   -0.6957737   -1.8313655  0.00   -0.0047826    0.0012337   -0.0025699
h     5.8022747   -0.3891871   -1.7578393  0.00    0.0190973    0.0170061    0.0087865
h    -2.4970358    2.5527241   -0.1138405  0.00   -0.0005256    0.0002371    0.0000203
h    -2.0597183    0.1259166    0.0003865  0.00   -0.0006314   -0.0002404    0.0000148
h    -0.6243975    4.1280577   -0.2735941  0.00   -0.0000506    0.0005723    0.0000142
h     1.6847389    3.2995833   -0.3215046  0.00    0.0003693    0.0003633   -0.0000075
h     2.6369072   -1.5669222   -0.0861251  0.00   -0.0005690   -0.0014033   -0.0000091
o     6.0862767    1.8833229    1.3604121  0.00   -0.0022165   -0.0045670   -0.0000946
o     7.1988046    0.8190931   -0.4830424  0.00   -0.0291523   -0.0468473   -0.0068086
h     7.8252377    1.6241510   -0.3482278  0.00    0.0140176    0.0272831   -0.0075311
    27
 Energy =       0.1886691097
c    -1.4545795    2.2257835   -0.2377416  0.00   -0.0018764    0.0023028    0.0000393
c    -1.2377365    0.8824694   -0.1199395  0.00   -0.0025043   -0.0017738    0.0000847
c     0.0389224    0.4381586   -0.1062010  0.00   -0.0023032   -0.0036972   -0.0002512
c    -0.3974011    3.0890173   -0.3394557  0.00   -0.0012482    0.0029241    0.0001136
c     0.8833684    2.6146848   -0.3241286  0.00    0.0008242    0.0025013    0.0000122
c     1.0765090    1.2730227   -0.2039014  0.00    0.0010314    0.0013163    0.0000817
n     0.4818229   -0.9058800    0.0150641  0.00    0.0032546    0.0005286    0.0001706
c     2.2239251    0.5698879   -0.1561847  0.00    0.0038692   -0.0009041   -0.0003878
c     1.9048710   -0.7372942   -0.0258710  0.00   -0.0013387   -0.0033136   -0.0000412
h    -0.0813109   -1.7824071    0.1082010  0.00    0.0001630   -0.0002106    0.0000309
c     3.6182676    1.1736071   -0.2427881  0.00    0.0002270    0.0002041    0.0004114
c     4.7846714    0.1773549   -0.0026211  0.00   -0.0019960   -0.0002742    0.0001749
h     3.6736053    1.9851582    0.5210535  0.00   -0.0000336    0.0009136    0.0005554
h     3.7462133    1.6549415   -1.2387315  0.00    0.0001530    0.0003648   -0.0010585
c     6.0687648    0.9304464    0.3360836  0.00    0.0000826    0.0067768    0.0023665
n     4.9559226   -0.7250973   -1.1694978  0.00    0.0035291   -0.0074886    0.0112367
h     4.5811863   -0.4294721    0.9093672  0.00   -0.0002948   -0.0005901    0.0004994
h     4.0857495   -0.7747943   -1.7599564  0.00   -0.0099664    0.0008095   -0.0056767
h     5.7115065   -0.3421715   -1.8069219  0.00    0.0191079    0.0143200   -0.0000720
h    -2.4719550    2.6113590   -0.2501123  0.00   -0.0008693    0.0005932   -0.0000255
h    -2.0646873    0.1846498   -0.0369223  0.00   -0.0004645   -0.0003815    0.0000099
h    -0.5782707    4.1585547   -0.4323472  0.00   -0.0003489    0.0013654   -0.0000725
h     1.7221059    3.3009063   -0.4043471  0.00    0.0003201    0.0004428   -0.0000338
h     2.6117771   -1.5634932    0.0396871  0.00    0.0005288   -0.0019637    0.0000517
o     6.1191461    1.7567395    1.4547139  0.00   -0.0018798    0.0000868    0.0042562
o     7.1862977    0.8183058   -0.4866477  0.00   -0.0208548   -0.0389701   -0.0101031
h     7.8424394    1.5754773   -0.2613447  0.00    0.0128884    0.0241173   -0.0023727
    27
 Energy =       0.1872507499
c    -1.4222227    2.3060324   -0.3039029  0.00   -0.0016257    0.0016175    0.0000193
c    -1.2352425    0.9606517   -0.1669954  0.00   -0.0018969   -0.0012816    0.0000857
c     0.0311543    0.4907167   -0.1262353  0.00   -0.0014088   -0.0021528   -0.0001503
c    -0.3456524    3.1459254   -0.3966309  0.00   -0.0010236    0.0022280    0.0000330
c     0.9245153    2.6457796   -0.3530251  0.00    0.0009051    0.0017086   -0.0000212
c     1.0871370    1.3024669   -0.2150830  0.00    0.0007146    0.0007570    0.0000207
n     0.4428312   -0.8607784    0.0188471  0.00    0.0016511   -0.0001227    0.0001307
c     2.2182503    0.5774420   -0.1387866  0.00    0.0024131   -0.0007138   -0.0003614
c     1.8700489   -0.7207993    0.0035035  0.00   -0.0002384   -0.0022913   -0.0000225
h    -0.1406304   -1.7243469    0.1109671  0.00   -0.0001644   -0.0005202    0.0000565
c     3.6268326    1.1527050   -0.1976181  0.00   -0.0000155    0.0002513   -0.0001195
c     4.7701118    0.1206702    0.0031748  0.00   -0.0014596   -0.0004127    0.0007813
h     3.6979343    1.9323443    0.5984211  0.00    0.0001756    0.0013738    0.0010712
h     3.7686044    1.6699763   -1.1739555  0.00   -0.0000782    0.0007210   -0.0014210
c     6.0739646    0.8270682    0.3702750  0.00    0.0005700    0.0039347    0.0011514