    27
 Energy =       0.2908374607
c    -1.4235396    2.6054793   -0.0667700  0.00   -0.0462571    0.0382600    0.0024692
c    -1.3072796    1.2134697   -0.1072300  0.00   -0.0851879   -0.0326083    0.0017660
c    -0.0178900    0.6711998   -0.1697000  0.00   -0.0892458   -0.1879352   -0.0000102
c    -0.2940599    3.4190890   -0.0891300  0.00   -0.0231509    0.0689365    0.0026427
c     0.9872197    2.8590292   -0.1560400  0.00    0.0102570    0.0639898    0.0006113
c     1.1340797    1.4562096   -0.1970299  0.00    0.0527781    0.0513343    0.0027717
n     0.3879399   -0.6395298   -0.2140799  0.00    0.1449067    0.1096816   -0.0064212
c     2.2666594    0.5727398   -0.2659299  0.00    0.1558052   -0.0858474   -0.0020394
c     1.7555995   -0.7123598   -0.2706899  0.00   -0.0990106   -0.0965956    0.0028961
h    -0.2400399   -1.4313496   -0.2047299  0.00    0.0363380    0.0477680    0.0005686
c     3.7030089    1.0223397   -0.3320099  0.00   -0.0249069    0.0122510   -0.0341190
c     4.2197688    1.4064496   -1.7267995  0.00   -0.0718068    0.1017680    0.0469842
h     4.3261788    0.2093419    0.0639454  0.00   -0.0085314    0.0137799   -0.0033073
h     3.8370289    1.8640295    0.3610799  0.00   -0.0038063   -0.0124263   -0.0049404
c     3.7734089    0.3331939   -2.7369592  0.00    0.0897830   -0.3904270   -0.0495447
n     5.7205784    1.5052196   -1.8052095  0.00    0.0839614    0.0136194   -0.0372840
h     3.7949889    2.3605393   -2.0604594  0.00    0.0263800   -0.0155605   -0.0043251
h     5.9422883    2.4421693   -2.1574494  0.00   -0.0182644   -0.0293685    0.0189142
h     6.0817983    1.5118596   -0.8448278  0.00   -0.0269643    0.0024454   -0.0267731
h    -2.4108593    3.0588691   -0.0157800  0.00   -0.0009302    0.0003150    0.0002303
h    -2.1896094    0.5822398   -0.0890100  0.00   -0.0036525    0.0037210    0.0003221
h    -0.4052699    4.5000487   -0.0535400  0.00    0.0008405    0.0004499    0.0005215
h     1.8590495    3.5066790   -0.1715100  0.00   -0.0007752    0.0032506    0.0009715
h     2.2327294   -1.6813195   -0.3062999  0.00   -0.0424124   -0.0113562    0.0046531
o     4.1225288   -0.8355638   -2.7317292  0.00   -0.0854475    0.2857004    0.0057365
o     2.9198892    0.8519998   -3.6604990  0.00    0.0241404    0.0301805    0.0416949
h     3.3595390    0.6900008   -4.5351887  0.00    0.0051601    0.0146737    0.0350105
    27
 Energy =       0.2835074856
c    -1.3795846    2.5782708    0.0128226  0.00   -0.0444911    0.0368692    0.0023710
c    -1.2643216    1.1878416   -0.0382145  0.00   -0.0819725   -0.0315033    0.0016872
c     0.0227947    0.6454296   -0.1006009  0.00   -0.0860078   -0.1789811    0.0002621
c    -0.2501702    3.3904352   -0.0057540  0.00   -0.0222937    0.0663539    0.0025300
c     1.0290825    2.8299863   -0.0788750  0.00    0.0098943    0.0615886    0.0005594
c     1.1728560    1.4292476   -0.1261377  0.00    0.0503767    0.0496643    0.0026150
n     0.4233671   -0.6669245   -0.1965200  0.00    0.1398228    0.1039653   -0.0064378
c     2.3021834    0.5498533   -0.2230733  0.00    0.1475955   -0.0818512   -0.0013889
c     1.7935006   -0.7343810   -0.2528488  0.00   -0.0957709   -0.0916151    0.0029942
h    -0.2053529   -1.4600909   -0.2089768  0.00    0.0347549    0.0456289    0.0004885
c     3.7355004    1.0004992   -0.3609171  0.00   -0.0259723    0.0115623   -0.0305990
c     4.1479767    1.4417798   -1.7771659  0.00   -0.0728821    0.0961192    0.0427371
h     4.3895443    0.1696421   -0.0482919  0.00   -0.0054954    0.0104837   -0.0021610
h     3.9151732    1.8135495    0.3589772  0.00   -0.0038461   -0.0110586   -0.0029446
c     3.6918277    0.3669077   -2.7801368  0.00    0.0866249   -0.3756772   -0.0482473
n     5.6394395    1.6099828   -1.9397262  0.00    0.0862193    0.0095270   -0.0387816
h     3.6526451    2.3817602   -2.0588461  0.00    0.0229211   -0.0120611   -0.0053365
h     5.7878626    2.5693165   -2.2825422  0.00   -0.0169387   -0.0237533    0.0161523
h     6.0660419    1.6088745   -1.0035809  0.00   -0.0239727    0.0020493   -0.0221894
h    -2.3666370    3.0321363    0.0643837  0.00   -0.0008959    0.0003019    0.0002209
h    -2.1471958    0.5569729   -0.0344168  0.00   -0.0035903    0.0034992    0.0003022
h    -0.3604861    4.4713337    0.0346844  0.00    0.0008064    0.0004448    0.0004999
h     1.9017671    3.4763837   -0.0970808  0.00   -0.0007403    0.0031243    0.0009205
h     2.2755492   -1.6986308   -0.3482157  0.00   -0.0400700   -0.0126364    0.0043057
o     4.0445117   -0.8077164   -2.7656415  0.00   -0.0821817    0.2748429    0.0056778
o     2.8347792    0.8753241   -3.7068034  0.00    0.0230280    0.0290517    0.0401979
h     3.2830795    0.7242897   -4.5800772  0.00    0.0050778    0.0140610    0.0335644
    27
 Energy =       0.2488383392
c    -1.3161234    2.5546404    0.0725774  0.00   -0.0316815    0.0264502    0.0016301
c    -1.2034896    1.1743582    0.0033616  0.00   -0.0587790   -0.0228455    0.0012461
c     0.0683153    0.6324266   -0.0573619  0.00   -0.0611659   -0.1261176    0.0021943
c    -0.1890549    3.3584294    0.0664766  0.00   -0.0160596    0.0475846    0.0016239
c     1.0781887    2.7960310   -0.0091559  0.00    0.0071912    0.0443555    0.0001472
c     1.2039171    1.4093829   -0.0690025  0.00    0.0354644    0.0363626    0.0017050
n     0.4451305   -0.6951716   -0.2166861  0.00    0.0998059    0.0718147   -0.0068531
c     2.3184087    0.5567084   -0.1868560  0.00    0.1053202   -0.0576528   -0.0001502
c     1.8337812   -0.7242596   -0.2534803  0.00   -0.0697351   -0.0628778    0.0036209
h    -0.1827276   -1.5003810   -0.2641770  0.00    0.0244912    0.0319421   -0.0002527
c     3.7501025    1.0038874   -0.3743189  0.00   -0.0187400    0.0077695   -0.0208192
c     4.0833813    1.4519625   -1.8138119  0.00   -0.0535690    0.0686669    0.0297208
h     4.4189936    0.1656076   -0.1008895  0.00   -0.0032644    0.0069687   -0.0013944
h     3.9651495    1.8189568    0.3388036  0.00   -0.0026191   -0.0076622   -0.0015276
c     3.5917845    0.3914128   -2.8070454  0.00    0.0663839   -0.2702746   -0.0349417
n     5.5568871    1.6549513   -2.0269949  0.00    0.0629708    0.0063054   -0.0314364
h     3.5465391    2.3860166   -2.0561985  0.00    0.0153967   -0.0078602   -0.0042774
h     5.6830839    2.6222020   -2.3726779  0.00   -0.0123519   -0.0165662    0.0112969
h     6.0479603    1.6307013   -1.1149872  0.00   -0.0151024    0.0013076   -0.0125483
h    -2.3021146    3.0106118    0.1224523  0.00   -0.0006538    0.0002052    0.0001591
h    -2.0860782    0.5431830   -0.0162845  0.00   -0.0027678    0.0022997    0.0001658
h    -0.2953513    4.4393777    0.1160428  0.00    0.0005753    0.0003717    0.0003474
h     1.9563673    3.4347547   -0.0230949  0.00   -0.0004839    0.0022266    0.0006351
h     2.3662670   -1.6567420   -0.4112420  0.00   -0.0272524   -0.0117500    0.0026812
o     3.9535077   -0.8277955   -2.7808304  0.00   -0.0598694    0.1977677    0.0037902
o     2.6760261    0.8555264   -3.7122353  0.00    0.0002614    0.0224834    0.0457461
h     3.1668829    0.8552943   -4.5959590  0.00    0.0162342    0.0087247    0.0074909
    27
 Energy =       0.2456306162
c    -1.2991199    2.5810637    0.0663539  0.00   -0.0292491    0.0243591    0.0015242
c    -1.1944871    1.2038472   -0.0331903  0.00   -0.0539878   -0.0215401    0.0011385
c     0.0715480    0.6550169   -0.0834969  0.00   -0.0551997   -0.1128520    0.0031769
c    -0.1673881    3.3759908    0.0942934  0.00   -0.0144244    0.0439815    0.0014443
c     1.0951331    2.8064740    0.0279914  0.00    0.0067568    0.0410296    0.0000700
c     1.2096251    1.4229508   -0.0563244  0.00    0.0328198    0.0338454    0.0015573
n     0.4351519   -0.6701383   -0.3125531  0.00    0.0893929    0.0633873   -0.0076127
c     2.3174150    0.5700276   -0.1734281  0.00    0.0973282   -0.0520988   -0.0000644
c     1.8290861   -0.7056433   -0.2795048  0.00   -0.0612299   -0.0565688    0.0039181
h    -0.1995167   -1.4688491   -0.4229301  0.00    0.0204154    0.0267570   -0.0007702
c     3.7536847    1.0087129   -0.3550422  0.00   -0.0176335    0.0070396   -0.0189130
c     4.0965576    1.4211681   -1.8056049  0.00   -0.0489796    0.0628612    0.0274425
h     4.4154849    0.1720610   -0.0572358  0.00   -0.0028310    0.0061332   -0.0011783
h     3.9677594    1.8406940    0.3396806  0.00   -0.0024257   -0.0067796   -0.0012071
c     3.5758785    0.3566117   -2.7796198  0.00    0.0656366   -0.2489114   -0.0284492
n     5.5719909    1.5931585   -2.0210056  0.00    0.0581293    0.0052495   -0.0288837
h     3.5777772    2.3634010   -2.0617000  0.00    0.0140712   -0.0067530   -0.0037843
h     5.7232002    2.5524032   -2.3823372  0.00   -0.0111359   -0.0145185    0.0101250
h     6.0671684    1.5651690   -1.1102700  0.00   -0.0137310    0.0012518   -0.0115231
h    -2.2828430    3.0427822    0.1074740  0.00   -0.0006949    0.0001476    0.0001452
h    -2.0807903    0.5791591   -0.0924763  0.00   -0.0031771    0.0015372    0.0000840
h    -0.2667495    4.4567003    0.1635430  0.00    0.0006026    0.0005809    0.0003259
h     1.9786332    3.4383500    0.0403150  0.00   -0.0001224    0.0022986    0.0005677
h     2.3681487   -1.6319783   -0.4521598  0.00   -0.0251685   -0.0110538    0.0024026
o     3.9363544   -0.8727441   -2.7475941  0.00   -0.0555044    0.1812541    0.0029389
o     2.5876263    0.7936945   -3.6283160  0.00   -0.0093346    0.0212073    0.0463398
h     3.0484055    0.8919902   -4.5284378  0.00    0.0196768    0.0081550   -0.0008148
    27
 Energy =       0.2414497032
c    -1.3078618    2.5413588    0.0726231  0.00   -0.0278306    0.0231686    0.0014529
c    -1.1976241    1.1644920   -0.0126992  0.00   -0.0513449   -0.0206248    0.0010264
c     0.0690560    0.6217094   -0.0707894  0.00   -0.0520689   -0.1061592    0.0029972
c    -0.1801035    3.3412513    0.0830075  0.00   -0.0136158    0.0418794    0.0013874
c     1.0831004    2.7771433    0.0100792  0.00    0.0065081    0.0390338    0.0000776
c     1.2015083    1.3951323   -0.0640539  0.00    0.0312602    0.0323559    0.0014932
n     0.4361603   -0.7110660   -0.2602426  0.00    0.0837368    0.0594438   -0.0070974
c     2.3111006    0.5506777   -0.1843177  0.00    0.0926949   -0.0493694    0.0000109
c     1.8334701   -0.7284508   -0.2746074  0.00   -0.0567146   -0.0532121    0.0035168
h    -0.1942364   -1.5196788   -0.3321474  0.00    0.0185993    0.0243989   -0.0007581
c     3.7443945    0.9974904   -0.3632967  0.00   -0.0175015    0.0065169   -0.0176792
c     4.0740987    1.4522785   -1.8033833  0.00   -0.0468970    0.0596175    0.0265790
h     4.4135377    0.1557539   -0.0942024  0.00   -0.0025011    0.0054242   -0.0009970
h     3.9589350    1.8116315    0.3534387  0.00   -0.0022857   -0.0061463   -0.0008733
c     3.5873155    0.3955899   -2.8029821  0.00    0.0663378   -0.2374356   -0.0227047
n     5.5438730    1.6704935   -2.0113234  0.00    0.0563304    0.0042949   -0.0276619
h     3.5264553    2.3848877   -2.0370775  0.00    0.0131469   -0.0055910   -0.0033845
h     5.6674756    2.6404226   -2.3579569  0.00   -0.0103855   -0.0129414    0.0093368
h     6.0391903    1.6441050   -1.0999441  0.00   -0.0129028    0.0012765   -0.0109897
h    -2.2933329    2.9987898    0.1200548  0.00   -0.0007028    0.0001318    0.0001373
h    -2.0812940    0.5340939   -0.0500932  0.00   -0.0032315    0.0012908    0.0000658
h    -0.2837611    4.4221229    0.1436228  0.00    0.0005935    0.0006042    0.0003124
h     1.9641706    3.4126751    0.0088217  0.00   -0.0000129    0.0022377    0.0005192
h     2.3819674   -1.6494201   -0.4462610  0.00   -0.0239220   -0.0105693    0.0022060
o     3.9668236   -0.8338886   -2.7785329  0.00   -0.0531599    0.1718460    0.0020965
o     2.6641569    0.8452182   -3.7206310  0.00   -0.0200143    0.0184445    0.0509893
h     3.2071587    1.0272601   -4.5706812  0.00    0.0258840    0.0100834   -0.0120588
    27
 Energy =       0.2355945902
c    -1.3018343    2.5273192    0.0933605  0.00   -0.0265464    0.0219807    0.0013913
c    -1.1880651    1.1500748    0.0352462  0.00   -0.0487386   -0.0200137    0.0008836
c     0.0780072    0.6113041   -0.0355706  0.00   -0.0485672   -0.0981916    0.0027409
c    -0.1771855    3.3307129    0.0696686  0.00   -0.0125904    0.0399532    0.0013400
c     1.0854034    2.7697851   -0.0153830  0.00    0.0063583    0.0372116    0.0001108
c     1.2056299    1.3885415   -0.0673683  0.00    0.0298754    0.0311004    0.0014440
n     0.4460834   -0.7314217   -0.1629980  0.00    0.0770199    0.0544415   -0.0063909
c     2.3146041    0.5495040   -0.1929226  0.00    0.0884671   -0.0461408    0.0000433
c     1.8446257   -0.7332905   -0.2479871  0.00   -0.0510334   -0.0494102    0.0029617
h    -0.1811417   -1.5490590   -0.1733943  0.00    0.0156953    0.0206219   -0.0006597
c     3.7446135    0.9990456   -0.3873649  0.00   -0.0167600    0.0062471   -0.0165823
c     4.0537385    1.4765388   -1.8239477  0.00   -0.0445629    0.0562664    0.0252445
h     4.4198170    0.1545595   -0.1404621  0.00   -0.0021895    0.0049495   -0.0008760
h     3.9679388    1.8035146    0.3383282  0.00   -0.0021777   -0.0057422   -0.0007150
c     3.5770884    0.4295424   -2.8360179  0.00    0.0640384   -0.2251038   -0.0210699
n     5.5181486    1.7186461   -2.0374466  0.00    0.0536397    0.0036936   -0.0264331
h     3.4895748    2.4039139   -2.0413115  0.00    0.0122917   -0.0050136   -0.0032086
h     5.6258117    2.6961232   -2.3706748  0.00   -0.0098063   -0.0118603    0.0087065
h     6.0233935    1.6837109   -1.1311648  0.00   -0.0121542    0.0011841   -0.0102505
h    -2.2880024    2.9821268    0.1511941  0.00   -0.0007611    0.0000810    0.0001302
h    -2.0697106    0.5147372    0.0358477  0.00   -0.0036468    0.0007187    0.0000533
h    -0.2833840    4.4123424    0.1121897  0.00    0.0006409    0.0007591    0.0002999
h     1.9646156    3.4077888   -0.0440514  0.00    0.0003123    0.0023622    0.0004642
h     2.3986873   -1.6515098   -0.4166233  0.00   -0.0227764   -0.0101134    0.0020139
o     3.9416847   -0.8104746   -2.8037491  0.00   -0.0502245    0.1626029    0.0019488
o     2.6907130    0.8906351   -3.7849773  0.00   -0.0319501    0.0177610    0.0648144
h     3.2348791    0.9173625   -4.6659953  0.00    0.0361465    0.0096550   -0.0284053
    27
 Energy =       0.2285959320
c    -1.2766886    2.5184005    0.1349516  0.00   -0.0236652    0.0193527    0.0012281
c    -1.1613699    1.1426086    0.1014764  0.00   -0.0431849   -0.0180606    0.0006501
c     0.1008418    0.6055594    0.0153099  0.00   -0.0423753   -0.0852578    0.0019063
c    -0.1548279    3.3216402    0.0757980  0.00   -0.0108296    0.0355436    0.0012238
c     1.1042689    2.7612674   -0.0250941  0.00    0.0058688    0.0330550    0.0001585
c     1.2222099    1.3827171   -0.0564120  0.00    0.0265815    0.0278590    0.0013367
n     0.4665613   -0.7451843   -0.0618327  0.00    0.0657956    0.0471111   -0.0047393
c     2.3264769    0.5500576   -0.1944100  0.00    0.0785298   -0.0402833    0.0001905
c     1.8645752   -0.7341625   -0.2165289  0.00   -0.0428365   -0.0429010    0.0019438
h    -0.1571071   -1.5684902   -0.0146411  0.00    0.0121937    0.0160631   -0.0003076
c     3.7519956    0.9989754   -0.4241242  0.00   -0.0147178    0.0056438   -0.0143257
c     4.0206076    1.4884595   -1.8649948  0.00   -0.0397635    0.0495393    0.0219903
h     4.4347036    0.1521449   -0.2027561  0.00   -0.0016273    0.0041633   -0.0006961
h     3.9952184    1.7992297    0.3010859  0.00   -0.0018965   -0.0049806   -0.0004219
c     3.5344982    0.4483055   -2.8769229  0.00    0.0567417   -0.1985698   -0.0187751
n     5.4755332    1.7522535   -2.1034938  0.00    0.0477619    0.0030276   -0.0240778
h     3.4379577    2.4104360   -2.0610130  0.00    0.0105507   -0.0041352   -0.0028850
h     5.5669589    2.7356659   -2.4281859  0.00   -0.0086913   -0.0101601    0.0075427
h     6.0070590    1.7060415   -1.2111461  0.00   -0.0103162    0.0009590   -0.0083562
h    -2.2623161    2.9726716    0.2052994  0.00   -0.0007912    0.0000262    0.0001170
h    -2.0409541    0.5048590    0.1386344  0.00   -0.0037645    0.0001876    0.0000598
h    -0.2615145    4.4038315    0.1015880  0.00    0.0006484    0.0008300    0.0002667
h     1.9825899    3.3989413   -0.0830910  0.00    0.0006502    0.0023422    0.0003716
h     2.4265014   -1.6462157   -0.3939388  0.00   -0.0200559   -0.0089705    0.0016595
o     3.8923870   -0.8057057   -2.8405512  0.00   -0.0444086    0.1434153    0.0017711
o     2.6559706    0.9089157   -3.8348292  0.00   -0.0299284    0.0155454    0.0595966
h     3.1835976    0.8788501   -4.7237536  0.00    0.0335306    0.0086547   -0.0274285
    27
 Energy =       0.2273630482
c    -1.2376389    2.5286906    0.1957947  0.00   -0.0229660    0.0184363    0.0011970
c    -1.1218841    1.1531559    0.1859219  0.00   -0.0415144   -0.0176167    0.0005939
c     0.1379131    0.6156497    0.0852962  0.00   -0.0404916   -0.0812158    0.0016685
c    -0.1177754    3.3310303    0.1004716  0.00   -0.0100970    0.0343064    0.0011692
c     1.1386563    2.7696181   -0.0174877  0.00    0.0058703    0.0318814    0.0001553
c     1.2557362    1.3916499   -0.0268943  0.00    0.0255467    0.0269282    0.0013132
n     0.5029439   -0.7379345    0.0428821  0.00    0.0613052    0.0449657   -0.0041013
c     2.3555972    0.5593077   -0.1825382  0.00    0.0747307   -0.0385163    0.0005301
c     1.8952772   -0.7252407   -0.1732327  0.00   -0.0396753   -0.0407451    0.0015600
h    -0.1171830   -1.5617662    0.1389275  0.00    0.0104582    0.0138666   -0.0000743
c     3.7727413    1.0051903   -0.4730261  0.00   -0.0134231    0.0053136   -0.0130329
c     3.9842774    1.4780553   -1.9299351  0.00   -0.0390017    0.0477473    0.0210850
h     4.4637654    0.1604217   -0.2685316  0.00   -0.0013233    0.0039147   -0.0005568
h     4.0445997    1.8145699    0.2326811  0.00   -0.0015945   -0.0044092    0.0000927
c     3.4520945    0.4311526   -2.9121249  0.00    0.0551871   -0.1906668   -0.0175994
n     5.4302614    1.7362204   -2.2270293  0.00    0.0467435    0.0032789   -0.0249223
h     3.3965226    2.4004417   -2.1098479  0.00    0.0098487   -0.0038783   -0.0027520
h     5.5136545    2.7190652   -2.5568025  0.00   -0.0082361   -0.0096313    0.0071846
h     6.0025809    1.6835178   -1.3590552  0.00   -0.0086392    0.0009059   -0.0065616
h    -2.2220854    2.9836024    0.2781718  0.00   -0.0008683   -0.0000167    0.0001198
h    -1.9998096    0.5152195    0.2559210  0.00   -0.0040395   -0.0001815    0.0000881
h    -0.2244960    4.4135962    0.1091185  0.00    0.0007096    0.0009630    0.0002491
h     2.0154351    3.4064119   -0.1069399  0.00    0.0010296    0.0025589    0.0003179
h     2.4532976   -1.6363082   -0.3691492  0.00   -0.0189560   -0.0086636    0.0015050
o     3.8064818   -0.8277062   -2.8773068  0.00   -0.0426148    0.1371689    0.0015622
o     2.5299263    0.8812388   -3.8360088  0.00   -0.0306432    0.0150361    0.0564595
h     3.0248445    0.8532233   -4.7428517  0.00    0.0326546    0.0082693   -0.0272506
    27
 Energy =       0.2254653049
c    -1.2731660    2.5146193    0.1436571  0.00   -0.0228077    0.0180723    0.0011956
c    -1.1587442    1.1394188    0.1120544  0.00   -0.0409144   -0.0175793    0.0005980
c     0.1016307    0.6022709    0.0221766  0.00   -0.0397705   -0.0795635    0.0016953
c    -0.1510634    3.3171731    0.0796423  0.00   -0.0097153    0.0339326    0.0011344
c     1.1066094    2.7564235   -0.0245413  0.00    0.0059493    0.0315505    0.0001346
c     1.2220136    1.3789187   -0.0546058  0.00    0.0251573    0.0266457    0.0013015
n     0.4640610   -0.7514692   -0.0507255  0.00    0.0590045    0.0441278   -0.0039523
c     2.3246586    0.5489669   -0.1951960  0.00    0.0728700   -0.0379196    0.0007741
c     1.8649442   -0.7354720   -0.2141682  0.00   -0.0380620   -0.0397981    0.0014919
h    -0.1608359   -1.5769101    0.0023264  0.00    0.0093240    0.0124480    0.0000001
c     3.7522651    0.9982445   -0.4271944  0.00   -0.0126530    0.0050414   -0.0121379
c     4.0162660    1.4951757   -1.8689299  0.00   -0.0392131    0.0472776    0.0211671
h     4.4360098    0.1499446   -0.2122287  0.00   -0.0011806    0.0038018   -0.0004341
h     3.9992074    1.7957379    0.3019815  0.00   -0.0013479   -0.0039503    0.0005839
c     3.5324052    0.4598172   -2.8890483  0.00    0.0555261   -0.1884069   -0.0164750
n     5.4709583    1.7685380   -2.1065803  0.00    0.0472360    0.0036345   -0.0261829
h     3.4275169    2.4151816   -2.0588625  0.00    0.0095204   -0.0037447   -0.0026351
h     5.5587079    2.7544277   -2.4266268  0.00   -0.0079370   -0.0093399    0.0070655
h     6.0072377    1.7179916   -1.2144894  0.00   -0.0074697    0.0009443   -0.0052401
h    -2.2585098    2.9692481    0.2168410  0.00   -0.0009226   -0.0000475    0.0001224
h    -2.0386751    0.5012365    0.1540827  0.00   -0.0042822   -0.0004493    0.0001018
h    -0.2567427    4.3997172    0.1042053  0.00    0.0007675    0.0010910    0.0002411
h     1.9858829    3.3936689   -0.0862692  0.00    0.0013248    0.0027712    0.0002915
h     2.4325335   -1.6442453   -0.3928694  0.00   -0.0183888   -0.0086118    0.0014418
o     3.8840652   -0.8012965   -2.8484561  0.00   -0.0418655    0.1347337    0.0014895
o     2.6629009    0.9217248   -3.8592960  0.00   -0.0334193    0.0154253    0.0547790
h     3.1835976    0.8530213   -4.7504551  0.00    0.0332697    0.0079131   -0.0285518
    27
 Energy =       0.2211313974
c    -1.3032532    2.5002308    0.0939945  0.00   -0.0212568    0.0166639    0.0011211
c    -1.1901627    1.1267431    0.0408828  0.00   -0.0378572   -0.0164793    0.0006014
c     0.0688012    0.5896104   -0.0407679  0.00   -0.0367117   -0.0732705    0.0017886
c    -0.1797218    3.3013085    0.0589877  0.00   -0.0087888    0.0315183    0.0010160
c     1.0773716    2.7403607   -0.0334705  0.00    0.0056413    0.0293533    0.0000818
c     1.1894413    1.3650335   -0.0842919  0.00    0.0232485    0.0247523    0.0011933
n     0.4274967   -0.7649879   -0.1429327  0.00    0.0534095    0.0406986   -0.0038215
c     2.2923476    0.5390942   -0.2111391  0.00    0.0666195   -0.0351338    0.0008794
c     1.8358619   -0.7443285   -0.2571526  0.00   -0.0343859   -0.0365169    0.0015141
h    -0.2007438   -1.5914010   -0.1308919  0.00    0.0077474    0.0104274   -0.0000167
c     3.7286669    0.9892988   -0.3841404  0.00   -0.0112290    0.0044385   -0.0104958
c     4.0422493    1.5142456   -1.8073480  0.00   -0.0372351    0.0439567    0.0204017
h     4.4043678    0.1357602   -0.1626671  0.00   -0.0010195    0.0034529   -0.0002742
h     3.9517084    1.7727187    0.3690209  0.00   -0.0010249   -0.0032512    0.0010469
c     3.6121219    0.4949675   -2.8676263  0.00    0.0530326   -0.1753465   -0.0140925
n     5.5012140    1.8087301   -1.9817771  0.00    0.0452807    0.0037735   -0.0258539
h     3.4489220    2.4304649   -2.0044805  0.00    0.0086398   -0.0033686   -0.0023185
h     5.5916406    2.7994850   -2.2879870  0.00   -0.0071042   -0.0084082    0.0065476
h     6.0023120    1.7548789   -1.0681670  0.00   -0.0059894    0.0009523   -0.0036977
h    -2.2889473    2.9551966    0.1598517  0.00   -0.0008999   -0.0000694    0.0001167
h    -2.0713495    0.4889921    0.0572612  0.00   -0.0042106   -0.0006502    0.0001036
h    -0.2839773    4.3835930    0.0993765  0.00    0.0007708    0.0011497    0.0002199
h     1.9590318    3.3766150   -0.0690673  0.00    0.0014997    0.0027918    0.0002529
h     2.4157661   -1.6487518   -0.4187965  0.00   -0.0167257   -0.0080682    0.0013299
o     3.9550485   -0.7749939   -2.8169187  0.00   -0.0385443    0.1242566    0.0015176
o     2.8071698    0.9702943   -3.8893230  0.00   -0.0363903    0.0158075    0.0509859
h     3.3423507    0.8289148   -4.7640053  0.00    0.0334837    0.0065695   -0.0301476
    27
 Energy =       0.2139537510
c    -1.3253992    2.4871663    0.0478897  0.00   -0.0177183    0.0137522    0.0009380
c    -1.2141929    1.1171525   -0.0262276  0.00   -0.0313282   -0.0138381    0.0005914
c     0.0406081    0.5793538   -0.1026872  0.00   -0.0303935   -0.0605725    0.0018590
c    -0.2009920    3.2843168    0.0392366  0.00   -0.0071123    0.0261970    0.0007765
c     1.0530209    2.7217700   -0.0442479  0.00    0.0047729    0.0244835   -0.0000141
c     1.1589028    1.3508921   -0.1160945  0.00    0.0191964    0.0205548    0.0009499
n     0.3932620   -0.7778549   -0.2285501  0.00    0.0434246    0.0336328   -0.0035463
c     2.2585773    0.5311574   -0.2313259  0.00    0.0543341   -0.0291777    0.0007767
c     1.8083848   -0.7500768   -0.3026158  0.00   -0.0280594   -0.0300477    0.0015472
h    -0.2370214   -1.6048810   -0.2507449  0.00    0.0058071    0.0078792   -0.0000852
c     3.7018211    0.9789189   -0.3462239  0.00   -0.0089616    0.0034576   -0.0079368
c     4.0608431    1.5344266   -1.7480479  0.00   -0.0321741    0.0364019    0.0183740
h     4.3689574    0.1185281   -0.1219566  0.00   -0.0008152    0.0027697   -0.0000929
h     3.9025762    1.7468486    0.4303323  0.00   -0.0006345   -0.0023043    0.0013555
c     3.6905872    0.5361315   -2.8495279  0.00    0.0464919   -0.1467408   -0.0104403
n     5.5181190    1.8577076   -1.8545966  0.00    0.0395828    0.0033997   -0.0230917
h     3.4579099    2.4445931   -1.9501632  0.00    0.0069476   -0.0026475   -0.0017419
h     5.6088923    2.8563706   -2.1391074  0.00   -0.0055119   -0.0064631    0.0054396
h     5.9871915    1.7899411   -0.9233925  0.00   -0.0041954    0.0008732   -0.0019761
h    -2.3107015    2.9434925    0.1088351  0.00   -0.0007713   -0.0000750    0.0001004
h    -2.0960761    0.4807192   -0.0318644  0.00   -0.0036623   -0.0007215    0.0000957
h    -0.3028440    4.3661233    0.0955110  0.00    0.0006891    0.0010943    0.0001782
h     1.9373904    3.3550008   -0.0557027  0.00    0.0014804    0.0025115    0.0001892
h     2.4043760   -1.6469880   -0.4496503  0.00   -0.0135839   -0.0067938    0.0011358
o     4.0132037   -0.7525302   -2.7815049  0.00   -0.0316413    0.1021659    0.0019420
o     2.9659230    1.0258391   -3.9279759  0.00   -0.0404767    0.0176710    0.0463472
h     3.4924150    0.7679546   -4.7831725  0.00    0.0343128    0.0025375   -0.0336709
    27
 Energy =       0.2061964327
c    -1.3354715    2.4830274    0.0123002  0.00   -0.0127614    0.0097889    0.0006679
c    -1.2283071    1.1176569   -0.0821551  0.00   -0.0223821   -0.0100825    0.0005345
c     0.0197142    0.5771102   -0.1566223  0.00   -0.0217816   -0.0434509    0.0017036
c    -0.2095531    3.2729454    0.0268481  0.00   -0.0049671    0.0188270    0.0004629
c     1.0388245    2.7061672   -0.0515816  0.00    0.0034705    0.0177073   -0.0001162
c     1.1348277    1.3412809   -0.1445137  0.00    0.0136952    0.0147129    0.0006142
n     0.3627135   -0.7847485   -0.2984814  0.00    0.0307317    0.0239898   -0.0028879
c     2.2275042    0.5277696   -0.2527591  0.00    0.0383017   -0.0208609    0.0005146
c     1.7837678   -0.7497759   -0.3473342  0.00   -0.0200639   -0.0214910    0.0013879
h    -0.2697500   -1.6115613   -0.3439047  0.00    0.0038731    0.0052864   -0.0001191
c     3.6757271    0.9686395   -0.3191703  0.00   -0.0062212    0.0024289   -0.0051195
c     4.0712981    1.5477156   -1.7016984  0.00   -0.0244955    0.0255752    0.0148950
h     4.3342079    0.1011213   -0.0925496  0.00   -0.0005620    0.0018975    0.0000313
h     3.8590505    1.7242788    0.4745904  0.00   -0.0003149   -0.0014207    0.0012604
c     3.7574381    0.5696461   -2.8359975  0.00    0.0367379   -0.1061660   -0.0066493
n     5.5208462    1.9018985   -1.7450891  0.00    0.0302275    0.0022663   -0.0180625
h     3.4560292    2.4501364   -1.9095371  0.00    0.0047142   -0.0017523   -0.0010736
h     5.6096191    2.9107644   -1.9999066  0.00   -0.0034933   -0.0037521    0.0038670
h     5.9675541    1.8071612   -0.8037570  0.00   -0.0025190    0.0006311   -0.0003953
h    -2.3192245    2.9426826    0.0712368  0.00   -0.0005674   -0.0000603    0.0000755
h    -2.1113076    0.4842937   -0.1054016  0.00   -0.0027270   -0.0006497    0.0000797
h    -0.3068837    4.3541444    0.0991598  0.00    0.0005285    0.0009345    0.0001243
h     1.9268146    3.3337336   -0.0420177  0.00    0.0012504    0.0019613    0.0001168
h     2.3961062   -1.6373838   -0.4876231  0.00   -0.0095560   -0.0049253    0.0008545
o     4.0378245   -0.7468835   -2.7403199  0.00   -0.0224248    0.0711076    0.0032094
o     3.1246761    1.0722963   -3.9697764  0.00   -0.0426065    0.0218200    0.0403919
h     3.6116884    0.6779566   -4.7975147  0.00    0.0339131   -0.0043230   -0.0363679
    27
 Energy =       0.2012323005
c    -1.3328412    2.5116496   -0.0100894  0.00   -0.0085446    0.0064063    0.0004365
c    -1.2372933    1.1497757   -0.1198490  0.00   -0.0147965   -0.0068197    0.0004249
c     0.0015647    0.5992085   -0.1932892  0.00   -0.0143673   -0.0287983    0.0013192
c    -0.2010081    3.2881808    0.0213884  0.00   -0.0032515    0.0125359    0.0002470
c     1.0389652    2.7100055   -0.0547217  0.00    0.0023302    0.0118484   -0.0001392
c     1.1184295    1.3498067   -0.1633089  0.00    0.0090652    0.0096702    0.0003525
n     0.3276925   -0.7690262   -0.3420440  0.00    0.0202185    0.0157353   -0.0020646
c     2.1997502    0.5344352   -0.2674181  0.00    0.0250775   -0.0136843    0.0002911
c     1.7532458   -0.7371647   -0.3781357  0.00   -0.0131795   -0.0143020    0.0009708
h    -0.3114564   -1.5917222   -0.3992811  0.00    0.0024365    0.0033659   -0.0001000
c     3.6534072    0.9594917   -0.3036648  0.00   -0.0039704    0.0018066   -0.0030585
c     4.0792830    1.5331653   -1.6792379  0.00   -0.0169079    0.0159772    0.0109658
h     4.2995429    0.0856033   -0.0625356  0.00   -0.0002282    0.0011168    0.0000864
h     3.8283620    1.7162261    0.4911762  0.00   -0.0002101   -0.0009237    0.0008737
c     3.8044754    0.5579460   -2.8232382  0.00    0.0284989   -0.0666980   -0.0037884