    13
 Energy =       0.1506918225
c    -3.7133889    1.6950595    0.3173519  0.00   -0.1063877    0.1342726    0.0879496
c    -2.4962693    2.6345192    0.2419999  0.00    0.3381618   -0.0328650   -0.1446196
c    -4.9565486    2.3924193   -0.2155699  0.00    0.0435082    0.0359879    0.0365606
h    -5.3251685    1.8809395   -1.1121297  0.00    0.0181235   -0.0150930    0.0179000
h    -4.7411586    3.4296290   -0.4944269  0.00    0.0290463   -0.0148763    0.0385740
h    -5.7692484    2.3924493    0.5188399  0.00    0.0109105    0.0018776   -0.0139057
n    -3.4097890    0.4519539   -0.4549189  0.00    0.0279503   -0.0652059   -0.0147033
h    -3.8575589    1.4177196    1.3669296  0.00    0.0032864   -0.0069758   -0.0272896
h    -3.2072391   -0.2948399    0.2179739  0.00   -0.0177281    0.0304173   -0.0186338
h    -4.2689788    0.1396900   -0.9176007  0.00    0.0137237    0.0392946    0.0213395
o    -1.4178396    2.3555893   -0.2533479  0.00   -0.2655296    0.0603200    0.1159878
o    -2.7764392    3.8468189    0.7908148  0.00   -0.0831756   -0.0553764   -0.0080677
h    -3.6817390    3.7529189    1.1803597  0.00   -0.0118897   -0.1117775   -0.0910919
    13
 Energy =       0.0988875739
c    -3.7126504    1.6869383    0.3104896  0.00   -0.0207254    0.0478379    0.0278001
c    -2.5314401    2.6473706    0.3072110  0.00    0.0617752   -0.0089412   -0.0283181
c    -4.9963518    2.3573983   -0.2253238  0.00    0.0186389    0.0137696    0.0153232
h    -5.3750523    1.8763213   -1.1482512  0.00    0.0037604   -0.0043799    0.0038347
h    -4.8313110    3.4225471   -0.4895975  0.00    0.0122042   -0.0012012    0.0138405
h    -5.8071548    2.3036745    0.5303708  0.00    0.0015577   -0.0001033   -0.0015460
n    -3.3877908    0.4647312   -0.4610087  0.00    0.0228236   -0.0047332    0.0084116
h    -3.8692748    1.4165171    1.3773235  0.00    0.0006398   -0.0004838   -0.0058050
h    -3.1916618   -0.3209010    0.1975148  0.00   -0.0051713    0.0048842   -0.0029889
h    -4.1778112    0.1374202   -1.0763539  0.00   -0.0117710    0.0028878   -0.0100039
o    -1.3405023    2.3289689   -0.2588045  0.00   -0.0542701    0.0100663    0.0206478
o    -2.7120568    3.8724510    0.9186217  0.00    0.0066772   -0.0080048   -0.0055589
h    -3.6883078    3.9014291    1.2040839  0.00   -0.0361392   -0.0515981   -0.0356371
    13
 Energy =       0.0959372588
c    -3.6910727    1.6859203    0.2811375  0.00   -0.0122207    0.0363210    0.0213724
c    -2.5330200    2.6794300    0.2755515  0.00    0.0393760   -0.0031117   -0.0216187
c    -5.0411675    2.3249793   -0.1467590  0.00    0.0140756    0.0103216    0.0093570
h    -5.4311760    1.9014788   -1.0952393  0.00    0.0021885   -0.0031201    0.0009734
h    -4.9649326    3.4225430   -0.3308444  0.00    0.0081117    0.0058611    0.0082220
h    -5.8169918    2.1515503    0.6386555  0.00   -0.0040020   -0.0010832    0.0046715
n    -3.3652331    0.5068420   -0.5582984  0.00    0.0204562   -0.0022927    0.0042172
h    -3.7772645    1.3627211    1.3461539  0.00    0.0002900   -0.0015161   -0.0007297
h    -3.1838608   -0.3231300    0.0532074  0.00   -0.0033163    0.0006358   -0.0004167
h    -4.1360404    0.2214791   -1.2172568  0.00   -0.0099668   -0.0010136   -0.0099929
o    -1.2936636    2.3333326   -0.1923018  0.00   -0.0336389    0.0050626    0.0144109
o    -2.7168563    3.9049768    0.8914201  0.00    0.0091528   -0.0061932   -0.0046188
h    -3.6700865    3.9227432    1.2408496  0.00   -0.0305063   -0.0398714   -0.0258477
    13
 Energy =       0.0932464170
c    -3.7042824    1.6754271    0.2895643  0.00   -0.0081531    0.0207874    0.0123480
c    -2.5228815    2.6469445    0.3211684  0.00    0.0227970   -0.0017054   -0.0127996
c    -5.0254988    2.3433966   -0.1912565  0.00    0.0090020    0.0053807    0.0045687
h    -5.4380813    1.8848376   -1.1145343  0.00    0.0012018   -0.0022822   -0.0005053
h    -4.8907726    3.4268355   -0.4312874  0.00    0.0057949    0.0067716    0.0049495
h    -5.8112156    2.2550968    0.5995395  0.00   -0.0046717   -0.0010524    0.0051688
n    -3.3767462    0.4775133   -0.5197313  0.00    0.0245033    0.0137831    0.0013270
h    -3.8353306    1.3700958    1.3564040  0.00   -0.0000095   -0.0011264    0.0007658
h    -3.3426139   -0.3755562    0.1049064  0.00   -0.0008411   -0.0134175    0.0115326
h    -4.0807349    0.2658664   -1.2827808  0.00   -0.0178674   -0.0024255   -0.0168938
o    -1.2738475    2.2685285   -0.1242189  0.00   -0.0180642    0.0023297    0.0080864
o    -2.6836810    3.8907038    0.9188054  0.00    0.0072655   -0.0028760   -0.0031504
h    -3.6356796    3.9651769    1.2596971  0.00   -0.0209576   -0.0241672   -0.0153978
    13
 Energy =       0.0906846812
c    -3.7224963    1.6757306    0.3072255  0.00   -0.0028852    0.0076236    0.0050056
c    -2.5212723    2.6311674    0.3142848  0.00    0.0068521   -0.0032892   -0.0048191
c    -5.0225898    2.3460503   -0.2288942  0.00    0.0075252   -0.0002661    0.0027319
h    -5.4818513    1.8025995   -1.0885956  0.00   -0.0011691   -0.0044327   -0.0053451
h    -4.8371778    3.3929453   -0.5900406  0.00    0.0041407    0.0106819    0.0005113
h    -5.7933121    2.3896530    0.5848468  0.00   -0.0066848   -0.0006713    0.0083668
n    -3.4076846    0.4371779   -0.4424898  0.00    0.0098173    0.0046158   -0.0007247
h    -3.8795408    1.4215204    1.3845593  0.00   -0.0002516   -0.0006925    0.0018404
h    -3.3383379   -0.3787838    0.2185145  0.00   -0.0005145   -0.0068743    0.0050451
h    -4.1161967    0.1769926   -1.1737227  0.00   -0.0065272   -0.0013211   -0.0074723
o    -1.2802792    2.2130965   -0.1448908  0.00   -0.0045039    0.0001635    0.0018999
o    -2.6398428    3.9142127    0.8527651  0.00    0.0068612    0.0025371   -0.0015390
h    -3.5807844    4.0725042    1.1927134  0.00   -0.0126603   -0.0080748   -0.0055007
    13
 Energy =       0.0902963496
c    -3.7286474    1.6651672    0.2889314  0.00   -0.0015410    0.0060230    0.0045486
c    -2.5084046    2.5953868    0.3270450  0.00    0.0031224   -0.0051745   -0.0046151
c    -5.0152583    2.3882060   -0.2120384  0.00    0.0056343    0.0001004    0.0026987
h    -5.4954394    1.8874800   -1.0863633  0.00   -0.0016636   -0.0042086   -0.0055274
h    -4.8047534    3.4439119   -0.5327690  0.00    0.0036353    0.0104519    0.0001740
h    -5.7776863    2.4230720    0.6081378  0.00   -0.0058444   -0.0004831    0.0073181
n    -3.4462442    0.4484574   -0.5093240  0.00    0.0105924    0.0051110   -0.0011406
h    -3.8849631    1.3729942    1.3572269  0.00   -0.0000385   -0.0007788    0.0024144
h    -3.4163727   -0.3981580    0.1168938  0.00   -0.0002663   -0.0084856    0.0059907
h    -4.1496850    0.2463186   -1.2650893  0.00   -0.0075822   -0.0021654   -0.0088371
o    -1.2960700    2.1981712   -0.2295892  0.00    0.0008978   -0.0038443   -0.0017129
o    -2.5850676    3.8372825    0.9717476  0.00    0.0051582    0.0093812    0.0025188
h    -3.5127737    3.9865769    1.3514665  0.00   -0.0121045   -0.0059273   -0.0038302
    13
 Energy =       0.0892607819
c    -3.7351669    1.6723869    0.2856748  0.00    0.0000301    0.0004047    0.0003742
c    -2.5208825    2.6100391    0.3232367  0.00   -0.0076375   -0.0001946    0.0030711
c    -5.0134597    2.3785803   -0.2520253  0.00    0.0005889    0.0010252    0.0001523
h    -5.4698030    1.8764243   -1.1308173  0.00   -0.0003757   -0.0001954   -0.0004200
h    -4.8024007    3.4263536   -0.5676502  0.00    0.0010921    0.0008760    0.0011496
h    -5.7912709    2.4172938    0.5420207  0.00   -0.0003938    0.0000200    0.0006731
n    -3.4395361    0.4376700   -0.4733082  0.00    0.0024420    0.0014221   -0.0010576
h    -3.9084298    1.4075743    1.3567702  0.00    0.0000967   -0.0001047    0.0006390
h    -3.4688236   -0.3965442    0.1625090  0.00    0.0006103   -0.0025511    0.0023045
h    -4.0964263    0.2477256   -1.2664555  0.00   -0.0027153   -0.0002554   -0.0022188
o    -1.3458184    2.2838248   -0.3615153  0.00    0.0111436   -0.0054986   -0.0072841
o    -2.5664510    3.8018928    1.0576164  0.00    0.0014810    0.0045207    0.0016429
h    -3.4628970    3.9316452    1.5102196  0.00   -0.0063626    0.0005312    0.0009738
    13
 Energy =       0.0889741332
c    -3.7642021    1.6763704    0.2879427  0.00    0.0015280   -0.0021320   -0.0005008
c    -2.5246694    2.5774934    0.4033132  0.00   -0.0010543   -0.0009991    0.0007897
c    -4.9787350    2.4174791   -0.3534108  0.00   -0.0014144    0.0015856   -0.0028276
h    -5.3894922    1.9156870   -1.2557245  0.00   -0.0011695    0.0002092   -0.0014483
h    -4.7080483    3.4522791   -0.6720167  0.00    0.0006499    0.0022243   -0.0004616
h    -5.8117924    2.4981449    0.3839092  0.00   -0.0032413    0.0001784    0.0027602
n    -3.4499505    0.4241289   -0.4343567  0.00    0.0046565    0.0023167   -0.0012760
h    -4.0268129    1.4283936    1.3484605  0.00   -0.0007631   -0.0011231    0.0041796
h    -3.5421526   -0.4002069    0.2098153  0.00    0.0002410   -0.0036265    0.0035847
h    -4.0595548    0.2392898   -1.2665452  0.00   -0.0030071   -0.0006327   -0.0036249
o    -1.3512669    2.2649099   -0.2823618  0.00    0.0055513   -0.0030425   -0.0037212
o    -2.5557861    3.7343947    1.1910796  0.00    0.0017446    0.0049436    0.0020495
h    -3.4589026    3.8665028    1.6261711  0.00   -0.0037216    0.0000981    0.0004967
    13
 Energy =       0.0886345844
c    -3.7866424    1.6934802    0.2828292  0.00    0.0009815    0.0003802   -0.0005869
c    -2.5442011    2.5807294    0.4261135  0.00   -0.0040586   -0.0017077    0.0010064
c    -4.9528839    2.4303383   -0.4361183  0.00   -0.0001338    0.0006739   -0.0000544
h    -5.3348160    1.8987741   -1.3325193  0.00   -0.0001225    0.0001157   -0.0003206
h    -4.6486032    3.4443333   -0.7843123  0.00   -0.0002841    0.0005563   -0.0001162
h    -5.8105831    2.5599899    0.2599096  0.00   -0.0004587    0.0000926    0.0007008
n    -3.4566672    0.4152591   -0.3847033  0.00    0.0004348   -0.0012490    0.0000763
h    -4.1046765    1.4811746    1.3322748  0.00    0.0000776    0.0001331    0.0008476
h    -3.5413289   -0.3810008    0.2901108  0.00   -0.0001614   -0.0002126   -0.0005960
h    -4.0625887    0.1842924   -1.2046230  0.00    0.0004709   -0.0006186   -0.0003547
o    -1.4125160    2.3448969   -0.3544985  0.00    0.0054104   -0.0033685   -0.0050645
o    -2.5411802    3.6693905    1.3068883  0.00   -0.0010823    0.0042882    0.0035726
h    -3.4246786    3.7732087    1.7849243  0.00   -0.0010734    0.0009163    0.0008895
    13
 Energy =       0.0885371116
c    -3.8045148    1.7048863    0.2895733  0.00    0.0013408    0.0008366    0.0001992
c    -2.5539657    2.5770181    0.4571882  0.00   -0.0010050   -0.0011489    0.0004264
c    -4.9240426    2.4352934   -0.5101744  0.00   -0.0005329    0.0013911   -0.0014319
h    -5.2719813    1.8793533   -1.4063981  0.00   -0.0004411    0.0001039   -0.0010315
h    -4.5858716    3.4320467   -0.8781799  0.00   -0.0002451    0.0010638   -0.0006491
h    -5.8127047    2.6032527    0.1398011  0.00   -0.0019146    0.0004584    0.0015658
n    -3.4635823    0.3985371   -0.3172679  0.00    0.0029468   -0.0008928   -0.0016474
h    -4.1765799    1.5330523    1.3303728  0.00   -0.0006124   -0.0001635    0.0025443
h    -3.5976667   -0.3728493    0.3808340  0.00   -0.0003139   -0.0020665    0.0019435
h    -4.0328438    0.1514158   -1.1597096  0.00   -0.0005550   -0.0006270   -0.0016864
o    -1.4296472    2.3585125   -0.3344214  0.00    0.0022951   -0.0015562   -0.0022597
o    -2.5419069    3.6452813    1.3595164  0.00   -0.0004470    0.0022627    0.0017300
h    -3.4260583    3.7490665    1.8351410  0.00   -0.0005156    0.0003384    0.0002966
    13
 Energy =       0.0884486380
c    -3.8136755    1.7181424    0.2887059  0.00   -0.0001676    0.0002497    0.0000739
c    -2.5640306    2.5924815    0.4494304  0.00   -0.0028312   -0.0008169    0.0014516
c    -4.9171704    2.4276109   -0.5450048  0.00    0.0000517    0.0001637    0.0001920
h    -5.2500406    1.8511834   -1.4330158  0.00   -0.0000424   -0.0000868   -0.0001041
h    -4.5717164    3.4148481   -0.9285602  0.00    0.0000123   -0.0000058    0.0000953
h    -5.8150530    2.6103139    0.0837333  0.00    0.0001442   -0.0000213   -0.0000412
n    -3.4667468    0.3979946   -0.2791825  0.00   -0.0000483   -0.0002939   -0.0001555
h    -4.2028702    1.5709995    1.3243165  0.00    0.0001204   -0.0000321    0.0000234
h    -3.6190900   -0.3556510    0.4320581  0.00    0.0000659   -0.0000928    0.0000568
h    -4.0191442    0.1333192   -1.1263328  0.00   -0.0001254    0.0000309   -0.0001040
o    -1.4803858    2.4370770   -0.4131400  0.00    0.0041953   -0.0013808   -0.0040444
o    -2.5192105    3.6113572    1.4065199  0.00    0.0007521    0.0016788    0.0010244
h    -3.3822318    3.6851898    1.9267476  0.00   -0.0021269    0.0006073    0.0015317
    13
 Energy =       0.0884242806
c    -3.8284044    1.7274789    0.2925666  0.00    0.0003837    0.0005513    0.0003034
c    -2.5707759    2.5866911    0.4735002  0.00   -0.0012359   -0.0007577    0.0008581
c    -4.8908058    2.4316663   -0.6000116  0.00   -0.0002147    0.0006561   -0.0007903
h    -5.1999427    1.8369779   -1.4849868  0.00   -0.0002136    0.0000011   -0.0005656
h    -4.5162875    3.4034461   -0.9972273  0.00   -0.0000212    0.0005444   -0.0003941
h    -5.8088546    2.6449212   -0.0088635  0.00   -0.0010104    0.0003034    0.0006686
n    -3.4802881    0.3874255   -0.2280675  0.00    0.0015120   -0.0005543   -0.0009496
h    -4.2584623    1.6125591    1.3173123  0.00   -0.0004388   -0.0001348    0.0013098
h    -3.6676517   -0.3450437    0.4980918  0.00   -0.0001621   -0.0010709    0.0012047
h    -4.0078021    0.1076683   -1.0867122  0.00   -0.0003397   -0.0002650   -0.0007731
o    -1.4848850    2.4305962   -0.3838966  0.00    0.0025171   -0.0007977   -0.0024524
o    -2.5210370    3.5955718    1.4400096  0.00    0.0005705    0.0011626    0.0006468
h    -3.3861687    3.6749079    1.9545605  0.00   -0.0013469    0.0003614    0.0009337
    13
 Energy =       0.0883991972
c    -3.8381556    1.7372689    0.2908903  0.00   -0.0000658   -0.0001765   -0.0002255
c    -2.5782199    2.5911864    0.4786137  0.00    0.0004494   -0.0001688   -0.0006975
c    -4.8786295    2.4312862   -0.6312933  0.00    0.0000649   -0.0001692    0.0002743
h    -5.1751029    1.8238858   -1.5111474  0.00    0.0000555   -0.0000008    0.0001671
h    -4.4909185    3.3936177   -1.0367056  0.00   -0.0000171   -0.0001727    0.0001383
h    -5.8049049    2.6591925   -0.0616826  0.00    0.0003306   -0.0001088   -0.0001754
n    -3.4894509    0.3881135   -0.2012732  0.00   -0.0005039    0.0001550    0.0003078
h    -4.2884301    1.6406718    1.3068824  0.00    0.0001585   -0.0000112   -0.0003882
h    -3.6911184   -0.3304357    0.5330957  0.00    0.0000818    0.0003580   -0.0004607
h    -4.0057806    0.0952931   -1.0615566  0.00    0.0001219    0.0000682    0.0002503
o    -1.5106937    2.4636257   -0.4018654  0.00   -0.0008344    0.0000477    0.0007338
o    -2.5081775    3.5681616    1.4747537  0.00   -0.0002045    0.0001470    0.0003170
h    -3.3617834    3.6329989    2.0075640  0.00    0.0003632    0.0000320   -0.0002413
    13
 Energy =       0.0883957918
c    -3.8451406    1.7413340    0.2879898  0.00    0.0000089   -0.0001861   -0.0002396
c    -2.5787817    2.5838028    0.4854326  0.00    0.0000527   -0.0005290   -0.0005281
c    -4.8702519    2.4437440   -0.6457432  0.00   -0.0000134   -0.0000616    0.0000337
h    -5.1631489    1.8380410   -1.5280675  0.00    0.0000032    0.0000170    0.0000493
h    -4.4697065    3.4021148   -1.0486225  0.00    0.0000194    0.0000070    0.0000099
h    -5.8003978    2.6810187   -0.0857557  0.00    0.0000450   -0.0000245   -0.0000350
n    -3.5031705    0.3884260   -0.1991459  0.00   -0.0000984    0.0001039    0.0000859
h    -4.3073955    1.6494467    1.2992659  0.00    0.0000063   -0.0000844   -0.0000823
h    -3.7178803   -0.3274688    0.5345431  0.00    0.0000017    0.0000439   -0.0000849
h    -4.0144507    0.0989544   -1.0637406  0.00    0.0000328    0.0000102    0.0000614
o    -1.5236213    2.4767818   -0.4136179  0.00   -0.0000523   -0.0001831   -0.0002209
o    -2.4909568    3.5323654    1.5082388  0.00    0.0000594    0.0007259    0.0007900
h    -3.3364632    3.5863058    2.0554985  0.00   -0.0000653    0.0001609    0.0001605
    13
 Energy =       0.0883949311
c    -3.8460295    1.7428609    0.2875602  0.00   -0.0000018    0.0000189    0.0000232
c    -2.5796420    2.5854213    0.4842111  0.00   -0.0000281    0.0000228    0.0000562
c    -4.8704692    2.4439423   -0.6480466  0.00    0.0000013    0.0000079   -0.0000031
h    -5.1626019    1.8369716   -1.5298138  0.00   -0.0000010   -0.0000012   -0.0000057
h    -4.4696548    3.4017257   -1.0520345  0.00   -0.0000021    0.0000007   -0.0000002
h    -5.8010826    2.6821273   -0.0890954  0.00   -0.0000053    0.0000031    0.0000050
n    -3.5036279    0.3891609   -0.1973577  0.00    0.0000119   -0.0000123   -0.0000102
h    -4.3093112    1.6524714    1.2985478  0.00   -0.0000002    0.0000064    0.0000105
h    -3.7191680   -0.3256703    0.5372091  0.00   -0.0000006   -0.0000060    0.0000087
h    -4.0140796    0.0985903   -1.0621344  0.00   -0.0000040   -0.0000010   -0.0000086
o    -1.5289572    2.4860665   -0.4208819  0.00    0.0000513    0.0000010   -0.0000322
o    -2.4873164    3.5264241    1.5126407  0.00    0.0000192   -0.0000370   -0.0000653
h    -3.3294257    3.5747746    2.0654713  0.00   -0.0000406   -0.0000032    0.0000219
    13
 Energy =       0.0883948903
c    -3.8465982    1.7437556    0.2873645  0.00   -0.0000004    0.0000016    0.0000002
c    -2.5802893    2.5865679    0.4835447  0.00   -0.0000084   -0.0000066    0.0000012
c    -4.8704507    2.4435675   -0.6498276  0.00   -0.0000001    0.0000010   -0.0000002
h    -5.1619107    1.8354779   -1.5310389  0.00   -0.0000003   -0.0000003   -0.0000009
h    -4.4694235    3.4008673   -1.0547545  0.00   -0.0000001    0.0000005   -0.0000003
h    -5.8014669    2.6823998   -0.0918364  0.00   -0.0000006    0.0000003    0.0000004
n    -3.5037445    0.3894937   -0.1956214  0.00    0.0000014   -0.0000013   -0.0000005
h    -4.3107057    1.6545210    1.2980501  0.00   -0.0000003   -0.0000006    0.0000011
h    -3.7195965   -0.3244231    0.5397374  0.00   -0.0000001   -0.0000009    0.0000009
h    -4.0137314    0.0977332   -1.0602689  0.00   -0.0000004   -0.0000006   -0.0000011
o    -1.5323128    2.4911876   -0.4250769  0.00    0.0000141   -0.0000045   -0.0000169
o    -2.4854206    3.5239381    1.5151315  0.00    0.0000063    0.0000082    0.0000063
h    -3.3257151    3.5697801    2.0708721  0.00   -0.0000112    0.0000034    0.0000097
    13
 Energy =       0.0883948898
c    -3.8466317    1.7438080    0.2873536  0.00   -0.0000000    0.0000000    0.0000000
c    -2.5803274    2.5866338    0.4835093  0.00   -0.0000000   -0.0000000    0.0000000
c    -4.8704494    2.4435487   -0.6499280  0.00   -0.0000000    0.0000000   -0.0000000
h    -5.1618710    1.8353973   -1.5311081  0.00   -0.0000000   -0.0000000   -0.0000000
h    -4.4694089    3.4008206   -1.0549067  0.00   -0.0000000    0.0000000   -0.0000000
h    -5.8014885    2.6824180   -0.0919922  0.00   -0.0000000    0.0000000    0.0000000
n    -3.5037531    0.3895155   -0.1955238  0.00    0.0000000   -0.0000000   -0.0000000
h    -4.3107878    1.6546394    1.2980206  0.00   -0.0000000   -0.0000000    0.0000000
h    -3.7196260   -0.3243496    0.5398780  0.00    0.0000000   -0.0000000    0.0000000
h    -4.0137122    0.0976900   -1.0601651  0.00   -0.0000000   -0.0000000   -0.0000000
o    -1.5325038    2.4914791   -0.4252927  0.00    0.0000000   -0.0000000   -0.0000000
o    -2.4853123    3.5237925    1.5152617  0.00    0.0000000    0.0000000    0.0000000
h    -3.3254938    3.5694732    2.0711690  0.00   -0.0000000    0.0000000    0.0000000
