    13
 Energy =       0.1021248260
c    -3.7133889    1.6950595    0.3173519  0.00   -0.0775213    0.0189271    0.1011781
c    -2.4962693    2.6345192    0.2419999  0.00    0.2282943    0.1172509   -0.3220124
c    -4.9565486    2.3924193   -0.2155699  0.00    0.0203693    0.0063072    0.0070069
h    -5.8072983    1.7014095   -0.2223689  0.00    0.0132286    0.0091379   -0.0033385
h    -4.8071186    2.7393792   -1.2437896  0.00   -0.0067401   -0.0063400    0.0169369
h    -5.2375685    3.2516891    0.4029209  0.00   -0.0016379   -0.0148189   -0.0122366
n    -3.4097890    0.4519539   -0.4549189  0.00    0.0441945   -0.0365067   -0.0531636
h    -3.8575589    1.4177196    1.3669296  0.00    0.0037290    0.0000917   -0.0244249
h    -4.2340588    0.2238779   -1.0206697  0.00    0.0214277    0.0308540    0.0219438
h    -2.6878492    0.6694128   -1.1486897  0.00   -0.0280297    0.0111778    0.0376930
o    -1.9513094    3.0041591   -0.7839488  0.00   -0.1408892   -0.0896981    0.2466226
o    -2.1005994    3.0267291    1.4825496  0.00   -0.0365571   -0.0326462   -0.0077736
h    -1.1397697    2.7938992    1.5347396  0.00   -0.0398681   -0.0137367   -0.0084319
    13
 Energy =       0.0792997947
c    -3.6820274    1.6897066    0.2856199  0.00   -0.0313239    0.0079162    0.0393564
c    -2.5212426    2.6852405    0.2592239  0.00    0.1011518    0.0401724   -0.1334061
c    -4.9891658    2.3548111   -0.1673098  0.00    0.0071387    0.0021354    0.0036405
h    -5.8112074    1.6144388   -0.1838330  0.00    0.0046067    0.0022388   -0.0008435
h    -4.8806556    2.7903712   -1.1827922  0.00   -0.0022920    0.0001752    0.0031869
h    -5.2818616    3.1660045    0.5306739  0.00   -0.0025700   -0.0035960   -0.0021792
n    -3.3772776    0.4887270   -0.5391225  0.00    0.0185063   -0.0182062   -0.0208271
h    -3.7808675    1.3681483    1.3424169  0.00    0.0022417   -0.0006016   -0.0081868
h    -4.1904979    0.2400809   -1.1357850  0.00    0.0090643    0.0123448    0.0072729
h    -2.6189097    0.7106552   -1.2161388  0.00   -0.0100253    0.0059305    0.0155195
o    -1.9557209    3.0775418   -0.8642587  0.00   -0.0588424   -0.0382755    0.1025282
o    -2.1013536    3.1813556    1.4710118  0.00   -0.1026914    0.0544298   -0.0088973
h    -1.2083391    2.6351461    1.6568295  0.00    0.0650354   -0.0646639    0.0028356
    13
 Energy =       0.0757361646
c    -3.7171551    1.7119327    0.3066455  0.00   -0.0260360    0.0073852    0.0332631
c    -2.5246496    2.6678916    0.2928894  0.00    0.0870299    0.0331599   -0.1154038
c    -4.9779113    2.3972584   -0.2530136  0.00    0.0035885    0.0013736    0.0041948
h    -5.8299589    1.6889481   -0.2540422  0.00    0.0031317    0.0011576   -0.0001086
h    -4.8030210    2.7538097   -1.2956501  0.00   -0.0009631    0.0020474   -0.0022970
h    -5.2678162    3.2727783    0.3719208  0.00   -0.0041634    0.0005391    0.0003365
n    -3.4083929    0.4641254   -0.4460125  0.00    0.0148526   -0.0192387   -0.0147963
h    -3.8857856    1.4471001    1.3752348  0.00    0.0009009   -0.0018248   -0.0032637
h    -4.1979042    0.2066225   -1.0736118  0.00    0.0069330    0.0099356    0.0050997
h    -2.5984077    0.6223597   -1.0883556  0.00   -0.0035749    0.0055046    0.0090414
o    -1.9807132    3.0904068   -0.8430443  0.00   -0.0510134   -0.0326596    0.0861571
o    -2.0511917    3.1104172    1.5090321  0.00   -0.0872296    0.0486584   -0.0051847
h    -1.1562193    2.5685771    1.6545434  0.00    0.0565438   -0.0560383    0.0029616
    13
 Energy =       0.0729601037
c    -3.7224337    1.7267568    0.3189736  0.00   -0.0191851    0.0088605    0.0302211
c    -2.5841526    2.7475041    0.3148314  0.00    0.0675751    0.0270869   -0.0856995
c    -4.9955051    2.3112352   -0.3348635  0.00   -0.0006778    0.0012871    0.0003872
h    -5.8117325    1.5585246   -0.3276164  0.00    0.0010630   -0.0002306   -0.0006147
h    -4.7941030    2.6122616   -1.3913547  0.00   -0.0012596    0.0019964   -0.0038496
h    -5.3525617    3.2116960    0.2236972  0.00   -0.0045736    0.0042528    0.0025112
n    -3.3167808    0.4555950   -0.3525686  0.00    0.0161398   -0.0198469   -0.0078470
h    -3.9281524    1.5115501    1.3946286  0.00    0.0010373   -0.0011429   -0.0003296
h    -4.0505658    0.1280621   -1.0238888  0.00    0.0003953    0.0041696   -0.0017713
h    -2.4599931    0.6040408   -0.9403118  0.00    0.0007991    0.0025909    0.0034278
o    -2.0439601    3.1897188   -0.8326822  0.00   -0.0385308   -0.0241329    0.0648865
o    -2.1252120    3.2179521    1.5288192  0.00   -0.0669030    0.0391528   -0.0039255
h    -1.2139739    2.7273302    1.6788718  0.00    0.0441204   -0.0440438    0.0026033
    13
 Energy =       0.0699317953
c    -3.7367236    1.7149676    0.3166514  0.00   -0.0107431    0.0082746    0.0173983
c    -2.5656396    2.6960924    0.3131874  0.00    0.0393642    0.0094958   -0.0481566
c    -5.0127027    2.3577826   -0.2741776  0.00   -0.0014836    0.0013720   -0.0012408
h    -5.8583842    1.6367410   -0.2414275  0.00   -0.0005463   -0.0007023   -0.0004654
h    -4.8404396    2.6632393   -1.3334186  0.00   -0.0006321    0.0010073   -0.0028231
h    -5.3063999    3.2650855    0.3087659  0.00   -0.0034474    0.0042077    0.0026446
n    -3.4071604    0.4473592   -0.3983405  0.00    0.0103668   -0.0166614    0.0110076
h    -3.9154006    1.4792340    1.3936329  0.00    0.0006618   -0.0005664    0.0005060
h    -4.1113215    0.2343556   -1.1591226  0.00   -0.0125851   -0.0011564   -0.0131040
h    -2.4778039    0.5336865   -0.8961328  0.00    0.0133599    0.0054483   -0.0029602
o    -2.1056925    3.2286128   -0.8590937  0.00   -0.0239448   -0.0107998    0.0285436
o    -2.0062374    3.0817617    1.5236217  0.00   -0.0492760    0.0347244    0.0049208
h    -1.0552208    2.6633094    1.5623901  0.00    0.0389057   -0.0346437    0.0037293
    13
 Energy =       0.0699713389
c    -3.7278811    1.7097316    0.3158279  0.00   -0.0097201    0.0073148    0.0160327
c    -2.5784491    2.7160331    0.3084006  0.00    0.0349066    0.0072159   -0.0412525
c    -5.0239662    2.3298259   -0.2549020  0.00   -0.0015824    0.0015903   -0.0010532
h    -5.8553059    1.5924644   -0.2135907  0.00   -0.0007075   -0.0007871   -0.0003693
h    -4.8713352    2.6430667   -1.3148431  0.00   -0.0005225    0.0010071   -0.0027374
h    -5.3260998    3.2294424    0.3347792  0.00   -0.0031694    0.0038724    0.0023856
n    -3.3817793    0.4547716   -0.4118030  0.00    0.0093706   -0.0153401    0.0099400
h    -3.8900340    1.4621168    1.3929449  0.00    0.0005204   -0.0006294    0.0006248
h    -4.0810165    0.2404962   -1.1753782  0.00   -0.0113015   -0.0011274   -0.0118450
h    -2.4530099    0.5555994   -0.9063720  0.00    0.0121908    0.0049102   -0.0027699
o    -2.1696385    3.3024226   -0.8622076  0.00   -0.0206096   -0.0080983    0.0227228
o    -1.9975492    3.0854655    1.5137289  0.00   -0.0448629    0.0315400    0.0048830
h    -1.0430620    2.6807915    1.5299509  0.00    0.0354875   -0.0314683    0.0034383
    13
 Energy =       0.0704041973
c    -3.7169713    1.7033663    0.3123679  0.00   -0.0090052    0.0064938    0.0151757
c    -2.5980372    2.7438829    0.3104828  0.00    0.0308118    0.0046222   -0.0341351
c    -5.0357996    2.2927015   -0.2387962  0.00   -0.0017311    0.0019497   -0.0008679
h    -5.8467983    1.5327069   -0.1945588  0.00   -0.0009850   -0.0009971   -0.0002451
h    -4.9027106    2.6191566   -1.2973989  0.00   -0.0003961    0.0010502   -0.0027027
h    -5.3545847    3.1796959    0.3607648  0.00   -0.0030030    0.0037184    0.0022122
n    -3.3423930    0.4680448   -0.4335824  0.00    0.0084074   -0.0146568    0.0089499
h    -3.8637445    1.4372013    1.3875116  0.00    0.0003302   -0.0007451    0.0007947
h    -4.0337798    0.2506110   -1.2022053  0.00   -0.0101439   -0.0011751   -0.0107770
h    -2.4142905    0.5936895   -0.9226794  0.00    0.0114450    0.0044239   -0.0027811
o    -2.2479461    3.3974474   -0.8492951  0.00   -0.0172144   -0.0046746    0.0162427
o    -1.9979939    3.0915492    1.5129801  0.00   -0.0407003    0.0284251    0.0050060
h    -1.0440772    2.6921743    1.5109447  0.00    0.0321844   -0.0284344    0.0031278
    13
 Energy =       0.0713237964
c    -3.7034274    1.6982064    0.3072622  0.00   -0.0086965    0.0057740    0.0148901
c    -2.6244831    2.7811222    0.3186443  0.00    0.0272860    0.0018957   -0.0270656
c    -5.0459791    2.2465116   -0.2297503  0.00   -0.0019222    0.0023979   -0.0007736
h    -5.8309127    1.4588480   -0.1863245  0.00   -0.0014004   -0.0013679   -0.0001198
h    -4.9308611    2.5867113   -1.2861254  0.00   -0.0002779    0.0011036   -0.0026500
h    -5.3897068    3.1181472    0.3785307  0.00   -0.0029363    0.0037378    0.0021366
n    -3.2875832    0.4880343   -0.4576855  0.00    0.0073664   -0.0147761    0.0080526
h    -3.8372971    1.4108793    1.3788659  0.00    0.0001081   -0.0008847    0.0009556
h    -3.9729107    0.2570191   -1.2267778  0.00   -0.0092225   -0.0011943   -0.0098637
h    -2.3655067    0.6514118   -0.9469521  0.00    0.0113734    0.0040506   -0.0030751
o    -2.3405833    3.5078007   -0.8217640  0.00   -0.0139171   -0.0005785    0.0095541
o    -2.0073497    3.1061111    1.5189688  0.00   -0.0370679    0.0254004    0.0051632
h    -1.0625259    2.6914247    1.5096438  0.00    0.0293068   -0.0255585    0.0027957
    13
 Energy =       0.0723104871
c    -3.6898220    1.6978749    0.3040872  0.00   -0.0082694    0.0050418    0.0144386
c    -2.6503109    2.8194614    0.3229421  0.00    0.0247010    0.0004138   -0.0222315
c    -5.0522648    2.2029990   -0.2259296  0.00   -0.0020932    0.0026793   -0.0008072
h    -5.8119747    1.3906059   -0.1799433  0.00   -0.0016933   -0.0016532   -0.0000539
h    -4.9525869    2.5486122   -1.2820011  0.00   -0.0002334    0.0011007   -0.0024997
h    -5.4201645    3.0631807    0.3843907  0.00   -0.0028157    0.0036721    0.0020336
n    -3.2344445    0.5084570   -0.4703347  0.00    0.0064927   -0.0146584    0.0075900
h    -3.8124434    1.3980721    1.3736366  0.00   -0.0000006   -0.0009493    0.0009592
h    -3.9181963    0.2532407   -1.2325034  0.00   -0.0087227   -0.0011731   -0.0092061
h    -2.3243233    0.7087989   -0.9682468  0.00    0.0114051    0.0038370   -0.0033052
o    -2.4256358    3.5962403   -0.8014893  0.00   -0.0116028    0.0019169    0.0055345
o    -2.0164573    3.1336899    1.5174303  0.00   -0.0350230    0.0232511    0.0052208
h    -1.0905024    2.6809946    1.5144972  0.00    0.0278552   -0.0234787    0.0023269
    13
 Energy =       0.0728115160
c    -3.6797229    1.7000173    0.3033933  0.00   -0.0075426    0.0043522    0.0134527
c    -2.6693635    2.8481696    0.3194459  0.00    0.0225154    0.0000251   -0.0194786
c    -5.0568260    2.1712153   -0.2196342  0.00   -0.0021164    0.0027174   -0.0007977
h    -5.7972376    1.3414234   -0.1674430  0.00   -0.0017651   -0.0017335   -0.0000214
h    -4.9712529    2.5169975   -1.2767514  0.00   -0.0002158    0.0010638   -0.0023367
h    -5.4406699    3.0242005    0.3904731  0.00   -0.0026115    0.0034449    0.0018680
n    -3.1994127    0.5230780   -0.4738083  0.00    0.0058620   -0.0137159    0.0070044
h    -3.7905852    1.3964468    1.3731044  0.00   -0.0000213   -0.0009535    0.0009158
h    -3.8804275    0.2506986   -1.2316879  0.00   -0.0080462   -0.0011192   -0.0084590
h    -2.2975574    0.7449842   -0.9766292  0.00    0.0106834    0.0035252   -0.0031534
o    -2.4854465    3.6461548   -0.7991163  0.00   -0.0101632    0.0025875    0.0039200
o    -2.0189398    3.1626697    1.5049139  0.00   -0.0328434    0.0214735    0.0052025
h    -1.1116847    2.6761719    1.5102757  0.00    0.0262647   -0.0216674    0.0018834
    13
 Energy =       0.0730021063
c    -3.6722297    1.7023804    0.3037057  0.00   -0.0067839    0.0037564    0.0123050
c    -2.6836428    2.8693175    0.3121473  0.00    0.0204612   -0.0000623   -0.0174623
c    -5.0610427    2.1472028   -0.2104840  0.00   -0.0020596    0.0026398   -0.0007470
h    -5.7862087    1.3045554   -0.1510854  0.00   -0.0017394   -0.0017161    0.0000012
h    -4.9890308    2.4920066   -1.2688018  0.00   -0.0001984    0.0010145   -0.0021843
h    -5.4552239    2.9947605    0.3999745  0.00   -0.0023914    0.0031674    0.0016916
n    -3.1767358    0.5334144   -0.4746526  0.00    0.0053088   -0.0125373    0.0063537
h    -3.7708867    1.3985170    1.3744715  0.00   -0.0000242   -0.0009331    0.0008816
h    -3.8538527    0.2520034   -1.2318765  0.00   -0.0072878   -0.0010434   -0.0076740
h    -2.2787917    0.7670020   -0.9779209  0.00    0.0097336    0.0031789   -0.0028919
o    -2.5278581    3.6742403   -0.8064467  0.00   -0.0090556    0.0026678    0.0030994
o    -2.0179043    3.1886488    1.4877692  0.00   -0.0302344    0.0196905    0.0050827
h    -1.1257188    2.6781786    1.4997354  0.00    0.0242711   -0.0198230    0.0015444
    13
 Energy =       0.0730486111
c    -3.6664900    1.7044786    0.3042222  0.00   -0.0060813    0.0032638    0.0111666
c    -2.6947852    2.8853071    0.3042486  0.00    0.0185375   -0.0000747   -0.0157583
c    -5.0647298    2.1285241   -0.2006937  0.00   -0.0019602    0.0025018   -0.0006814
h    -5.7775485    1.2760025   -0.1346420  0.00   -0.0016641   -0.0016464    0.0000169
h    -5.0049966    2.4723695   -1.2599541  0.00   -0.0001802    0.0009554   -0.0020328
h    -5.4659762    2.9715589    0.4107907  0.00   -0.0021780    0.0028870    0.0015251
n    -3.1611958    0.5412706   -0.4751740  0.00    0.0048006   -0.0113667    0.0057401
h    -3.7537616    1.4013365    1.3761203  0.00   -0.0000244   -0.0008939    0.0008462
h    -3.8344069    0.2554635   -1.2334347  0.00   -0.0065675   -0.0009638   -0.0069337
h    -2.2649030    0.7817529   -0.9769096  0.00    0.0088025    0.0028549   -0.0026268
o    -2.5586169    3.6908085   -0.8168717  0.00   -0.0081139    0.0025580    0.0025836
o    -2.0159053    3.2105997    1.4706533  0.00   -0.0275689    0.0179583    0.0048667
h    -1.1358110    2.6827551    1.4881806  0.00    0.0221978   -0.0180336    0.0012877
    13
 Energy =       0.0728691555
c    -3.6347060    1.7168977    0.3074221  0.00   -0.0001144   -0.0029727    0.0054959
c    -2.7574886    2.9722530    0.2528196  0.00    0.0085301   -0.0000826   -0.0074077
c    -5.0864856    2.0244488   -0.1347737  0.00   -0.0045119    0.0045918   -0.0000869
h    -5.7279643    1.1172494   -0.0287547  0.00   -0.0034709   -0.0040366    0.0007450
h    -5.1026111    2.3635986   -1.1984742  0.00   -0.0002696    0.0017831   -0.0031499
h    -5.5230660    2.8398644    0.4870997  0.00   -0.0015920    0.0018700    0.0005099
n    -3.0827665    0.5856602   -0.4807414  0.00    0.0022718   -0.0053209    0.0023777
h    -3.6506838    1.4197492    1.3860106  0.00    0.0001132   -0.0021167    0.0023896
h    -3.7316746    0.2862905   -1.2502539  0.00   -0.0018901   -0.0011599   -0.0028689
h    -2.1910489    0.8576775   -0.9674019  0.00    0.0036111    0.0005922   -0.0014630
o    -2.7172211    3.7608255   -0.8930308  0.00   -0.0020588    0.0047050   -0.0047152
o    -2.0019686    3.3387853    1.3620903  0.00   -0.0169247    0.0148932    0.0106734
h    -1.1914416    2.7189274    1.4145241  0.00    0.0163062   -0.0127458   -0.0024999
    13
 Energy =       0.0724501102
c    -3.6400858    1.7137790    0.3048170  0.00    0.0002222    0.0009579   -0.0004920
c    -2.7487089    2.9482878    0.2448732  0.00   -0.0027441   -0.0050258    0.0092590
c    -5.0878449    2.0421077   -0.1002519  0.00    0.0003930   -0.0011624   -0.0002626
h    -5.7311285    1.1430869    0.0030859  0.00    0.0007196    0.0007612   -0.0001677
h    -5.1222870    2.3934654   -1.1557514  0.00    0.0000763   -0.0003480    0.0003303
h    -5.5011535    2.8480923    0.5457900  0.00    0.0000390    0.0000152    0.0001359
n    -3.1262328    0.5850179   -0.5067655  0.00    0.0006422    0.0003734   -0.0000116
h    -3.6364538    1.4101336    1.3787170  0.00   -0.0000085    0.0005010   -0.0002330
h    -3.7797823    0.3249196   -1.2842980  0.00   -0.0004254   -0.0003318   -0.0003258
h    -2.2269743    0.8379117   -0.9848113  0.00   -0.0003998    0.0002671    0.0002134
o    -2.6141470    3.6654354   -0.9411694  0.00    0.0009371    0.0043246   -0.0068179
o    -2.0075340    3.3298313    1.3527604  0.00    0.0028410   -0.0004004   -0.0024922
h    -1.1767939    2.7601591    1.3995399  0.00   -0.0022926    0.0000679    0.0008642
    13
 Energy =       0.0724423784
c    -3.6361952    1.7067209    0.2949681  0.00    0.0001296    0.0006170   -0.0000466
c    -2.7329555    2.9343059    0.2506933  0.00   -0.0016377   -0.0025073    0.0043851
c    -5.0827381    2.0578339   -0.0978431  0.00    0.0001309   -0.0005731   -0.0001713
h    -5.7360974    1.1640269   -0.0066863  0.00    0.0002973    0.0002573   -0.0001020
h    -5.1181480    2.4280542   -1.1472438  0.00   -0.0000229   -0.0001025   -0.0000129
h    -5.4840864    2.8574677    0.5637572  0.00   -0.0000336    0.0001753    0.0001784
n    -3.1377865    0.5862409   -0.5378654  0.00    0.0005535   -0.0001134    0.0000180
h    -3.6310971    1.3842555    1.3636249  0.00    0.0000414    0.0001870    0.0000617
h    -3.8010487    0.3413616   -1.3120604  0.00   -0.0003528   -0.0002598   -0.0003910
h    -2.2420441    0.8404610   -1.0222339  0.00   -0.0001581    0.0000861    0.0000322
o    -2.5755808    3.6515535   -0.9299478  0.00    0.0004342    0.0023231   -0.0037128
o    -2.0193006    3.3186268    1.3765333  0.00    0.0004605    0.0007993   -0.0009199
h    -1.2020484    2.7313189    1.4608399  0.00    0.0001576   -0.0008889    0.0006812
    13
 Energy =       0.0724428821
c    -3.6351662    1.7061757    0.2942434  0.00    0.0001165    0.0005571   -0.0000415
c    -2.7324143    2.9341981    0.2500360  0.00   -0.0014750   -0.0022571    0.0039454
c    -5.0824453    2.0574059   -0.0958673  0.00    0.0001161   -0.0005161   -0.0001534
h    -5.7355101    1.1633385   -0.0047130  0.00    0.0002675    0.0002315   -0.0000916
h    -5.1195763    2.4289060   -1.1447609  0.00   -0.0000208   -0.0000914   -0.0000138
h    -5.4829342    2.8561512    0.5672939  0.00   -0.0000312    0.0001591    0.0001617
n    -3.1376954    0.5869117   -0.5407372  0.00    0.0004988   -0.0001050    0.0000191
h    -3.6283643    1.3823070    1.3624596  0.00    0.0000372    0.0001676    0.0000579
h    -3.8024423    0.3422745   -1.3136889  0.00   -0.0003194   -0.0002345   -0.0003544
h    -2.2432139    0.8423165   -1.0268486  0.00   -0.0001382    0.0000778    0.0000260
o    -2.5755238    3.6515480   -0.9303085  0.00    0.0003912    0.0020910   -0.0033415
o    -2.0199710    3.3195837    1.3762892  0.00    0.0004091    0.0007250   -0.0008272
h    -1.2038696    2.7311109    1.4631381  0.00    0.0001482   -0.0008049    0.0006133
    13
 Energy =       0.0724432781
c    -3.6342355    1.7056813    0.2935857  0.00    0.0001048    0.0005028   -0.0000370
c    -2.7319295    2.9341026    0.2494467  0.00   -0.0013284   -0.0020319    0.0035499
c    -5.0821755    2.0570091   -0.0940891  0.00    0.0001031   -0.0004648   -0.0001375
h    -5.7349707    1.1627036   -0.0029435  0.00    0.0002406    0.0002084   -0.0000823
h    -5.1208581    2.4296674   -1.1425197  0.00   -0.0000189   -0.0000816   -0.0000142
h    -5.4818916    2.8549463    0.5704808  0.00   -0.0000289    0.0001443    0.0001464
n    -3.1376080    0.5875222   -0.5433331  0.00    0.0004494   -0.0000969    0.0000195
h    -3.6258972    1.3805431    1.3613989  0.00    0.0000335    0.0001503    0.0000541
h    -3.8036906    0.3430985   -1.3151603  0.00   -0.0002890   -0.0002116   -0.0003210
h    -2.2442700    0.8440043   -1.0310114  0.00   -0.0001211    0.0000703    0.0000210
o    -2.5754721    3.6515469   -0.9306288  0.00    0.0003524    0.0018820   -0.0030074
o    -2.0205961    3.3204542    1.3760794  0.00    0.0003639    0.0006571   -0.0007438
h    -1.2055321    2.7309480    1.4652304  0.00    0.0001385   -0.0007283    0.0005522
    13
 Energy =       0.0724435897
c    -3.6333936    1.7052330    0.2929889  0.00    0.0000942    0.0004537   -0.0000330
c    -2.7314948    2.9340177    0.2489181  0.00   -0.0011963   -0.0018291    0.0031941
c    -5.0819275    2.0566422   -0.0924877  0.00    0.0000917   -0.0004185   -0.0001233
h    -5.7344762    1.1621191   -0.0013551  0.00    0.0002165    0.0001876   -0.0000739
h    -5.1220096    2.4303489   -1.1404956  0.00   -0.0000171   -0.0000728   -0.0000142
h    -5.4809481    2.8538445    0.5733545  0.00   -0.0000266    0.0001308    0.0001325
n    -3.1375251    0.5880777   -0.5456801  0.00    0.0004049   -0.0000892    0.0000195
h    -3.6236690    1.3789462    1.3604338  0.00    0.0000302    0.0001348    0.0000503
h    -3.8048097    0.3438429   -1.3164906  0.00   -0.0002614   -0.0001909   -0.0002906
h    -2.2452238    0.8455388   -1.0347679  0.00   -0.0001063    0.0000634    0.0000170
o    -2.5754250    3.6515490   -0.9309137  0.00    0.0003174    0.0016939   -0.0027066
o    -2.0211767    3.3212456    1.3758985  0.00    0.0003241    0.0005951   -0.0006689
h    -1.2070476    2.7308218    1.4671329  0.00    0.0001288   -0.0006587    0.0004972
    13
 Energy =       0.0724438351
c    -3.6326322    1.7048266    0.2924477  0.00    0.0000847    0.0004093   -0.0000294
c    -2.7311049    2.9339422    0.2484435  0.00   -0.0010773   -0.0016465    0.0028740
c    -5.0817001    2.0563037   -0.0910445  0.00    0.0000816   -0.0003768   -0.0001106
h    -5.7340234    1.1615818    0.0000718  0.00    0.0001948    0.0001688   -0.0000664
h    -5.1230451    2.4309592   -1.1386671  0.00   -0.0000156   -0.0000651   -0.0000140
h    -5.4800945    2.8528381    0.5759470  0.00   -0.0000245    0.0001184    0.0001199
n    -3.1374470    0.5885829   -0.5478024  0.00    0.0003647   -0.0000819    0.0000191
h    -3.6216562    1.3775005    1.3595563  0.00    0.0000272    0.0001209    0.0000466
h    -3.8058139    0.3445158   -1.3176935  0.00   -0.0002362   -0.0001722   -0.0002629
h    -2.2460853    0.8469333   -1.0381585  0.00   -0.0000935    0.0000573    0.0000137
o    -2.5753823    3.6515533   -0.9311677  0.00    0.0002859    0.0015246   -0.0024359
o    -2.0217144    3.3219646    1.3757420  0.00    0.0002889    0.0005387   -0.0006016
h    -1.2084276    2.7307255    1.4688613  0.00    0.0001193   -0.0005955    0.0004476
    13
 Energy =       0.0724440284
c    -3.6319436    1.7044582    0.2919571  0.00    0.0000762    0.0003692   -0.0000263
c    -2.7307549    2.9338749    0.2480172  0.00   -0.0009700   -0.0014821    0.0025860
c    -5.0814919    2.0559920   -0.0897434  0.00    0.0000727   -0.0003393   -0.0000992
h    -5.7336094    1.1610889    0.0013546  0.00    0.0001752    0.0001519   -0.0000597
h    -5.1239769    2.4315064   -1.1370151  0.00   -0.0000141   -0.0000582   -0.0000136
h    -5.4793223    2.8519196    0.5782863  0.00   -0.0000225    0.0001072    0.0001084
n    -3.1373739    0.5890420   -0.5497214  0.00    0.0003285   -0.0000750    0.0000184
h    -3.6198378    1.3761919    1.3587590  0.00    0.0000244    0.0001085    0.0000430
h    -3.8067156    0.3451242   -1.3187813  0.00   -0.0002135   -0.0001553   -0.0002377
h    -2.2468634    0.8481997   -1.0412190  0.00   -0.0000824    0.0000517    0.0000110
o    -2.5753435    3.6515592   -0.9313944  0.00    0.0002575    0.0013722   -0.0021923
o    -2.0222108    3.3226174    1.3756064  0.00    0.0002577    0.0004873   -0.0005411
h    -1.2096826    2.7306531    1.4704300  0.00    0.0001102   -0.0005381    0.0004030
    13
 Energy =       0.0724441808
c    -3.6313210    1.7041245    0.2915126  0.00    0.0000685    0.0003329   -0.0000235
c    -2.7304408    2.9338148    0.2476341  0.00   -0.0008734   -0.0013341    0.0023269
c    -5.0813018    2.0557056   -0.0885702  0.00    0.0000648   -0.0003054   -0.0000890
h    -5.7332315    1.1606373    0.0025083  0.00    0.0001577    0.0001367   -0.0000536
h    -5.1248156    2.4319972   -1.1355224  0.00   -0.0000128   -0.0000521   -0.0000130
h    -5.4786241    2.8510822    0.5803975  0.00   -0.0000206    0.0000970    0.0000979
n    -3.1373059    0.5894591   -0.5514563  0.00    0.0002959   -0.0000686    0.0000176
h    -3.6181950    1.3750077    1.3580350  0.00    0.0000220    0.0000974    0.0000395
h    -3.8075256    0.3456744   -1.3197652  0.00   -0.0001928   -0.0001400   -0.0002148
h    -2.2475662    0.8493492   -1.0439817  0.00   -0.0000727    0.0000466    0.0000088
o    -2.5753081    3.6515660   -0.9315969  0.00    0.0002319    0.0012350   -0.0019731
o    -2.0226681    3.3232096    1.3754885  0.00    0.0002301    0.0004406   -0.0004867
h    -1.2108230    2.7306000    1.4718527  0.00    0.0001014   -0.0004860    0.0003629
    13
 Energy =       0.0724443012
c    -3.6307582    1.7038222    0.2911100  0.00    0.0000616    0.0003002   -0.0000210
c    -2.7301587    2.9337612    0.2472898  0.00   -0.0007864   -0.0012009    0.0020939
c    -5.0811283    2.0554429   -0.0875122  0.00    0.0000578   -0.0002750   -0.0000799
h    -5.7328869    1.1602241    0.0035463  0.00    0.0001419    0.0001230   -0.0000482
h    -5.1255710    2.4324377   -1.1341738  0.00   -0.0000116   -0.0000466   -0.0000124
h    -5.4779928    2.8503195    0.5823031  0.00   -0.0000188    0.0000877    0.0000885
n    -3.1372428    0.5898376   -0.5530247  0.00    0.0002665   -0.0000626    0.0000167
h    -3.6167110    1.3739362    1.3573780  0.00    0.0000198    0.0000874    0.0000363
h    -3.8082536    0.3461719   -1.3206549  0.00   -0.0001741   -0.0001262   -0.0001940
h    -2.2482009    0.8503920   -1.0464754  0.00   -0.0000642    0.0000421    0.0000071
o    -2.5752760    3.6515734   -0.9317781  0.00    0.0002088    0.0011116   -0.0017758
o    -2.0230882    3.3237467    1.3753858  0.00    0.0002056    0.0003982   -0.0004378
h    -1.2118583    2.7305622    1.4731421  0.00    0.0000931   -0.0004388    0.0003267
    13
 Energy =       0.0724442293
c    -3.6180409    1.6969800    0.2819969  0.00   -0.0001160   -0.0001826    0.0001067
c    -2.7238230    2.9325625    0.2395498  0.00    0.0010023    0.0017089   -0.0033388
c    -5.0771770    2.0494304   -0.0636545  0.00   -0.0003363    0.0003562    0.0002288
h    -5.7250392    1.1507891    0.0269008  0.00   -0.0002247   -0.0001989    0.0000976
h    -5.1425812    2.4423250   -1.1037145  0.00   -0.0000226    0.0001964   -0.0003122
h    -5.4637283    2.8329670    0.6252994  0.00   -0.0001221    0.0000606    0.0000382
n    -3.1357868    0.5984239   -0.5884607  0.00   -0.0002824   -0.0003589    0.0003894
h    -3.5832021    1.3497078    1.3424821  0.00   -0.0000212   -0.0002486    0.0003057
h    -3.8246154    0.3574199   -1.3407654  0.00   -0.0000166    0.0000906   -0.0000737
h    -2.2625293    0.8740278   -1.1027436  0.00    0.0006982    0.0000062   -0.0004694
o    -2.5745463    3.6517632   -0.9358345  0.00   -0.0002623   -0.0016361    0.0026717
o    -2.0327213    3.3359137    1.3731434  0.00   -0.0010576    0.0002700    0.0007463
h    -1.2353358    2.7299174    1.5023368  0.00    0.0007613   -0.0000638   -0.0003904
    13
 Energy =       0.0724418502
c    -3.6133017    1.6931059    0.2764884  0.00   -0.0002677   -0.0002695    0.0002334
c    -2.7211168    2.9309845    0.2428606  0.00    0.0018392    0.0032468   -0.0063479
c    -5.0749505    2.0481011   -0.0583424  0.00   -0.0006454    0.0006589    0.0004581
h    -5.7220143    1.1479957    0.0263745  0.00   -0.0004296   -0.0003995    0.0001901
h    -5.1457383    2.4520462   -1.0942156  0.00   -0.0000545    0.0004071   -0.0006649
h    -5.4588786    2.8242573    0.6406401  0.00   -0.0002613    0.0001687    0.0001212
n    -3.1334335    0.6046977   -0.6083134  0.00   -0.0005066   -0.0008275    0.0007480
h    -3.5732881    1.3337670    1.3331160  0.00   -0.0000354   -0.0005078    0.0006648
h    -3.8280150    0.3675193   -1.3565852  0.00   -0.0000587    0.0001590   -0.0001875
h    -2.2657473    0.8889546   -1.1283742  0.00    0.0014130    0.0000173   -0.0009813
o    -2.5716921    3.6567798   -0.9265518  0.00   -0.0004840   -0.0030822    0.0050392
o    -2.0397709    3.3344381    1.3826074  0.00   -0.0022062    0.0007530    0.0013998
h    -1.2511796    2.7195805    1.5268314  0.00    0.0016971   -0.0003244   -0.0006730
    13
 Energy =       0.0724227733
c    -3.6356461    1.7015073    0.2919841  0.00    0.0001475    0.0006643   -0.0003730
c    -2.7284907    2.9255494    0.2518276  0.00   -0.0037202   -0.0056697    0.0086157
c    -5.0851794    2.0622587   -0.0758534  0.00    0.0007243   -0.0010314   -0.0004765
h    -5.7392820    1.1689426    0.0099401  0.00    0.0006326    0.0005434   -0.0002388
h    -5.1335386    2.4480755   -1.1183881  0.00    0.0000199   -0.0004286    0.0006247
h    -5.4749542    2.8523752    0.6033028  0.00    0.0002261   -0.0000687    0.0000102
n    -3.1538343    0.5904862   -0.5624107  0.00    0.0004731    0.0002405    0.0004530
h    -3.6165675    1.3653209    1.3556286  0.00    0.0000741    0.0005413   -0.0005252
h    -3.8242049    0.3658035   -1.3369540  0.00   -0.0008203   -0.0003509   -0.0005074
h    -2.2585040    0.8447348   -1.0475135  0.00   -0.0002341    0.0004719    0.0001255
o    -2.5651078    3.6453283   -0.9296126  0.00    0.0010502    0.0048719   -0.0075462
o    -2.0099618    3.3012344    1.3777349  0.00   -0.0037456    0.0057430   -0.0019016
h    -1.1738555    2.7306109    1.4368502  0.00    0.0051725   -0.0055273    0.0017395
    13
 Energy =       0.0724045418
c    -3.6568186    1.7140624    0.3053100  0.00   -0.0008453    0.0014474   -0.0000108
c    -2.7034214    2.9022360    0.2414576  0.00   -0.0057476   -0.0082217    0.0132351
c    -5.0860534    2.1154131   -0.0999676  0.00    0.0007748   -0.0010435   -0.0003174
h    -5.7736805    1.2487901    0.0031352  0.00    0.0003666   -0.0000227   -0.0000343
h    -5.1019910    2.4683923   -1.1557939  0.00    0.0001523   -0.0001162   -0.0000615
h    -5.4589325    2.9419450    0.5463994  0.00   -0.0003783    0.0008458    0.0006267
n    -3.2014703    0.5570572   -0.5041283  0.00    0.0000501   -0.0023825    0.0009777
h    -3.6683407    1.4130075    1.3803840  0.00   -0.0001831    0.0001792    0.0002140
h    -3.8616756    0.3391018   -1.2898434  0.00   -0.0013359   -0.0006040   -0.0010461