    24
 Energy =       2.7046072621
c     0.0448833    2.3534058   -1.3813971  0.00   -0.0469113    0.0506890   -0.0552169
c     0.1418476    2.9248573   -0.1206726  0.00   -0.0513933    0.0949839   -0.0077041
c     0.7555652    2.2402731    0.9181560  0.00   -0.0011793    0.0616568    0.0776709
c     0.5800579    1.0803682   -1.5985351  0.00    0.0320337   -0.1700036   -0.2269739
c     1.2047783    0.3610782   -0.5608861  0.00    0.0869415   -0.0892851    0.0334558
c     1.2772621    0.9610456    0.7017654  0.00    0.0254214   -0.0327644    0.0377118
o    -0.3596449    4.1638607    0.1435223  0.00   -0.0070489   -0.0382572    0.0734558
h    -1.0078207    4.0887669    0.8629229  0.00    0.0448350   -0.0120686   -0.0599234
h     1.7275121    0.4624698    1.5506282  0.00   -0.0074943    0.0127757    0.0063709
h     0.4997167    0.6426498   -2.5929302  0.00    9.7296918  -16.3928677  -12.4021196
h    -0.4370006    2.8749235   -2.2021886  0.00    0.0008044   -0.0094090   -0.0078003
h     0.8245662    2.6993933    1.9006814  0.00   -0.0002769    0.0001496    0.0020224
c     1.7669373   -1.0073413   -0.8964724  0.00   -0.0686657    0.0193983   -0.0714548
c     0.8861134   -2.0194266   -1.6556448  0.00    0.0953618    0.0427394    0.1001256
h     2.1212937   -1.4658931    0.0371405  0.00   -0.0028617    0.0131946   -0.0072399
h     2.6645729   -0.8285312   -1.5058794  0.00   -0.0148884   -0.0035044    0.0038460
c     0.2877588   -1.3395944   -2.9073099  0.00   -0.2679213    0.2545439   -0.1861773
o    -0.7378043   -1.6681139   -3.4822380  0.00    0.2391572    0.0777522    0.1374643
o     1.0840955   -0.3212778   -3.3324246  0.00   -9.7698921   16.1644613   12.5673888
h     1.4436468   -0.6194929   -4.2061961  0.00   -0.0123623    0.0032308    0.0482837
n     1.5974427   -3.2508470   -2.1301054  0.00    0.0021786   -0.0734076   -0.0341819
h     0.0358579   -2.3311629   -1.0380560  0.00    0.0189478   -0.0098116   -0.0143227
h     2.6066344   -3.0920603   -2.0299520  0.00   -0.0350990    0.0031714    0.0089192
h     1.3975604   -4.0138454   -1.4794020  0.00    0.0106214    0.0326323   -0.0236004
    24
 Energy =       2.2835756438
c     0.0403039    2.3449925   -1.4082695  0.00   -0.0384477    0.0413659   -0.0451982
c     0.1102135    2.9138516   -0.1517107  0.00   -0.0416535    0.0775897   -0.0060991
c     0.7131429    2.2375795    0.8906059  0.00   -0.0006709    0.0506276    0.0636302
c     0.5844232    1.0829860   -1.6194439  0.00    0.0257702   -0.1406024   -0.1872947
c     1.1914531    0.3727174   -0.5748513  0.00    0.0709912   -0.0728449    0.0273434
c     1.2450526    0.9696935    0.6823989  0.00    0.0210177   -0.0268538    0.0308905
o    -0.4148012    4.1523031    0.0948857  0.00   -0.0052381   -0.0310690    0.0600381
h    -1.0896828    4.0793925    0.8011317  0.00    0.0358959   -0.0100353   -0.0487237
h     1.6953946    0.4711985    1.5322886  0.00   -0.0059699    0.0104253    0.0051199
h     0.5475018    0.6513105   -2.6231452  0.00    8.1249952  -13.6880250  -10.3571023
h    -0.4293668    2.8709520   -2.2333286  0.00    0.0005772   -0.0076743   -0.0064364
h     0.7659926    2.6985813    1.8729989  0.00   -0.0000942    0.0001883    0.0017685
c     1.7794325   -0.9917761   -0.8806769  0.00   -0.0563681    0.0157588   -0.0587687
c     0.9019725   -2.0045859   -1.6420264  0.00    0.0771460    0.0382263    0.0835799
h     2.1136825   -1.4465567    0.0652658  0.00   -0.0022516    0.0107522   -0.0056908
h     2.6894576   -0.8174655   -1.4776636  0.00   -0.0120314   -0.0029282    0.0029475
c     0.3654439   -1.3616089   -2.9330966  0.00   -0.2181539    0.2134625   -0.1540945
o    -0.6906909   -1.6987270   -3.5115970  0.00    0.1952701    0.0637852    0.1132393
o     1.1397544   -0.3260987   -3.3730640  0.00   -8.1600433   13.5005321   10.4954246
h     1.5514285   -0.6486242   -4.2219967  0.00   -0.0089175    0.0009566    0.0370196
n     1.6029887   -3.2720643   -2.0205217  0.00    0.0057252   -0.0612157   -0.0332682
h     0.0118671   -2.2581788   -1.0445023  0.00    0.0133134   -0.0077763   -0.0101999
h     2.6183160   -3.1355982   -1.9085060  0.00   -0.0282099    0.0020753    0.0075350
h     1.3625523   -3.9887686   -1.3206489  0.00    0.0073478    0.0232793   -0.0156601
    24
 Energy =       1.7125465302
c     0.0481968    2.3464997   -1.4201614  0.00   -0.0262435    0.0280153   -0.0308231
c     0.0968375    2.8998696   -0.1659255  0.00   -0.0278319    0.0529792   -0.0039890
c     0.6914777    2.2226270    0.8682750  0.00   -0.0000092    0.0349845    0.0434314
c     0.5930890    1.0979420   -1.6388588  0.00    0.0178200   -0.0997641   -0.1315769
c     1.1838101    0.3871327   -0.5975730  0.00    0.0484733   -0.0496721    0.0186226
c     1.2291001    0.9699951    0.6556945  0.00    0.0146753   -0.0183368    0.0209835
o    -0.4537016    4.1360485    0.0769979  0.00   -0.0005965   -0.0206430    0.0399165
h    -1.1789895    4.0485422    0.7493886  0.00    0.0216085   -0.0077677   -0.0315687
h     1.6859137    0.4622721    1.4980718  0.00   -0.0036276    0.0069971    0.0033039
h     0.5787077    0.6766198   -2.6601422  0.00    5.9477502  -10.0194639   -7.5848029
h    -0.4143561    2.8868783   -2.2397143  0.00    0.0002752   -0.0051665   -0.0043266
h     0.7349142    2.6773945    1.8535830  0.00    0.0003369    0.0001693    0.0012780
c     1.7935108   -0.9753944   -0.8788222  0.00   -0.0387973    0.0109808   -0.0405257
c     0.9039810   -1.9822321   -1.6372044  0.00    0.0516968    0.0310888    0.0590977
h     2.1128572   -1.4327319    0.0749052  0.00   -0.0014565    0.0073212   -0.0039183
h     2.7126744   -0.8083035   -1.4704815  0.00   -0.0081856   -0.0021232    0.0016332
c     0.4412499   -1.3853216   -2.9694301  0.00   -0.1463928    0.1563267   -0.1078939
o    -0.6621686   -1.7276887   -3.5501562  0.00    0.1324781    0.0443670    0.0788043
o     1.1854022   -0.3245597   -3.4280329  0.00   -5.9804045    9.8918402    7.6902915
h     1.6956932   -0.6811520   -4.2228918  0.00   -0.0007032   -0.0050277    0.0169222
n     1.5763785   -3.2899549   -1.9017336  0.00    0.0089037   -0.0449151   -0.0293566
h    -0.0266693   -2.1598012   -1.0601998  0.00    0.0058641   -0.0049024   -0.0049038
h     2.6009831   -3.1931135   -1.7791664  0.00   -0.0181522    0.0006093    0.0054489
h     1.2769407   -3.9560625   -1.1618958  0.00    0.0025184    0.0121033   -0.0060482
    24
 Energy =       1.3085601761
c     0.0531468    2.3446749   -1.4541027  0.00   -0.0186422    0.0195747   -0.0216038
c     0.0689272    2.9029143   -0.2080651  0.00   -0.0192715    0.0358097   -0.0024506
c     0.6143323    2.2233256    0.8451835  0.00    0.0006666    0.0238595    0.0313515
c     0.5891236    1.0964319   -1.6507059  0.00    0.0120830   -0.0717343   -0.0948734
c     1.1387529    0.3896135   -0.5937292  0.00    0.0338743   -0.0345125    0.0133244
c     1.1471520    0.9718362    0.6548011  0.00    0.0107723   -0.0127635    0.0152717
o    -0.4527332    4.1649793   -0.0066373  0.00    0.0069298   -0.0119410    0.0221516
h    -1.2508581    4.1136332    0.6013889  0.00    0.0077412   -0.0057409   -0.0172536
h     1.5814059    0.4619083    1.5091233  0.00   -0.0023331    0.0047527    0.0026031
h     0.6174091    0.6742408   -2.6734156  0.00    4.4137080   -7.4345262   -5.6291297
h    -0.3681824    2.8954352   -2.2900990  0.00   -0.0001683   -0.0030578   -0.0039132
h     0.6348377    2.6851359    1.8278183  0.00    0.0004163    0.0002512    0.0011664
c     1.7839334   -0.9658213   -0.8410513  0.00   -0.0273294    0.0075985   -0.0280156
c     0.9317301   -1.9894645   -1.6277616  0.00    0.0347182    0.0228354    0.0419508
h     2.0711993   -1.4194689    0.1277990  0.00   -0.0008810    0.0050470   -0.0020671
h     2.7251633   -0.7876754   -1.3988969  0.00   -0.0050138   -0.0015255    0.0007524
c     0.5138078   -1.4279760   -2.9847073  0.00   -0.0994979    0.1130873   -0.0771859
o    -0.6325379   -1.7607334   -3.5517465  0.00    0.0910233    0.0315205    0.0559852
o     1.2382634   -0.3498594   -3.4593244  0.00   -4.4466342    7.3499317    5.7150549
h     1.8544463   -0.7322058   -4.1769313  0.00    0.0078614   -0.0105502    0.0015500
n     1.6299772   -3.2906937   -1.8242050  0.00    0.0065505   -0.0325569   -0.0231056
h    -0.0227602   -2.1595931   -1.0825141  0.00    0.0031801   -0.0031204   -0.0031157
h     2.6516189   -3.1900944   -1.6510742  0.00   -0.0105986    0.0001041    0.0044236
h     1.2876771   -3.9550380   -1.0966202  0.00    0.0008450    0.0076570   -0.0028711
    24
 Energy =       1.0294242358
c     0.0623513    2.3532381   -1.4633201  0.00   -0.0134590    0.0141986   -0.0156243
c     0.0702849    2.9084873   -0.2205499  0.00   -0.0141784    0.0256532   -0.0015409
c     0.5940283    2.2226057    0.8342515  0.00    0.0005890    0.0172742    0.0227789
c     0.5858308    1.1041603   -1.6565159  0.00    0.0089469   -0.0530241   -0.0699780
c     1.1160570    0.3925953   -0.5983874  0.00    0.0245907   -0.0249625    0.0097254
c     1.1164602    0.9705984    0.6480617  0.00    0.0080058   -0.0092107    0.0110634
o    -0.4363815    4.1809011   -0.0272937  0.00    0.0141627   -0.0069689    0.0104415
h    -1.3026658    4.1308548    0.4963077  0.00   -0.0026334   -0.0052112   -0.0074655
h     1.5422122    0.4547040    1.5035966  0.00   -0.0015542    0.0034331    0.0018804
h     0.6197138    0.6837136   -2.6827422  0.00    3.3560376   -5.6535901   -4.2813497
h    -0.3421058    2.9133817   -2.3012853  0.00   -0.0001443   -0.0020847   -0.0029967
h     0.6099788    2.6845806    1.8166165  0.00    0.0005127    0.0003070    0.0007857
c     1.7733498   -0.9618972   -0.8329020  0.00   -0.0199798    0.0055125   -0.0202104
c     0.9341409   -1.9915594   -1.6313298  0.00    0.0245517    0.0169008    0.0306780
h     2.0450556   -1.4171996    0.1412683  0.00   -0.0006708    0.0035988   -0.0013550
h     2.7247403   -0.7809137   -1.3744581  0.00   -0.0035312   -0.0011815    0.0003731
c     0.5385553   -1.4491728   -2.9996699  0.00   -0.0699192    0.0830356   -0.0570587
o    -0.6366818   -1.7723231   -3.5555038  0.00    0.0650407    0.0231567    0.0409854
o     1.2544524   -0.3616930   -3.4853849  0.00   -3.4045646    5.6063598    4.3638299
h     2.0131994   -0.7675520   -4.0664955  0.00    0.0284889   -0.0223730   -0.0171866
n     1.6394481   -3.2902795   -1.7903285  0.00    0.0043925   -0.0232225   -0.0184633
h    -0.0308262   -2.1531530   -1.0990793  0.00    0.0020100   -0.0021796   -0.0021405
h     2.6564808   -3.1973701   -1.5752215  0.00   -0.0063127   -0.0000527    0.0036230
h     1.2581537   -3.9612021   -1.0851079  0.00   -0.0003815    0.0046311   -0.0007950
    24
 Energy =       0.6340730744
c     0.0893170    2.3722776   -1.4204438  0.00   -0.0053345    0.0060637   -0.0066624
c     0.1062621    2.8998318   -0.1722654  0.00   -0.0091614    0.0090996    0.0002703
c     0.6184249    2.1874353    0.8615702  0.00   -0.0002723    0.0078660    0.0096694
c     0.5935018    1.1270206   -1.6413096  0.00    0.0047172   -0.0251248   -0.0319114
c     1.1091318    0.3869386   -0.6018896  0.00    0.0105779   -0.0107793    0.0042554
c     1.1190917    0.9371196    0.6511818  0.00    0.0037395   -0.0037776    0.0047729
o    -0.3821934    4.1796337    0.0478208  0.00    0.0690641    0.0090522   -0.0149912
h    -1.3901692    4.1094370    0.3375546  0.00   -0.0594861   -0.0120801    0.0148868
h     1.5445332    0.3964746    1.4924755  0.00   -0.0002302    0.0012711    0.0009616
h     0.6171499    0.7307617   -2.6854545  0.00    1.8840594   -3.1785293   -2.4114565
h    -0.3054826    2.9608818   -2.2431670  0.00   -0.0002177   -0.0005509   -0.0016778
h     0.6427246    2.6317453    1.8517196  0.00    0.0005526    0.0005636    0.0003783
c     1.7748556   -0.9671626   -0.8485010  0.00   -0.0083800    0.0021876   -0.0083133
c     0.9333924   -1.9916633   -1.6612621  0.00    0.0088502    0.0070935    0.0134207
h     2.0431580   -1.4389700    0.1208993  0.00   -0.0003339    0.0012658   -0.0005070
h     2.7298084   -0.7789982   -1.3849892  0.00   -0.0015321   -0.0006066    0.0000519
c     0.5504561   -1.4484907   -3.0272379  0.00    0.0023717    0.0361475   -0.0195315
o    -0.7437248   -1.6269882   -3.4845330  0.00   -0.0023628    0.0117713    0.0130447
o     1.2839550   -0.3604639   -3.5238346  0.00   -1.9070071    3.1577066    2.4487065
h     2.0559207   -0.7535161   -4.0705363  0.00    0.0118454   -0.0098798   -0.0079244
n     1.6405577   -3.2855095   -1.8041706  0.00   -0.0011203   -0.0018087   -0.0198265
h    -0.0347716   -2.1447551   -1.1281744  0.00    0.0004190   -0.0005816   -0.0007804
h     2.6403622   -3.2258365   -1.4825749  0.00    0.0069820    0.0009528    0.0048567
h     1.1695711   -4.0016982   -1.1883514  0.00   -0.0077404   -0.0073226    0.0083068
    24
 Energy =       0.5609179308
c     0.0330292    2.3585719   -1.4274292  0.00   -0.0046944    0.0052406   -0.0062272
c     0.0037679    2.8721844   -0.1736225  0.00   -0.0078878    0.0079427    0.0007419
c     0.5086939    2.1619920    0.8647285  0.00   -0.0005299    0.0076827    0.0088011
c     0.5771926    1.1306010   -1.6502904  0.00    0.0043059   -0.0224005   -0.0279915
c     1.0910715    0.3953790   -0.6073133  0.00    0.0088260   -0.0093940    0.0027973
c     1.0518893    0.9299770    0.6522059  0.00    0.0032185   -0.0031314    0.0046256
o    -0.5228825    4.1378831    0.0459851  0.00    0.0594555    0.0086397   -0.0122757
h    -1.5183641    4.0475599    0.3547531  0.00   -0.0515163   -0.0103110    0.0127079
h     1.4730777    0.3921373    1.4974955  0.00   -0.0002058    0.0011709    0.0009499
h     0.6302520    0.7453252   -2.6969255  0.00    1.6272539   -2.7453255   -2.0831009
h    -0.3600957    2.9452460   -2.2522534  0.00   -0.0001945   -0.0004646   -0.0014556
h     0.4952041    2.5951512    1.8606971  0.00    0.0003900    0.0009543    0.0010233
c     1.8103036   -0.9322874   -0.8529477  0.00   -0.0067697    0.0016110   -0.0071783
c     1.0075160   -1.9874790   -1.6667622  0.00    0.0068918    0.0070518    0.0111313
h     2.0964507   -1.3953944    0.1160007  0.00   -0.0001062    0.0007057   -0.0003998
h     2.7593689   -0.7067641   -1.3868446  0.00   -0.0006579   -0.0003184   -0.0002572
c     0.5950623   -1.4522961   -3.0268321  0.00    0.0032597    0.0303284   -0.0169314
o    -0.6984736   -1.6659141   -3.4728508  0.00   -0.0028379    0.0100052    0.0110206
o     1.3049554   -0.3579363   -3.5448534  0.00   -1.6592921    2.7353427    2.1207349
h     2.1561866   -0.7424094   -3.9829514  0.00    0.0220092   -0.0154451   -0.0126033
n     1.7686486   -3.2500867   -1.8183339  0.00   -0.0003349   -0.0028295   -0.0178893
h     0.0482359   -2.1836344   -1.1294555  0.00   -0.0005703   -0.0006672   -0.0003391
h     2.7664181   -3.1528766   -1.4996904  0.00    0.0071290    0.0007464    0.0043749
h     1.3283243   -3.9894240   -1.2079834  0.00   -0.0071416   -0.0071349    0.0077402
    24
 Energy =       0.5034358048
c    -0.0271245    2.3373712   -1.4495359  0.00   -0.0043600    0.0051080   -0.0055693
c    -0.0637944    2.8637462   -0.2015390  0.00   -0.0069760    0.0070116    0.0004317
c     0.4670707    2.1792800    0.8413439  0.00   -0.0004798    0.0068594    0.0079722
c     0.5507388    1.1229572   -1.6619908  0.00    0.0037203   -0.0195702   -0.0249346
c     1.0942532    0.4167949   -0.6151089  0.00    0.0077955   -0.0085425    0.0026722
c     1.0456802    0.9620282    0.6387850  0.00    0.0030554   -0.0032506    0.0041431
o    -0.6242599    4.1176029    0.0063805  0.00    0.0516399    0.0082894   -0.0107499
h    -1.6131314    4.0111749    0.3177671  0.00   -0.0451105   -0.0089254    0.0110864
h     1.4881747    0.4452721    1.4869278  0.00    0.0000483    0.0007065    0.0011410
h     0.6045400    0.7232111   -2.7010238  0.00    1.4301271   -2.4125557   -1.8308000
h    -0.4431455    2.9035555   -2.2779298  0.00   -0.0003867   -0.0000521   -0.0015812
h     0.4462709    2.6222780    1.8327831  0.00    0.0003412    0.0008735    0.0009838
c     1.8528004   -0.8891764   -0.8525062  0.00   -0.0056774    0.0017259   -0.0060016
c     1.0617011   -1.9820045   -1.6270599  0.00    0.0057677    0.0060968    0.0103219
h     2.1767316   -1.3250182    0.1184856  0.00    0.0003176    0.0000001    0.0004481
h     2.7820660   -0.6442946   -1.4139939  0.00    0.0000998    0.0001261   -0.0004601
c     0.6289875   -1.4995900   -3.0018374  0.00    0.0087417    0.0262697   -0.0114380
o    -0.6361146   -1.8246673   -3.4747898  0.00   -0.0102612    0.0072595    0.0062703
o     1.2856203   -0.3906252   -3.5579791  0.00   -1.4591342    2.4063482    1.8629627
h     2.1189756   -0.7572410   -4.0407888  0.00    0.0211666   -0.0139178   -0.0117371
n     1.8451939   -3.2344333   -1.7450686  0.00   -0.0002726   -0.0033190   -0.0157993
h     0.1101027   -2.1788142   -1.0765623  0.00   -0.0005661   -0.0007296   -0.0001413
h     2.8401491   -3.1148774   -1.4263988  0.00    0.0066335    0.0005837    0.0039467
h     1.4143461   -3.9690247   -1.1238338  0.00   -0.0062302   -0.0063956    0.0068323
    24
 Energy =       0.4479499165
c    -0.0940768    2.3152572   -1.4624889  0.00   -0.0040914    0.0050608   -0.0048268
c    -0.1459506    2.8453928   -0.2170245  0.00   -0.0061107    0.0060488    0.0001873
c     0.4106948    2.1835576    0.8270822  0.00   -0.0006215    0.0063365    0.0070987
c     0.5252411    1.1205716   -1.6712959  0.00    0.0032800   -0.0170448   -0.0219095
c     1.0997161    0.4411379   -0.6243653  0.00    0.0067809   -0.0077721    0.0024348
c     1.0332671    0.9876028    0.6275624  0.00    0.0029267   -0.0034563    0.0035911
o    -0.7482342    4.0815356   -0.0141216  0.00    0.0443719    0.0082923   -0.0092429
h    -1.7263619    3.9512866    0.3098226  0.00   -0.0393536   -0.0076676    0.0096149
h     1.4967214    0.4896462    1.4761750  0.00    0.0002454    0.0002745    0.0012300
h     0.5839488    0.7130802   -2.7051403  0.00    1.2396317   -2.0910717   -1.5869460
h    -0.5338114    2.8629282   -2.2914339  0.00   -0.0005614    0.0003451   -0.0016010
h     0.3758766    2.6289785    1.8169701  0.00    0.0002182    0.0008440    0.0009318
c     1.9062565   -0.8357106   -0.8605908  0.00   -0.0045888    0.0018787   -0.0048670
c     1.1356934   -1.9696663   -1.5966317  0.00    0.0041791    0.0050262    0.0097906
h     2.2719918   -1.2418823    0.1097349  0.00    0.0008590   -0.0009217    0.0012817
h     2.8117552   -0.5657961   -1.4510081  0.00    0.0009700    0.0006312   -0.0007581
c     0.6710224   -1.5332777   -2.9772916  0.00    0.0117048    0.0227022   -0.0070859
o    -0.5643267   -1.9584856   -3.4579467  0.00   -0.0148142    0.0045348    0.0029057
o     1.2725131   -0.4124639   -3.5720695  0.00   -1.2661213    2.0885082    1.6144779
h     2.0787614   -0.7646263   -4.1073885  0.00    0.0208400   -0.0125707   -0.0114258
n     1.9570535   -3.1998289   -1.7005539  0.00   -0.0040267    0.0004687   -0.0235916
h     0.1987493   -2.1809844   -1.0261551  0.00   -0.0009336   -0.0008350   -0.0000482
h     2.9152899   -3.0837804   -1.2676457  0.00    0.0163817    0.0026047    0.0076329
h     1.4740418   -3.9789674   -1.1696689  0.00   -0.0111663   -0.0122167    0.0111255
    24
 Energy =       0.3910988867
c    -0.1922766    2.2811568   -1.4580432  0.00   -0.0040860    0.0054016   -0.0041396
c    -0.2429833    2.8086916   -0.2120992  0.00   -0.0052997    0.0051820   -0.0004007
c     0.3601399    2.1701798    0.8209921  0.00   -0.0006100    0.0055190    0.0064246
c     0.4738580    1.1138077   -1.6793540  0.00    0.0026019   -0.0141964   -0.0188141
c     1.1003930    0.4608604   -0.6436107  0.00    0.0057126   -0.0069484    0.0026374
c     1.0310568    1.0026135    0.6095759  0.00    0.0030303   -0.0039656    0.0030936
o    -0.8916678    4.0204247    0.0018452  0.00    0.0365992    0.0083797   -0.0080392
h    -1.8602041    3.8584978    0.3284338  0.00   -0.0334051   -0.0062803    0.0082251
h     1.5314192    0.5246075    1.4495901  0.00    0.0007034   -0.0004297    0.0016163
h     0.5206061    0.7070375   -2.7145314  0.00    1.0419679   -1.7578673   -1.3345872
h    -0.6727095    2.8097030   -2.2777604  0.00   -0.0010104    0.0010415   -0.0019787
h     0.3234431    2.6130370    1.8117859  0.00    0.0001335    0.0006969    0.0008050
c     1.9647147   -0.7776954   -0.8927144  0.00   -0.0027924    0.0015240   -0.0039033
c     1.2244553   -1.9601075   -1.5848489  0.00    0.0028815    0.0058208    0.0089364
h     2.3853268   -1.1518312    0.0700313  0.00    0.0016697   -0.0019725    0.0024871
h     2.8366398   -0.4712715   -1.5172294  0.00    0.0023039    0.0013271   -0.0013772
c     0.6722466   -1.5536669   -2.9440052  0.00    0.0118951    0.0179213   -0.0062620
o    -0.5791245   -2.0139278   -3.3498741  0.00   -0.0163575    0.0024848    0.0010435
o     1.2200094   -0.4324477   -3.5932755  0.00   -1.0723737    1.7655063    1.3597417
h     2.0924771   -0.7577531   -4.0413345  0.00    0.0256441   -0.0158411   -0.0130503
n     2.1128538   -3.1416216   -1.7243171  0.00   -0.0002409    0.0008134   -0.0252044
h     0.3279127   -2.2211222   -0.9663895  0.00   -0.0035121   -0.0015886    0.0013798
h     3.0344510   -3.0145425   -1.2179438  0.00    0.0183595    0.0041986    0.0086036
h     1.6327949   -3.9791244   -1.2803967  0.00   -0.0138148   -0.0167272    0.0127623
    24
 Energy =       0.3177876168
c    -0.2904333    2.2403219   -1.4512050  0.00   -0.0042871    0.0054067   -0.0047734
c    -0.3041244    2.7894942   -0.2132905  0.00   -0.0048524    0.0042308   -0.0013113
c     0.3741926    2.1970524    0.8022283  0.00    0.0007774    0.0029013    0.0069592
c     0.4155237    1.0986790   -1.6821017  0.00    0.0010057   -0.0097426   -0.0157930
c     1.1147317    0.4917233   -0.6631675  0.00    0.0048825   -0.0062637    0.0031441
c     1.0803364    1.0534387    0.5824320  0.00    0.0031558   -0.0038830    0.0036828
o    -0.9924464    3.9777689    0.0116463  0.00    0.0316450    0.0088104   -0.0090464
h    -1.9768585    3.7860755    0.2588025  0.00   -0.0299117   -0.0059707    0.0082519
h     1.6370135    0.6112211    1.4087869  0.00    0.0017406   -0.0013496    0.0029979
h     0.4312210    0.6755204   -2.7103627  0.00    0.7941186   -1.3402104   -1.0187316
h    -0.8296827    2.7338828   -2.2582352  0.00   -0.0019678    0.0019605   -0.0033074
h     0.3642544    2.6567904    1.7862969  0.00    0.0003844    0.0004015    0.0013003
c     2.0164401   -0.7169771   -0.9246013  0.00   -0.0017474    0.0024546   -0.0021484
c     1.2869991   -1.9460603   -1.5462147  0.00    0.0017537    0.0031098    0.0076492
h     2.4980432   -1.0466941    0.0277073  0.00    0.0024320   -0.0024454    0.0041475
h     2.8464817   -0.3959367   -1.5991636  0.00    0.0034472    0.0019730   -0.0020018
c     0.6746059   -1.6076807   -2.8996066  0.00    0.0124447    0.0123144   -0.0020754
o    -0.5447461   -2.1726809   -3.2767140  0.00   -0.0188860   -0.0009338   -0.0016860
o     1.1471229   -0.4861788   -3.6080594  0.00   -0.8160412    1.3509380    1.0335069
h     2.0132417   -0.7838564   -4.0758400  0.00    0.0194112   -0.0119029   -0.0098382
n     2.2104870   -3.0993054   -1.6791832  0.00   -0.0010420    0.0019557   -0.0230433
h     0.4244633   -2.2148749   -0.8837473  0.00   -0.0037164   -0.0019079    0.0018455
h     3.0894827   -2.9804040   -1.1004884  0.00    0.0183548    0.0042173    0.0088912
h     1.7194834   -3.9658140   -1.3113927  0.00   -0.0131014   -0.0160639    0.0113797
    24
 Energy =       0.2427052486
c    -0.3596373    2.2115229   -1.4344841  0.00   -0.0032372    0.0042312   -0.0030463
c    -0.4071974    2.7391972   -0.1884057  0.00   -0.0029131    0.0024680   -0.0005967
c     0.2901491    2.1613471    0.8200810  0.00   -0.0001472    0.0028958    0.0047274
c     0.3985847    1.1070662   -1.6800919  0.00    0.0015896   -0.0078758   -0.0110770
c     1.1156466    0.5162647   -0.6685700  0.00    0.0033527   -0.0049541    0.0012781
c     1.0473303    1.0541557    0.5856119  0.00    0.0024648   -0.0031946    0.0024942
o    -1.1511996    3.8917576    0.0525714  0.00    0.0206252    0.0081258   -0.0059278
h    -2.1285559    3.6593059    0.2669050  0.00   -0.0209554   -0.0038908    0.0060423
h     1.6155599    0.6215067    1.4077554  0.00    0.0011859   -0.0009804    0.0019581
h     0.4381284    0.6995982   -2.7101657  0.00    0.5496927   -0.9279884   -0.7050919
h    -0.9157647    2.6933848   -2.2355341  0.00   -0.0014227    0.0015365   -0.0021172
h     0.2518171    2.6033240    1.8117179  0.00    0.0000197    0.0007581    0.0012722
c     2.0620103   -0.6531478   -0.9439714  0.00   -0.0006642    0.0013520   -0.0015834
c     1.3668677   -1.9102665   -1.5448679  0.00    0.0002763    0.0021600    0.0056015
h     2.5754544   -0.9557910   -0.0006934  0.00    0.0020677   -0.0022414    0.0031700
h     2.8654232   -0.3053335   -1.6364844  0.00    0.0028908    0.0016142   -0.0016289
c     0.7453984   -1.6130154   -2.9023884  0.00    0.0128109    0.0102481    0.0008946
o    -0.4219072   -2.2662479   -3.3003556  0.00   -0.0177170   -0.0029745   -0.0030314
o     1.1768808   -0.4931129   -3.6337880  0.00   -0.5648188    0.9351472    0.7142795
h     2.0190361   -0.7810329   -4.1396379  0.00    0.0138479   -0.0077610   -0.0066131
n     2.3266364   -3.0327542   -1.6635617  0.00   -0.0017762    0.0035663   -0.0214480
h     0.5169530   -2.1964954   -0.8757874  0.00   -0.0026000   -0.0012628    0.0012783
h     3.1495598   -2.9285132   -1.0054335  0.00    0.0178383    0.0043777    0.0097472
h     1.8286584   -3.9272149   -1.3858952  0.00   -0.0124108   -0.0153571    0.0094183
    24
 Energy =       0.1937890460
c    -0.4290858    2.1803410   -1.4176447  0.00   -0.0026199    0.0033498   -0.0022991
c    -0.5128156    2.6777999   -0.1611469  0.00   -0.0017540    0.0014631   -0.0000292
c     0.1979870    2.1081190    0.8411893  0.00   -0.0009862    0.0032813    0.0036563
c     0.3778581    1.1149217   -1.6799087  0.00    0.0020113   -0.0067926   -0.0083989
c     1.1104590    0.5351121   -0.6755661  0.00    0.0024904   -0.0041926   -0.0001093
c     1.0054948    1.0406824    0.5895854  0.00    0.0020867   -0.0027330    0.0019527
o    -1.3099527    3.7916192    0.0965310  0.00    0.0144451    0.0080506   -0.0034734
h    -2.2684815    3.5130510    0.3256278  0.00   -0.0161611   -0.0028796    0.0044066
h     1.5827354    0.6135869    1.4075019  0.00    0.0008350   -0.0007102    0.0013846
h     0.4389979    0.7286771   -2.7146646  0.00    0.3947503   -0.6670269   -0.5066197
h    -0.9994445    2.6542726   -2.2124942  0.00   -0.0011027    0.0012543   -0.0014133
h     0.1296205    2.5254637    1.8421858  0.00   -0.0002607    0.0010965    0.0015024
c     2.1037735   -0.5902988   -0.9675144  0.00    0.0002559    0.0005353   -0.0014768
c     1.4516338   -1.8745567   -1.5566035  0.00   -0.0008248    0.0024294    0.0043774
h     2.6467374   -0.8680922   -0.0340192  0.00    0.0019750   -0.0021321    0.0025168
h     2.8807904   -0.2097153   -1.6723936  0.00    0.0027035    0.0014916   -0.0015087
c     0.7992853   -1.6031491   -2.9044124  0.00    0.0094138    0.0071101    0.0008881
o    -0.3478624   -2.2971660   -3.2827254  0.00   -0.0131076   -0.0025462   -0.0024553
o     1.2003507   -0.4913479   -3.6626274  0.00   -0.4068786    0.6737552    0.5134761
h     2.0719250   -0.7510911   -4.1284520  0.00    0.0112986   -0.0065351   -0.0055546
n     2.4588956   -2.9517101   -1.6898198  0.00    0.0000275    0.0063419   -0.0223945
h     0.6268016   -2.1982190   -0.8732518  0.00   -0.0026688   -0.0011657    0.0014549
h     3.2181204   -2.8721213   -0.9550152  0.00    0.0178276    0.0052255    0.0120860
h     1.9720089   -3.8806735   -1.5198350  0.00   -0.0137563   -0.0186707    0.0080308
    24
 Energy =       0.1525507765
c    -0.5036629    2.1438286   -1.3968267  0.00   -0.0022899    0.0028767   -0.0014229
c    -0.6137751    2.6129452   -0.1318512  0.00   -0.0008385    0.0005930    0.0000515
c     0.1207297    2.0582134    0.8609490  0.00   -0.0013995    0.0031102    0.0026633
c     0.3522071    1.1220239   -1.6768284  0.00    0.0022251   -0.0056068   -0.0061312
c     1.1085388    0.5593116   -0.6827080  0.00    0.0019510   -0.0035466   -0.0007015
c     0.9775145    1.0345115    0.5912450  0.00    0.0019450   -0.0025404    0.0013055
o    -1.4650047    3.6822186    0.1444950  0.00    0.0091025    0.0079244   -0.0018787
h    -2.4048501    3.3542978    0.3740494  0.00   -0.0120621   -0.0021614    0.0031918
h     1.5711112    0.6173828    1.4020831  0.00    0.0006833   -0.0006272    0.0009552
h     0.4302877    0.7555458   -2.7144813  0.00    0.2680336   -0.4534075   -0.3439534
h    -1.0952312    2.6046999   -2.1833052  0.00   -0.0009773    0.0011342   -0.0009450
h     0.0301165    2.4522982    1.8694657  0.00   -0.0004237    0.0011374    0.0013427
c     2.1448173   -0.5197002   -0.9938110  0.00    0.0007017   -0.0000227   -0.0012295
c     1.5329195   -1.8314987   -1.5614774  0.00   -0.0015258    0.0018423    0.0034996
h     2.7232254   -0.7664544   -0.0733819  0.00    0.0020236   -0.0019666    0.0022335
h     2.8879811   -0.1103066   -1.7187368  0.00    0.0025490    0.0014990   -0.0014499
c     0.8571682   -1.5994727   -2.9051129  0.00    0.0076421    0.0054856    0.0016717
o    -0.2515014   -2.3559004   -3.2745163  0.00   -0.0107925   -0.0030581   -0.0024672
o     1.2190896   -0.4962519   -3.6920299  0.00   -0.2752752    0.4582648    0.3474534
h     2.0856391   -0.7413520   -4.1678311  0.00    0.0070757   -0.0041025   -0.0034595
n     2.5809924   -2.8667908   -1.6938190  0.00    0.0008588    0.0072894   -0.0203312
h     0.7308300   -2.1816310   -0.8652023  0.00   -0.0021730   -0.0010222    0.0012438
h     3.2741967   -2.8157509   -0.8952509  0.00    0.0157346    0.0048962    0.0125935
h     2.1124933   -3.8166624   -1.6205906  0.00   -0.0127686   -0.0179914    0.0057644
    24
 Energy =       0.1240029810
c    -0.5722042    2.1079125   -1.3725188  0.00   -0.0020574    0.0024794   -0.0008997
c    -0.7044469    2.5460626   -0.0987573  0.00   -0.0002869    0.0000813    0.0001210