    27
 Energy =       0.2823541208
c    -1.4235396    2.6054793   -0.0667700  0.00   -0.0462189    0.0382882    0.0026870
c    -1.3072796    1.2134697   -0.1072300  0.00   -0.0852475   -0.0325620    0.0019633
c    -0.0178900    0.6711998   -0.1697000  0.00   -0.0885293   -0.1878533   -0.0009830
c    -0.2940599    3.4190890   -0.0891300  0.00   -0.0231262    0.0691207    0.0028477
c     0.9872197    2.8590292   -0.1560400  0.00    0.0104104    0.0643314    0.0008697
c     1.1340797    1.4562096   -0.1970299  0.00    0.0530565    0.0518110    0.0022288
n     0.3879399   -0.6395298   -0.2140799  0.00    0.1437916    0.1090517   -0.0040430
c     2.2666594    0.5727398   -0.2659299  0.00    0.1388926   -0.0561575   -0.0196843
c     1.7555995   -0.7123598   -0.2706899  0.00   -0.0964075   -0.0971818    0.0047749
h    -0.2400399   -1.4313496   -0.2047299  0.00    0.0365211    0.0476112   -0.0003044
c     3.7030089    1.0223397   -0.3320099  0.00    0.0497616    0.0386833    0.0254142
c     4.7465686   -0.0024900    0.1378100  0.00   -0.1144386    0.0933055    0.0230034
h     3.7978489    1.9290294    0.2803699  0.00    0.0245069   -0.0104284   -0.0120308
h     3.9233889    1.3348996   -1.3618196  0.00   -0.0056112    0.0021299    0.0152683
c     6.0911583    0.7171698    0.3515799  0.00    0.3523328   -0.1365237    0.1069947
n     4.9813086   -1.1161597   -0.8485798  0.00    0.0850423   -0.0776509   -0.0235956
h     4.4627987   -0.4486599    1.0982597  0.00    0.0099922   -0.0104125   -0.0252077
h     5.9519483   -1.0348997   -1.1684897  0.00   -0.0318919    0.0247735    0.0450497
h     4.9673786   -2.0001494   -0.3277699  0.00    0.0014224    0.0342610   -0.0116503
h    -2.4108593    3.0588691   -0.0157800  0.00   -0.0008865    0.0002751    0.0000796
h    -2.1896094    0.5822398   -0.0890100  0.00   -0.0036488    0.0037112    0.0001122
h    -0.4052699    4.5000487   -0.0535400  0.00    0.0008600    0.0002424    0.0003516
h     1.8590495    3.5066790   -0.1715100  0.00   -0.0007874    0.0025098    0.0008827
h     2.2327294   -1.6813195   -0.3062999  0.00   -0.0416167   -0.0114274    0.0036216
o     7.1078880    0.2061599    0.7909508  0.00   -0.2409107    0.1190061   -0.1159628
o     6.0134283    2.0241194   -0.0177607  0.00   -0.1009459   -0.0491553   -0.0094146
h     6.2503082    2.5356393    0.7988438  0.00   -0.0263234   -0.0297595   -0.0132727
    27
 Energy =       0.2422863049
c    -1.4109870    2.5308453   -0.0104197  0.00   -0.0327781    0.0274908    0.0018833
c    -1.2809272    1.1497253   -0.0544717  0.00   -0.0611201   -0.0232390    0.0013912
c    -0.0007986    0.6230762   -0.1162971  0.00   -0.0637519   -0.1345861   -0.0002245
c    -0.2941405    3.3495971   -0.0323958  0.00   -0.0164654    0.0494769    0.0020050
c     0.9806651    2.8025891   -0.1011243  0.00    0.0079640    0.0459810    0.0005540
c     1.1254551    1.4157888   -0.1422570  0.00    0.0371751    0.0380094    0.0014707
n     0.4031112   -0.7026086   -0.1844653  0.00    0.1014785    0.0777000   -0.0032128
c     2.2562452    0.5772844   -0.2209442  0.00    0.0997854   -0.0396926   -0.0136791
c     1.7903586   -0.7125512   -0.2450522  0.00   -0.0699792   -0.0675194    0.0038221
h    -0.2081551   -1.5203038   -0.1843298  0.00    0.0260652    0.0334018   -0.0003935
c     3.6812702    1.0657093   -0.3155119  0.00    0.0354191    0.0282796    0.0184375
c     4.7685579    0.0511196    0.0774864  0.00   -0.0814039    0.0682061    0.0166946
h     3.7795677    1.9474019    0.3399512  0.00    0.0186149   -0.0065302   -0.0075757
h     3.8618157    1.4248090   -1.3447882  0.00   -0.0038022    0.0023584    0.0092458
c     6.1003346    0.7913044    0.2507136  0.00    0.2546788   -0.0995831    0.0771368
n     4.9427764   -1.0267741   -0.9469452  0.00    0.0602562   -0.0541564   -0.0188611
h     4.5404425   -0.4135772    1.0524847  0.00    0.0070678   -0.0075683   -0.0158929
h     5.9095873   -0.9731104   -1.3058868  0.00   -0.0213053    0.0181442    0.0323879
h     4.8915321   -1.9438217   -0.4724069  0.00    0.0007814    0.0208621   -0.0076245
h    -2.4024532    2.9749113    0.0402412  0.00   -0.0006754    0.0002408    0.0000589
h    -2.1550149    0.5070931   -0.0424890  0.00   -0.0027111    0.0026211    0.0000660
h    -0.4143252    4.4297057    0.0027247  0.00    0.0006343    0.0002142    0.0002513
h     1.8497333    3.4536324   -0.1216071  0.00   -0.0004363    0.0016664    0.0006319
h     2.3341074   -1.6460236   -0.3193637  0.00   -0.0276428   -0.0104966    0.0023383
o     7.1551932    0.2618142    0.7080854  0.00   -0.1735427    0.0860253   -0.0829597
o     6.0362547    2.1156067   -0.0866886  0.00   -0.0764103   -0.0497608   -0.0376781
h     6.0915551    2.6142495    0.7996723  0.00   -0.0178960   -0.0075456    0.0197268
    27
 Energy =       0.2307363993
c    -1.4175490    2.5061105   -0.0027069  0.00   -0.0295716    0.0248351    0.0016968
c    -1.2826745    1.1280211   -0.0522947  0.00   -0.0551785   -0.0209894    0.0012672
c    -0.0041954    0.6065099   -0.1130932  0.00   -0.0575624   -0.1213665   -0.0000719
c    -0.3044438    3.3270718   -0.0198897  0.00   -0.0148468    0.0446741    0.0017955
c     0.9694131    2.7844933   -0.0882920  0.00    0.0072245    0.0415114    0.0004786
c     1.1152864    1.4016538   -0.1334401  0.00    0.0335111    0.0343877    0.0013103
n     0.3998940   -0.7218543   -0.1970074  0.00    0.0915155    0.0700024   -0.0030426
c     2.2460215    0.5747228   -0.2156002  0.00    0.0901032   -0.0357569   -0.0123423
c     1.7917525   -0.7161195   -0.2510963  0.00   -0.0632013   -0.0608211    0.0035487
h    -0.2077028   -1.5452774   -0.2075852  0.00    0.0234807    0.0300405   -0.0003971
c     3.6678958    1.0728769   -0.3175383  0.00    0.0321313    0.0255948    0.0166815
c     4.7646059    0.0701787    0.0796197  0.00   -0.0733682    0.0615489    0.0148920
h     3.7637295    1.9615145    0.3318706  0.00    0.0174936   -0.0056284   -0.0066489
h     3.8443609    1.4245879   -1.3507958  0.00   -0.0034421    0.0021470    0.0083245
c     6.0869175    0.8241114    0.2490757  0.00    0.2297614   -0.0896355    0.0703407
n     4.9387080   -1.0100792   -0.9396445  0.00    0.0543609   -0.0488869   -0.0170410
h     4.5398492   -0.3879700    1.0596302  0.00    0.0063868   -0.0068419   -0.0143179
h     5.9071924   -0.9624083   -1.2997043  0.00   -0.0191966    0.0163779    0.0292715
h     4.8828504   -1.9266846   -0.4620614  0.00    0.0006794    0.0188158   -0.0068698
h    -2.4105056    2.9468119    0.0471711  0.00   -0.0006160    0.0002211    0.0000539
h    -2.1541470    0.4817967   -0.0471437  0.00   -0.0024728    0.0023454    0.0000579
h    -0.4277298    4.4067323    0.0183770  0.00    0.0005752    0.0002032    0.0002266
h     1.8370414    3.4375215   -0.1061643  0.00   -0.0003699    0.0014910    0.0005721
h     2.3507719   -1.6394865   -0.3375833  0.00   -0.0248281   -0.0096513    0.0021071
o     7.1613182    0.2935889    0.6940720  0.00   -0.1564489    0.0777492   -0.0748411
o     6.0227927    2.1500288   -0.0904685  0.00   -0.0749118   -0.0566579   -0.0559443
h     6.2503082    2.6590400    0.7762085  0.00   -0.0112085    0.0042901    0.0388921
    27
 Energy =       0.2115348025
c    -1.4344913    2.4275667    0.0292041  0.00   -0.0222475    0.0188813    0.0012849
c    -1.2814840    1.0574461   -0.0432986  0.00   -0.0415875   -0.0160426    0.0011153
c    -0.0037569    0.5544219   -0.0975673  0.00   -0.0433711   -0.0900103    0.0011909
c    -0.3339275    3.2592105    0.0366981  0.00   -0.0108951    0.0338635    0.0012282
c     0.9407483    2.7335022   -0.0259057  0.00    0.0058323    0.0313762    0.0001707
c     1.0960547    1.3608480   -0.0899807  0.00    0.0250000    0.0265327    0.0008493
n     0.4093990   -0.7765558   -0.2320773  0.00    0.0676726    0.0513488   -0.0037272
c     2.2318496    0.5679732   -0.1755389  0.00    0.0681593   -0.0262929   -0.0089496
c     1.8124869   -0.7272074   -0.2474384  0.00   -0.0470306   -0.0449916    0.0036492
h    -0.1847287   -1.6162351   -0.2855356  0.00    0.0167733    0.0210122   -0.0007564
c     3.6423113    1.1043189   -0.2709929  0.00    0.0232400    0.0194730    0.0127136
c     4.7783588    0.1185902    0.0600552  0.00   -0.0545866    0.0467831    0.0113746
h     3.7291761    1.9642361    0.4234473  0.00    0.0134570   -0.0030772   -0.0038732
h     3.7955337    1.5095833   -1.2925544  0.00   -0.0022248    0.0024015    0.0046993
c     6.0790308    0.9075528    0.2164538  0.00    0.1726099   -0.0677749    0.0540355
n     4.9333093   -0.9192008   -1.0001076  0.00    0.0417259   -0.0354640   -0.0150550
h     4.5940191   -0.3726242    1.0371982  0.00    0.0045340   -0.0056209   -0.0093425
h     5.9064720   -0.8857026   -1.3606442  0.00   -0.0141828    0.0126093    0.0222749
h     4.8414003   -1.8606991   -0.5688304  0.00   -0.0000441    0.0109921   -0.0041809
h    -2.4333784    2.8552644    0.0736437  0.00   -0.0005863    0.0002036    0.0000494
h    -2.1437741    0.3988307   -0.0664251  0.00   -0.0022604    0.0014147    0.0000213
h    -0.4699919    4.3369070    0.0895907  0.00    0.0004711    0.0003594    0.0001713
h     1.8020994    3.3953466   -0.0260809  0.00   -0.0000523    0.0012035    0.0004241
h     2.4119468   -1.6233529   -0.3544747  0.00   -0.0178693   -0.0083312    0.0015255
o     7.1937637    0.3815601    0.6483387  0.00   -0.1167053    0.0586699   -0.0567188
o     6.0102733    2.2375817   -0.1298962  0.00   -0.0666427   -0.0548946   -0.0646518
h     6.4090613    2.7583300    0.6766343  0.00    0.0008110    0.0153751    0.0504773
    27
 Energy =       0.2110198005
c    -1.4485821    2.3845685    0.0422236  0.00   -0.0219168    0.0185673    0.0012666
c    -1.2832902    1.0160237   -0.0332433  0.00   -0.0409082   -0.0157965    0.0010979
c    -0.0012009    0.5244684   -0.0844448  0.00   -0.0426566   -0.0884005    0.0011828
c    -0.3555132    3.2258399    0.0560762  0.00   -0.0106983    0.0333319    0.0012099
c     0.9234662    2.7114675   -0.0026422  0.00    0.0058117    0.0308578    0.0001621
c     1.0902757    1.3409386   -0.0700699  0.00    0.0245319    0.0261242    0.0008165
n     0.4263618   -0.8031788   -0.2197468  0.00    0.0663535    0.0504065   -0.0036752
c     2.2336697    0.5611590   -0.1504058  0.00    0.0668532   -0.0261187   -0.0083157
c     1.8297813   -0.7381270   -0.2231161  0.00   -0.0461459   -0.0442182    0.0035472
h    -0.1578564   -1.6498385   -0.2793105  0.00    0.0163911    0.0205128   -0.0007536
c     3.6365195    1.1195778   -0.2270678  0.00    0.0214708    0.0187497    0.0127882
c     4.7955638    0.1340515    0.0249524  0.00   -0.0529392    0.0473762    0.0126311
h     3.7203831    1.9355945    0.5228718  0.00    0.0127723   -0.0011379   -0.0021539
h     3.7698200    1.5935609   -1.2250847  0.00   -0.0018174    0.0036181    0.0022070
c     6.0823746    0.9419159    0.1966708  0.00    0.1697369   -0.0665501    0.0530947
n     4.9473527   -0.8414304   -1.0954560  0.00    0.0420746   -0.0340549   -0.0194310
h     4.6425907   -0.4156133    0.9793280  0.00    0.0040880   -0.0065871   -0.0069705
h     5.9241544   -0.7962226   -1.4461578  0.00   -0.0136938    0.0123515    0.0217334
h     4.8353314   -1.8098772   -0.7275835  0.00   -0.0003944    0.0067918   -0.0028268
h    -2.4513861    2.8033639    0.0840882  0.00   -0.0006264    0.0002191    0.0000507
h    -2.1395860    0.3497896   -0.0610580  0.00   -0.0022686    0.0013522    0.0000197
h    -0.5011852    4.3021947    0.1114446  0.00    0.0004590    0.0004064    0.0001710
h     1.7797062    3.3801584    0.0032632  0.00    0.0000280    0.0011978    0.0004084
h     2.4412040   -1.6271772   -0.3194596  0.00   -0.0175358   -0.0082905    0.0014770
o     7.2049747    0.4330009    0.6332991  0.00   -0.1144166    0.0575892   -0.0556264
o     5.9916094    2.2758006   -0.1347970  0.00   -0.0653760   -0.0533850   -0.0637284
h     6.3952226    2.7954833    0.6693411  0.00    0.0008231    0.0150869    0.0496172
    27
 Energy =       0.2065584277
c    -1.4494350    2.3730988    0.0624862  0.00   -0.0207367    0.0172080    0.0011904
c    -1.2801204    1.0044954    0.0195085  0.00   -0.0381762   -0.0153129    0.0009388
c     0.0011107    0.5172176   -0.0471881  0.00   -0.0391572   -0.0803209    0.0008514
c    -0.3598973    3.2182133    0.0329141  0.00   -0.0094695    0.0314406    0.0011541
c     0.9185375    2.7075116   -0.0414883  0.00    0.0056772    0.0291129    0.0002071
c     1.0877805    1.3375048   -0.0794163  0.00    0.0231329    0.0247551    0.0007940
n     0.4291088   -0.8175810   -0.1234469  0.00    0.0594222    0.0452171   -0.0029810
c     2.2308122    0.5632773   -0.1670907  0.00    0.0626400   -0.0238383   -0.0075990
c     1.8336044   -0.7392375   -0.1980370  0.00   -0.0405919   -0.0403028    0.0029560
h    -0.1528630   -1.6714255   -0.1205574  0.00    0.0133962    0.0164286   -0.0005919
c     3.6309551    1.1242872   -0.2848199  0.00    0.0200540    0.0172105    0.0118559
c     4.7920380    0.1504819    0.0033231  0.00   -0.0489917    0.0440376    0.0121236
h     3.7142070    1.9722663    0.4303453  0.00    0.0119564   -0.0002079   -0.0012929
h     3.7580962    1.5560693   -1.3031889  0.00   -0.0014844    0.0038523    0.0011263
c     6.0765406    0.9621610    0.1729798  0.00    0.1576065   -0.0616841    0.0494503
n     4.9517554   -0.8492634   -1.0938462  0.00    0.0391715   -0.0315575   -0.0188108
h     4.6289654   -0.3762014    0.9693729  0.00    0.0037693   -0.0062568   -0.0061349
h     5.9292278   -0.8079824   -1.4455391  0.00   -0.0126929    0.0114160    0.0201858
h     4.8466297   -1.8097739   -0.7020168  0.00   -0.0004096    0.0057716   -0.0024522
h    -2.4529391    2.7888689    0.1170573  0.00   -0.0007206    0.0001340    0.0000494
h    -2.1338674    0.3332666    0.0350463  0.00   -0.0028395    0.0005698    0.0000273
h    -0.5084452    4.2953518    0.0652726  0.00    0.0005427    0.0006848    0.0001636
h     1.7722515    3.3796579   -0.0714154  0.00    0.0005446    0.0015648    0.0003697
h     2.4512175   -1.6239353   -0.2964126  0.00   -0.0163309   -0.0077755    0.0013205
o     7.2052768    0.4464516    0.6034515  0.00   -0.1062141    0.0534232   -0.0517121
o     5.9903587    2.2986332   -0.1519091  0.00   -0.0610906   -0.0499354   -0.0598694
h     6.4208552    2.8140787    0.6385302  0.00    0.0009923    0.0143652    0.0466799
    27
 Energy =       0.1970832641
c    -1.4473952    2.3525438    0.1123807  0.00   -0.0164823    0.0131567    0.0009140
c    -1.2712296    0.9877652    0.0980072  0.00   -0.0298187   -0.0123499    0.0005163
c     0.0058338    0.5067338    0.0129297  0.00   -0.0301748   -0.0615423   -0.0001836
c    -0.3645175    3.2000541    0.0381819  0.00   -0.0068761    0.0247720    0.0009701
c     0.9109052    2.6941389   -0.0563356  0.00    0.0047732    0.0228980    0.0002955
c     1.0819200    1.3285760   -0.0667087  0.00    0.0180363    0.0195615    0.0007282
n     0.4322071   -0.8344450   -0.0211156  0.00    0.0434896    0.0344716   -0.0010293
c     2.2214281    0.5664627   -0.1712447  0.00    0.0483549   -0.0189140   -0.0054072
c     1.8372726   -0.7373673   -0.1683872  0.00   -0.0293655   -0.0304311    0.0013513
h    -0.1457331   -1.6942291    0.0381957  0.00    0.0088870    0.0105899   -0.0000744
c     3.6162569    1.1314153   -0.3547877  0.00    0.0165033    0.0125606    0.0094071
c     4.7868282    0.1811021   -0.0249417  0.00   -0.0378946    0.0348623    0.0103647
h     3.7045852    2.0256793    0.3046944  0.00    0.0096629    0.0019361    0.0004681
h     3.7251522    1.4970251   -1.4028228  0.00   -0.0008419    0.0040142   -0.0015107
c     6.0705145    1.0008681    0.1083631  0.00    0.1210335   -0.0466926    0.0393056
n     4.9333389   -0.8650812   -1.0777815  0.00    0.0295796   -0.0241912   -0.0168863
h     4.6263029   -0.2981109    0.9678192  0.00    0.0028242   -0.0054132   -0.0034850
h     5.9135801   -0.8620520   -1.4327679  0.00   -0.0087989    0.0082955    0.0151050
h     4.8138321   -1.8072570   -0.6427424  0.00   -0.0007409    0.0026616   -0.0011213
h    -2.4516073    2.7643415    0.1820378  0.00   -0.0007345    0.0000391    0.0000420
h    -2.1197131    0.3113371    0.1540969  0.00   -0.0028626   -0.0001453    0.0000510
h    -0.5173063    4.2771643    0.0491801  0.00    0.0005471    0.0008064    0.0001291
h     1.7603911    3.3694243   -0.1250968  0.00    0.0011032    0.0016856    0.0002570
h     2.4678236   -1.6106312   -0.2863638  0.00   -0.0121293   -0.0061583    0.0008442
o     7.2216955    0.4700688    0.5144921  0.00   -0.0813443    0.0411195   -0.0404834
o     6.0000579    2.3377980   -0.2287981  0.00   -0.0511625   -0.0431656   -0.0533838
h     6.5193379    2.8541679    0.5034311  0.00    0.0044321    0.0155731    0.0428156
    27
 Energy =       0.1925815045
c    -1.4357397    2.3668543    0.1714984  0.00   -0.0136847    0.0106637    0.0007449
c    -1.2634899    1.0039584    0.1708354  0.00   -0.0245460   -0.0102419    0.0003457
c     0.0075827    0.5186576    0.0736713  0.00   -0.0247813   -0.0504664   -0.0003553
c    -0.3522693    3.2083543    0.0717062  0.00   -0.0055257    0.0204252    0.0008198
c     0.9178647    2.6970280   -0.0358785  0.00    0.0040325    0.0188634    0.0002853
c     1.0817199    1.3335968   -0.0322055  0.00    0.0148256    0.0160915    0.0006469
n     0.4238159   -0.8276013    0.0513594  0.00    0.0352451    0.0282432   -0.0005706
c     2.2136935    0.5712025   -0.1484415  0.00    0.0393783   -0.0154596   -0.0042894
c     1.8287937   -0.7305410   -0.1260642  0.00   -0.0238357   -0.0249512    0.0009025
h    -0.1576746   -1.6852057    0.1335536  0.00    0.0070138    0.0083301    0.0000209
c     3.6066968    1.1301171   -0.3731596  0.00    0.0136004    0.0102243    0.0077924
c     4.7851596    0.1793530   -0.0703607  0.00   -0.0311968    0.0290301    0.0086610
h     3.7168859    2.0296496    0.2760177  0.00    0.0080801    0.0018160    0.0006507
h     3.6890931    1.4848790   -1.4273338  0.00   -0.0006487    0.0033703   -0.0016496
c     6.0769174    0.9928551    0.0212611  0.00    0.0984348   -0.0379127    0.0327217
n     4.8917471   -0.8731291   -1.1193066  0.00    0.0216918   -0.0177110   -0.0145912
h     4.6514460   -0.2894844    0.9319757  0.00    0.0022713   -0.0043687   -0.0022694
h     5.8791908   -0.9300498   -1.4587864  0.00   -0.0043038    0.0064198    0.0113860
h     4.7140368   -1.8091109   -0.6867996  0.00   -0.0013970   -0.0004983    0.0000796
h    -2.4375466    2.7826585    0.2507683  0.00   -0.0006769    0.0000136    0.0000370
h    -2.1123934    0.3303044    0.2474819  0.00   -0.0025169   -0.0002647    0.0000482
h    -0.5011631    4.2860381    0.0718458  0.00    0.0004819    0.0007390    0.0001067
h     1.7687276    3.3679218   -0.1264735  0.00    0.0011059    0.0015405    0.0001983
h     2.4587284   -1.6023980   -0.2522377  0.00   -0.0095929   -0.0050954    0.0005404
o     7.2419241    0.4422316    0.3973395  0.00   -0.0655905    0.0334466   -0.0333632
o     6.0247797    2.3280233   -0.3330293  0.00   -0.0444943   -0.0382100   -0.0482214
h     6.6132346    2.8413296    0.3446780  0.00    0.0066298    0.0159626    0.0393222
    27
 Energy =       0.1918813095
c    -1.4087147    2.4334438    0.2149959  0.00   -0.0131061    0.0099868    0.0007307
c    -1.2560133    1.0689502    0.2376520  0.00   -0.0230930   -0.0099302    0.0003359
c     0.0057164    0.5638252    0.1343627  0.00   -0.0231566   -0.0467915   -0.0004158
c    -0.3143479    3.2567955    0.0874754  0.00   -0.0050055    0.0194379    0.0007648
c     0.9465092    2.7247714   -0.0262646  0.00    0.0039915    0.0179295    0.0002571
c     1.0894177    1.3600040   -0.0002595  0.00    0.0140585    0.0151728    0.0005681
n     0.4001106   -0.7895126    0.1430449  0.00    0.0327094    0.0258294   -0.0004083
c     2.2078712    0.5800516   -0.1148802  0.00    0.0368371   -0.0136378   -0.0039884
c     1.8048160   -0.7156905   -0.0558413  0.00   -0.0222605   -0.0235587    0.0007383
h    -0.1944568   -1.6359638    0.2549785  0.00    0.0059889    0.0069806    0.0001317
c     3.6067653    1.1162535   -0.3640638  0.00    0.0111962    0.0097525    0.0068997
c     4.7781941    0.1327459   -0.1325214  0.00   -0.0271166    0.0280837    0.0094257
h     3.7560435    1.9947442    0.3084084  0.00    0.0074444    0.0026875    0.0015171
h     3.6633116    1.5006884   -1.4104478  0.00   -0.0008643    0.0033432   -0.0023562
c     6.0877299    0.9188101   -0.0577262  0.00    0.0914094   -0.0355031    0.0306534
n     4.8336266   -0.8846904   -1.2204790  0.00    0.0156416   -0.0095924   -0.0180605
h     4.6722927   -0.3675235    0.8589894  0.00    0.0024090   -0.0040247   -0.0008392
h     5.8319375   -1.0192410   -1.5165146  0.00    0.0024377    0.0058644    0.0094720
h     4.5552837   -1.8236738   -0.8375669  0.00   -0.0037865   -0.0099626    0.0033369
h    -2.4034548    2.8652809    0.2990341  0.00   -0.0008090    0.0000512    0.0000498
h    -2.1132832    0.4088123    0.3390381  0.00   -0.0026777   -0.0005599    0.0000835
h    -0.4473281    4.3366498    0.0703040  0.00    0.0004707    0.0009906    0.0000909
h     1.8071804    3.3803843   -0.1382754  0.00    0.0013773    0.0016885    0.0001427
h     2.4202102   -1.5999625   -0.1612883  0.00   -0.0090419   -0.0051500    0.0002754
o     7.2461658    0.3350402    0.3019598  0.00   -0.0602868    0.0308133   -0.0309058
o     6.0679081    2.2523986   -0.4229364  0.00   -0.0416290   -0.0355986   -0.0459326
h     6.6882699    2.7541012    0.2327375  0.00    0.0068617    0.0156976    0.0374330
    27
 Energy =       0.1890922855
c    -1.4366188    2.3348492    0.2736697  0.00   -0.0114944    0.0085702    0.0006386
c    -1.2530055    0.9752475    0.2993124  0.00   -0.0198999   -0.0085999    0.0002870
c     0.0168305    0.4980193    0.1827023  0.00   -0.0198712   -0.0396276   -0.0003614
c    -0.3630507    3.1809593    0.1291942  0.00   -0.0041675    0.0168707    0.0006326
c     0.9062026    2.6764581    0.0015573  0.00    0.0037800    0.0153628    0.0001811
c     1.0781222    1.3168840    0.0315960  0.00    0.0119149    0.0129643    0.0004943
n     0.4407419   -0.8490211    0.1856980  0.00    0.0270943    0.0215739   -0.0001703
c     2.2106681    0.5665348   -0.0980501  0.00    0.0310365   -0.0116443   -0.0032837
c     1.8428968   -0.7375840   -0.0340332  0.00   -0.0184934   -0.0200616    0.0005351
h    -0.1318940   -1.7107556    0.3062824  0.00    0.0047219    0.0053427    0.0001928
c     3.5892434    1.1402478   -0.3786440  0.00    0.0090924    0.0086702    0.0055454
c     4.7996432    0.2008870   -0.1617839  0.00   -0.0229735    0.0227331    0.0078721
h     3.7232420    2.0285285    0.2834379  0.00    0.0062849    0.0024819    0.0014262
h     3.6136292    1.5168595   -1.4292417  0.00   -0.0008155    0.0031420   -0.0024823
c     6.0841058    1.0347346   -0.1385905  0.00    0.0767520   -0.0299024    0.0264476
n     4.8511065   -0.8327370   -1.2322685  0.00    0.0102176   -0.0052026   -0.0163032
h     4.7355384   -0.2830047    0.8423418  0.00    0.0020903   -0.0039788    0.0002064
h     5.8395667   -0.9262613   -1.5797815  0.00    0.0055038    0.0050560    0.0070582
h     4.6341067   -1.7765883   -0.8190122  0.00   -0.0042353   -0.0116905    0.0044186
h    -2.4398201    2.7449520    0.3681273  0.00   -0.0010105    0.0001613    0.0000706
h    -2.0939238    0.2962739    0.4125250  0.00   -0.0025851   -0.0007040    0.0001060
h    -0.5200731    4.2576865    0.1089707  0.00    0.0003818    0.0011550    0.0000693
h     1.7503869    3.3506720   -0.1254135  0.00    0.0015322    0.0016820    0.0000707
h     2.4831508   -1.6025101   -0.1559291  0.00   -0.0072438   -0.0048118    0.0001444
o     7.2821800    0.4937933    0.1886101  0.00   -0.0481110    0.0253383   -0.0256934
o     6.0127842    2.3665585   -0.5163526  0.00   -0.0381763   -0.0299202   -0.0427950
h     6.6760017    2.8858088    0.0789910  0.00    0.0086749    0.0150393    0.0346926
    27
 Energy =       0.1883077559
c    -1.4505720    2.2699108    0.3330710  0.00   -0.0107958    0.0078194    0.0006096
c    -1.2453113    0.9141256    0.3693870  0.00   -0.0184021   -0.0080548    0.0002683
c     0.0294641    0.4556261    0.2402837  0.00   -0.0182885   -0.0362839   -0.0003590
c    -0.3925895    3.1307438    0.1656216  0.00   -0.0036926    0.0157012    0.0005598
c     0.8816720    2.6446319    0.0247700  0.00    0.0036970    0.0142192    0.0001380
c     1.0743383    1.2889319    0.0657859  0.00    0.0109840    0.0119268    0.0004480
n     0.4744788   -0.8857630    0.2510727  0.00    0.0243518    0.0195477   -0.0000268
c     2.2157537    0.5575074   -0.0753455  0.00    0.0282180   -0.0105995   -0.0028960
c     1.8720411   -0.7514180    0.0065000  0.00   -0.0166698   -0.0184859    0.0004179
h    -0.0819530   -1.7561424    0.3900987  0.00    0.0040132    0.0044129    0.0002546
c     3.5771844    1.1551234   -0.3906157  0.00    0.0079052    0.0082154    0.0050579
c     4.8158860    0.2457768   -0.2039540  0.00   -0.0213221    0.0201064    0.0069682
h     3.7092880    2.0473923    0.2661620  0.00    0.0056574    0.0022990    0.0013804
h     3.5674686    1.5298233   -1.4426035  0.00   -0.0007972    0.0031202   -0.0027973
c     6.0802260    1.1124101   -0.2336333  0.00    0.0698363   -0.0273256    0.0243707
n     4.8549207   -0.7964501   -1.2652920  0.00    0.0090450   -0.0046335   -0.0151865
h     4.7956110   -0.2286623    0.8073625  0.00    0.0019238   -0.0040739    0.0010864
h     5.8376506   -0.8882859   -1.6289580  0.00    0.0052531    0.0045494    0.0063378
h     4.6507659   -1.7374038   -0.8408689  0.00   -0.0039134   -0.0108888    0.0041278
h    -2.4587631    2.6653678    0.4373575  0.00   -0.0011033    0.0001785    0.0000811
h    -2.0738288    0.2231468    0.5007951  0.00   -0.0026118   -0.0008541    0.0001291
h    -0.5665006    4.2047685    0.1370219  0.00    0.0003609    0.0012501    0.0000531
h     1.7133582    3.3306189   -0.1213842  0.00    0.0016620    0.0017560    0.0000186
h     2.5261934   -1.6049654   -0.1201248  0.00   -0.0065502   -0.0045241    0.0001056
o     7.3059356    0.6057549    0.0625538  0.00   -0.0420478    0.0227189   -0.0231954
o     5.9679866    2.4376717   -0.6313860  0.00   -0.0360595   -0.0268064   -0.0409277
h     6.6510571    2.9772516   -0.0797621  0.00    0.0093463    0.0147094    0.0329756
    27
 Energy =       0.1883984985
c    -1.4592496    2.2148870    0.3933595  0.00   -0.0105421    0.0074116    0.0006112
c    -1.2352237    0.8625758    0.4406749  0.00   -0.0177115   -0.0078582    0.0002747
c     0.0435480    0.4199044    0.2991801  0.00   -0.0175202   -0.0346306   -0.0003477
c    -0.4153388    3.0878980    0.2028273  0.00   -0.0034138    0.0152019    0.0005095
c     0.8628311    2.6173375    0.0487033  0.00    0.0037210    0.0137149    0.0000971
c     1.0738519    1.2650811    0.1008305  0.00    0.0105581    0.0114340    0.0004122
n     0.5072889   -0.9157699    0.3189845  0.00    0.0228376    0.0184824    0.0000750
c     2.2225032    0.5490614   -0.0519854  0.00    0.0267235   -0.0100562   -0.0026629
c     1.8992471   -0.7634358    0.0487204  0.00   -0.0156598   -0.0177470    0.0003467
h    -0.0344588   -1.7926377    0.4775680  0.00    0.0035419    0.0037639    0.0003225
c     3.5670189    1.1662756   -0.4028175  0.00    0.0070970    0.0080484    0.0048459
c     4.8305496    0.2842514   -0.2487608  0.00   -0.0207210    0.0184988    0.0064305
h     3.7003568    2.0623334    0.2484750  0.00    0.0053011    0.0022151    0.0014027
h     3.5228990    1.5385958   -1.4553927  0.00   -0.0008301    0.0032078   -0.0032061
c     6.0734624    1.1805069   -0.3333166  0.00    0.0663342   -0.0261273    0.0234049
n     4.8567072   -0.7673021   -1.3004645  0.00    0.0084277   -0.0043955   -0.0147418
h     4.8549892   -0.1798571    0.7681396  0.00    0.0018848   -0.0043020    0.0019758
h     5.8368614   -0.8674409   -1.6687314  0.00    0.0050655    0.0041935    0.0059378
h     4.6522563   -1.7034230   -0.8670380  0.00   -0.0037098   -0.0104728    0.0039424
h    -2.4712606    2.5979137    0.5074413  0.00   -0.0011967    0.0001831    0.0000929
h    -2.0525159    0.1618496    0.5906117  0.00   -0.0027069   -0.0010093    0.0001578
h    -0.6039458    4.1592661    0.1657627  0.00    0.0003574    0.0013500    0.0000390
h     1.6830556    3.3129645   -0.1166931  0.00    0.0018119    0.0018741   -0.0000301
h     2.5634073   -1.6082420   -0.0817568  0.00   -0.0062164   -0.0043781    0.0000829
o     7.3229505    0.7095139   -0.0666013  0.00   -0.0382902    0.0212556   -0.0218373
o     5.9197834    2.4959631   -0.7552903  0.00   -0.0350429   -0.0246249   -0.0403181
h     6.6101873    3.0594221   -0.2385152  0.00    0.0098998    0.0147665    0.0321827
    27
 Energy =       0.1890210106
c    -1.4584079    2.1860675    0.4521004  0.00   -0.0105601    0.0072525    0.0006295
c    -1.2234105    0.8360686    0.5116145  0.00   -0.0175685   -0.0078874    0.0002919
c     0.0569084    0.4016189    0.3591810  0.00   -0.0173352   -0.0341788   -0.0003371
c    -0.4236195    3.0648611    0.2390062  0.00   -0.0032627    0.0151482    0.0004782
c     0.8558408    2.6022418    0.0730414  0.00    0.0037963    0.0136494    0.0000669
c     1.0776619    1.2522897    0.1371275  0.00    0.0104969    0.0113465    0.0003844
n     0.5320699   -0.9301346    0.3911219  0.00    0.0222572    0.0181350    0.0001403
c     2.2294514    0.5440719   -0.0255418  0.00    0.0262147   -0.0097766   -0.0025376
c     1.9186378   -0.7696660    0.0963163  0.00   -0.0153208   -0.0175953    0.0003197
h     0.0000702   -1.8093530    0.5704293  0.00    0.0032624    0.0033533    0.0003935
c     3.5605966    1.1712925   -0.4098409  0.00    0.0064542    0.0079763    0.0048965
c     4.8394632    0.3040709   -0.2969220  0.00   -0.0207095    0.0177986    0.0062789
h     3.7044104    2.0667742    0.2402867  0.00    0.0051015    0.0022193    0.0015310
h     3.4832877    1.5465013   -1.4602310  0.00   -0.0008900    0.0033438   -0.0036793
c     6.0660938    1.2177695   -0.4352993  0.00    0.0655746   -0.0261436    0.0232294